 Entering Gaussian System, Link 0=g16
 Input=5cnf12re.com
 Output=5cnf12re.log
 Initial command:
 /sw/chem/gaussian/g16_C02/a100/g16/l1.exe "/local/becsleip_8020498/Gau-3038440.inp" -scrdir="/local/becsleip_8020498/"
 Entering Link 1 = /sw/chem/gaussian/g16_C02/a100/g16/l1.exe PID=   3038441.
  
 Copyright (c) 1988-2021, Gaussian, Inc.  All Rights Reserved.
  
 This is part of the Gaussian(R) 16 program.  It is based on
 the Gaussian(R) 09 system (copyright 2009, Gaussian, Inc.),
 the Gaussian(R) 03 system (copyright 2003, Gaussian, Inc.),
 the Gaussian(R) 98 system (copyright 1998, Gaussian, Inc.),
 the Gaussian(R) 94 system (copyright 1995, Gaussian, Inc.),
 the Gaussian 92(TM) system (copyright 1992, Gaussian, Inc.),
 the Gaussian 90(TM) system (copyright 1990, Gaussian, Inc.),
 the Gaussian 88(TM) system (copyright 1988, Gaussian, Inc.),
 the Gaussian 86(TM) system (copyright 1986, Carnegie Mellon
 University), and the Gaussian 82(TM) system (copyright 1983,
 Carnegie Mellon University). Gaussian is a federally registered
 trademark of Gaussian, Inc.
  
 This software contains proprietary and confidential information,
 including trade secrets, belonging to Gaussian, Inc.
  
 This software is provided under written license and may be
 used, copied, transmitted, or stored only in accord with that
 written license.
  
 The following legend is applicable only to US Government
 contracts under FAR:
  
                    RESTRICTED RIGHTS LEGEND
  
 Use, reproduction and disclosure by the US Government is
 subject to restrictions as set forth in subparagraphs (a)
 and (c) of the Commercial Computer Software - Restricted
 Rights clause in FAR 52.227-19.
  
 Gaussian, Inc.
 340 Quinnipiac St., Bldg. 40, Wallingford CT 06492
  
  
 ---------------------------------------------------------------
 Warning -- This program may not be used in any manner that
 competes with the business of Gaussian, Inc. or will provide
 assistance to any competitor of Gaussian, Inc.  The licensee
 of this program is prohibited from giving any competitor of
 Gaussian, Inc. access to this program.  By using this program,
 the user acknowledges that Gaussian, Inc. is engaged in the
 business of creating and licensing software in the field of
 computational chemistry and represents and warrants to the
 licensee that it is not a competitor of Gaussian, Inc. and that
 it will not use this program in any manner prohibited above.
 ---------------------------------------------------------------
  

 Cite this work as:
 Gaussian 16, Revision C.02,
 M. J. Frisch, G. W. Trucks, H. B. Schlegel, G. E. Scuseria, 
 M. A. Robb, J. R. Cheeseman, G. Scalmani, V. Barone, 
 G. A. Petersson, H. Nakatsuji, X. Li, M. Caricato, A. V. Marenich, 
 J. Bloino, B. G. Janesko, R. Gomperts, B. Mennucci, H. P. Hratchian, 
 J. V. Ortiz, A. F. Izmaylov, J. L. Sonnenberg, D. Williams-Young, 
 F. Ding, F. Lipparini, F. Egidi, J. Goings, B. Peng, A. Petrone, 
 T. Henderson, D. Ranasinghe, V. G. Zakrzewski, J. Gao, N. Rega, 
 G. Zheng, W. Liang, M. Hada, M. Ehara, K. Toyota, R. Fukuda, 
 J. Hasegawa, M. Ishida, T. Nakajima, Y. Honda, O. Kitao, H. Nakai, 
 T. Vreven, K. Throssell, J. A. Montgomery, Jr., J. E. Peralta, 
 F. Ogliaro, M. J. Bearpark, J. J. Heyd, E. N. Brothers, K. N. Kudin, 
 V. N. Staroverov, T. A. Keith, R. Kobayashi, J. Normand, 
 K. Raghavachari, A. P. Rendell, J. C. Burant, S. S. Iyengar, 
 J. Tomasi, M. Cossi, J. M. Millam, M. Klene, C. Adamo, R. Cammi, 
 J. W. Ochterski, R. L. Martin, K. Morokuma, O. Farkas, 
 J. B. Foresman, and D. J. Fox, Gaussian, Inc., Wallingford CT, 2019.
 
 ******************************************
 Gaussian 16:  ES64L-G16RevC.02  7-Dec-2021
                16-Sep-2024 
 ******************************************
 %mem=16GB
 %CPU=0-71
 SetSPE:  set environment variable "OMP_PROC_BIND" = "true"
 SetSPE:  set environment variable "OMP_PLACES" = "{0},{1},{2},{3},{4},{5},{6},{7},{8},{9},{10},{11},{12},{13},{14},{15},{16},{17},{18},{19},{20},{21},{22},{23},{24},{25},{26},{27},{28},{29},{30},{31},{32},{33},{34},{35},{36},{37},{38},{39},{40},{41},{42},{43},{44},{45},{46},{47},{48},{49},{50},{51},{52},{53},{54},{55},{56},{57},{58},{59},{60},{61},{62},{63},{64},{65},{66},{67},{68},{69},{70},{71}"
 Will use up to   72 processors via shared memory.
 %gpucpu=0,1,2,3=0,1,2,3
 Will use    4 GPUs:
 Thread  CPU   GPU
      0    0     0
      1    1     1
      2    2     2
      3    3     3
      4    4    -1
      5    5    -1
      6    6    -1
      7    7    -1
      8    8    -1
      9    9    -1
     10   10    -1
     11   11    -1
     12   12    -1
     13   13    -1
     14   14    -1
     15   15    -1
     16   16    -1
     17   17    -1
     18   18    -1
     19   19    -1
     20   20    -1
     21   21    -1
     22   22    -1
     23   23    -1
     24   24    -1
     25   25    -1
     26   26    -1
     27   27    -1
     28   28    -1
     29   29    -1
     30   30    -1
     31   31    -1
     32   32    -1
     33   33    -1
     34   34    -1
     35   35    -1
     36   36    -1
     37   37    -1
     38   38    -1
     39   39    -1
     40   40    -1
     41   41    -1
     42   42    -1
     43   43    -1
     44   44    -1
     45   45    -1
     46   46    -1
     47   47    -1
     48   48    -1
     49   49    -1
     50   50    -1
     51   51    -1
     52   52    -1
     53   53    -1
     54   54    -1
     55   55    -1
     56   56    -1
     57   57    -1
     58   58    -1
     59   59    -1
     60   60    -1
     61   61    -1
     62   62    -1
     63   63    -1
     64   64    -1
     65   65    -1
     66   66    -1
     67   67    -1
     68   68    -1
     69   69    -1
     70   70    -1
     71   71    -1
 SetGPE:  set environment variable "OMP_PROC_BIND" = "true"
 SetGPE:  set environment variable "OMP_PLACES" = "{0},{1},{2},{3},{4},{5},{6},{7},{8},{9},{10},{11},{12},{13},{14},{15},{16},{17},{18},{19},{20},{21},{22},{23},{24},{25},{26},{27},{28},{29},{30},{31},{32},{33},{34},{35},{36},{37},{38},{39},{40},{41},{42},{43},{44},{45},{46},{47},{48},{49},{50},{51},{52},{53},{54},{55},{56},{57},{58},{59},{60},{61},{62},{63},{64},{65},{66},{67},{68},{69},{70},{71}"
 %oldchk=5cnf_II_S.chk
 %chk=5cnf_II_Sre.chk
 Properties for Device   0
 Minimum vector length:                              32
 Maximum vector length:                            1024
 Number of SMPs:                                    108
 Maximum number of threads per SMP:                2048
 Number of ASync Engines:                             5
 Memory:                                           9207742464
 Properties for Device   1
 Minimum vector length:                              32
 Maximum vector length:                            1024
 Number of SMPs:                                    108
 Maximum number of threads per SMP:                2048
 Number of ASync Engines:                             5
 Memory:                                           9207742464
 Properties for Device   2
 Minimum vector length:                              32
 Maximum vector length:                            1024
 Number of SMPs:                                    108
 Maximum number of threads per SMP:                2048
 Number of ASync Engines:                             5
 Memory:                                           9207742464
 Properties for Device   3
 Minimum vector length:                              32
 Maximum vector length:                            1024
 Number of SMPs:                                    108
 Maximum number of threads per SMP:                2048
 Number of ASync Engines:                             5
 Memory:                                           9207742464
   8286968217 words of memory will be used on each GPU.
 Copying data from "5cnf_II_S.chk" to current chk file "5cnf_II_Sre.chk"
 IOpt=  2 FromEx=T IUOpen= 4 IOptOp= 5 NList=   0 IFRang= 0 IUIn= 4 IUOut= 2.
 --------------------------------------
 # apfd/gen scf=maxcycle=999 geom=check
 --------------------------------------
 1/29=2,38=1,172=1/1;
 2/12=2,40=1/2;
 3/5=7,11=2,14=-4,25=1,30=1,74=-44/1,2,3;
 4//1;
 5/5=2,7=999,38=5/2;
 6/7=2,8=2,9=2,10=2,28=1/1;
 99/5=1,9=1/99;
 ----------
 5cnf_III_D
 ----------
 Structure from the checkpoint file:  "5cnf_II_Sre.chk"
 Charge =  1 Multiplicity = 2
 Z-Matrix found in chk file.
 Fe,0,12.0810681805,-28.9548749564,13.686155138
 N,0,10.9913552321,-30.2417424315,14.7552712585
 N,0,11.9271228931,-27.6187409209,15.1856794814
 N,0,12.9022859509,-27.5267300824,12.541294033
 N,0,11.9518220182,-30.1539213438,12.1052056848
 C,0,10.6230834496,-31.4987315934,14.3802716465
 C,0,10.0169181062,-32.209922317,15.4829274027
 C,0,10.014953988,-31.350651793,16.5368230123
 C,0,10.6223593385,-30.127685489,16.0629639685
 C,0,11.3919457868,-27.8298620331,16.4231132336
 C,0,11.5075478054,-26.6552454251,17.2472682377
 C,0,12.1361979906,-25.7101842508,16.4816681458
 C,0,12.3856481846,-26.3365260499,15.1988221837
 C,0,13.1805622663,-26.2365437223,12.8847489497
 C,0,13.6830007857,-25.493958502,11.7586615281
 C,0,13.7025674852,-26.3657000712,10.7032748686
 C,0,13.1982904321,-27.6240211377,11.2156938373
 C,0,12.4512242422,-29.9287895384,10.8580916174
 C,0,12.2188403147,-31.0656845242,9.9958663279
 C,0,11.5774360563,-31.993883558,10.7546016202
 C,0,11.4185833764,-31.4070680132,12.0663296181
 C,0,10.8011027061,-32.0447318612,13.1234353974
 H,0,10.4367158197,-33.0470351287,12.9586574363
 C,0,10.7964073873,-29.0052968612,16.8455951368
 H,0,10.4244038806,-29.0419447652,17.8580932781
 C,0,12.9925373758,-25.6915245596,14.1409959347
 H,0,13.2739273625,-24.6593918806,14.2820710381
 C,0,13.0585756126,-28.7608306392,10.441891313
 H,0,13.3756099909,-28.7069447845,9.4116806602
 C,0,9.5010692079,-31.5525044588,17.9211648813
 H,0,9.0974358982,-32.5547565713,18.0410205943
 H,0,8.7098400088,-30.8360921518,18.1428245104
 H,0,10.2973787253,-31.4134437664,18.6530827541
 C,0,9.5047144695,-33.6068206517,15.4023517038
 H,0,10.3033419756,-34.2929088555,15.1194926036
 H,0,8.7148539724,-33.6809959648,14.654736591
 H,0,9.1001957059,-33.9266290042,16.3594481865
 C,0,11.0769506033,-26.5581844198,18.6693515158
 H,0,11.2784325364,-27.4877594152,19.2001648942
 H,0,10.006892008,-26.3561452681,18.737893625
 H,0,11.6113648011,-25.7507264209,19.1657603271
 C,0,12.5181696667,-24.3582544847,16.8277949891
 H,0,13.4365890752,-24.0017010275,16.3756742748
 C,0,11.8401833124,-23.547681647,17.6334417613
 H,0,10.8990347084,-23.8306749235,18.0715047234
 H,0,12.1932879855,-22.5554400522,17.8608264004
 C,0,14.1378878132,-24.0773263807,11.7992371105
 H,0,14.6718368036,-23.8692674265,12.7252922077
 H,0,13.2883650791,-23.3951993823,11.7393106402
 H,0,14.8013974439,-23.8747840533,10.9609999352
 C,0,14.1228392662,-26.1388924085,9.3371249114
 H,0,14.6013424501,-26.97940699,8.8471432875
 C,0,13.9602891098,-25.006570662,8.6613425415
 H,0,13.4486784145,-24.1582361508,9.0813239493
 H,0,14.3102377024,-24.8996007611,7.6479667782
 C,0,12.6304937991,-31.1326039537,8.5654277744
 H,0,13.7105840705,-31.0172267471,8.4705495385
 H,0,12.1538353822,-30.3365544768,7.9931706308
 H,0,12.3479734933,-32.0859653602,8.1260153505
 C,0,11.089057331,-33.3499272249,10.3766053453
 H,0,11.5514044895,-34.1123012149,11.0040931818
 H,0,11.325486046,-33.5707731655,9.3386645101
 H,0,10.0084031382,-33.4166541165,10.503945537
 C,0,17.3256907026,-30.8426610689,13.9963511944
 H,0,17.5436526004,-30.6056120569,12.9600842106
 H,0,17.450097296,-31.9157614604,14.1412723797
 H,0,18.0440204385,-30.3274897348,14.6329606154
 N,0,15.4266595772,-30.4951642483,15.5894499368
 H,0,15.9184892558,-30.8221551451,16.4046409558
 C,0,15.9390707322,-30.4241662139,14.3215890083
 C,0,14.1517730591,-30.0466418504,15.5434927126
 H,0,13.5042698688,-29.9889455072,16.3946500478
 N,0,13.8228580941,-29.6960123281,14.321300189
 C,0,14.9280485383,-29.9267645504,13.5502401231
 H,0,14.9194293247,-29.7174480437,12.5000690721
 Recover connectivity data from disk.
 Stoichiometry    C34H34FeN6(1+,2)
 Framework group  C1[X(C34H34FeN6)]
 Deg. of freedom   219
 Full point group                 C1      NOp   1
 Largest Abelian subgroup         C1      NOp   1
 Largest concise Abelian subgroup C1      NOp   1
                         Standard orientation:                         
 ---------------------------------------------------------------------
 Center     Atomic      Atomic             Coordinates (Angstroms)
 Number     Number       Type             X           Y           Z
 ---------------------------------------------------------------------
      1         26           0       -0.028693   -0.173778   -0.314327
      2          7           0       -1.183282   -1.774002   -0.618826
      3          7           0       -1.671956    0.989963   -0.368342
      4          7           0        1.104301    1.481825   -0.316836
      5          7           0        1.594804   -1.290390   -0.581262
      6          6           0       -0.766154   -3.067260   -0.717611
      7          6           0       -1.892103   -3.973401   -0.732669
      8          6           0       -3.006863   -3.198937   -0.651667
      9          6           0       -2.545232   -1.830839   -0.585835
     10          6           0       -2.971310    0.575818   -0.417237
     11          6           0       -3.875690    1.695437   -0.387752
     12          6           0       -3.094455    2.817384   -0.314317
     13          6           0       -1.722929    2.349348   -0.305339
     14          6           0        0.687633    2.780425   -0.318885
     15          6           0        1.802712    3.685671   -0.414167
     16          6           0        2.925447    2.904783   -0.476123
     17          6           0        2.460646    1.533022   -0.426418
     18          6           0        2.891516   -0.873461   -0.571802
     19          6           0        3.794467   -1.991358   -0.729760
     20          6           0        3.013991   -3.100886   -0.821616
     21          6           0        1.645530   -2.643922   -0.728259
     22          6           0        0.550157   -3.481745   -0.788114
     23          1           0        0.735276   -4.539982   -0.890121
     24          6           0       -3.386942   -0.741372   -0.501293
     25          1           0       -4.449363   -0.930628   -0.519368
     26          6           0       -0.630794    3.190942   -0.257393
     27          1           0       -0.820512    4.253142   -0.246508
     28          6           0        3.305457    0.439975   -0.472983
     29          1           0        4.367076    0.629541   -0.515172
     30          6           0       -4.441177   -3.603662   -0.638769
     31          1           0       -4.537767   -4.685287   -0.689301
     32          1           0       -4.966994   -3.172877   -1.491039
     33          1           0       -4.932243   -3.257411    0.271239
     34          6           0       -1.777106   -5.455579   -0.833133
     35          1           0       -1.194960   -5.852796   -0.001353
     36          1           0       -1.277753   -5.737503   -1.760212
     37          1           0       -2.759076   -5.921917   -0.818650
     38          6           0       -5.361482    1.599007   -0.371022
     39          1           0       -5.688817    0.754948    0.234687
     40          1           0       -5.752830    1.461403   -1.380207
     41          1           0       -5.788986    2.510525    0.041752
     42          6           0       -3.492647    4.206306   -0.238439
     43          1           0       -2.851720    4.844370    0.359161
     44          6           0       -4.554400    4.737805   -0.835053
     45          1           0       -5.197905    4.163337   -1.478196
     46          1           0       -4.800913    5.780506   -0.721320
     47          6           0        1.707127    5.170712   -0.383629
     48          1           0        0.948921    5.494611    0.327836
     49          1           0        1.437245    5.562382   -1.365634
     50          1           0        2.663898    5.599874   -0.093254
     51          6           0        4.312977    3.303905   -0.575607
     52          1           0        5.022513    2.670266   -0.055441
     53          6           0        4.762696    4.358563   -1.246954
     54          1           0        4.109439    4.992336   -1.820878
     55          1           0        5.810614    4.608011   -1.268866
     56          6           0        5.278972   -1.871708   -0.774710
     57          1           0        5.656846   -1.428022    0.146844
     58          1           0        5.585999   -1.237110   -1.606212
     59          1           0        5.741853   -2.847328   -0.900036
     60          6           0        3.413211   -4.524963   -1.002937
     61          1           0        3.045260   -5.134120   -0.176946
     62          1           0        4.495367   -4.621074   -1.044078
     63          1           0        2.997970   -4.923846   -1.928652
     64          6           0        1.391754   -0.379149    5.080687
     65          1           0        2.407520   -0.045376    4.895310
     66          1           0        1.428518   -1.367790    5.538136
     67          1           0        0.920507    0.304894    5.785444
     68          7           0       -0.700779   -0.693020    3.743590
     69          1           0       -1.295678   -0.886530    4.532263
     70          6           0        0.639380   -0.417909    3.801600
     71          6           0       -1.072723   -0.654145    2.444064
     72          1           0       -2.071183   -0.831370    2.099498
     73          7           0       -0.048166   -0.371996    1.672342
     74          6           0        1.024905   -0.222733    2.506289
     75          1           0        1.994013    0.015965    2.118217
 ---------------------------------------------------------------------
 Rotational constants (GHZ):           0.0938284           0.0923649           0.0593825
 General basis read from cards:  (5D, 7F)
 There are   704 symmetry adapted cartesian basis functions of A   symmetry.
 There are   661 symmetry adapted basis functions of A   symmetry.
   661 basis functions,  1342 primitive gaussians,   704 cartesian basis functions
   153 alpha electrons      152 beta electrons
       nuclear repulsion energy      5565.4944544817 Hartrees.
 NAtoms=   75 NActive=   75 NUniq=   75 SFac= 1.00D+00 NAtFMM=   60 NAOKFM=T Big=T
 Integral buffers will be    131072 words long.
 Raffenetti 2 integral format.
 Two-electron integral symmetry is turned on.
 R6APFD:  NTU= -4 IXU= 1 FactS= 1.050
 Nuclear repulsion after empirical dispersion term =     5565.3619313724 Hartrees.
 One-electron integrals computed using PRISM.
 NBasis=   661 RedAO= T EigKep=  2.53D-04  NBF=   661
 NBsUse=   661 1.00D-06 EigRej= -1.00D+00 NBFU=   661
 ExpMin= 4.20D-02 ExpMax= 3.01D+05 ExpMxC= 2.91D+03 IAcc=3 IRadAn=         5 AccDes= 0.00D+00
 Harris functional with IExCor= 3731 and IRadAn=       5 diagonalized for initial guess.
 HarFok:  IExCor= 3731 AccDes= 0.00D+00 IRadAn=         5 IDoV= 1 UseB2=F ITyADJ=14
 ICtDFT=  3500011 ScaDFX=  1.000000  1.000000  1.000000  1.000000
 FoFCou: FMM=F IPFlag=           0 FMFlag=      100000 FMFlg1=        2001
         NFxFlg=           0 DoJE=T BraDBF=F KetDBF=T FulRan=T
         wScrn=  0.000000 ICntrl=       500 IOpCl=  0 I1Cent=   200000004 NGrid=           0
         NMat0=    1 NMatS0=      1 NMatT0=    0 NMatD0=    1 NMtDS0=    0 NMtDT0=    0
 Petite list used in FoFCou.
 Initial guess <Sx>= 0.0000 <Sy>= 0.0000 <Sz>= 0.5000 <S**2>= 0.7500 S= 0.5000
 Requested convergence on RMS density matrix=1.00D-08 within 999 cycles.
 Requested convergence on MAX density matrix=1.00D-06.
 Requested convergence on             energy=1.00D-06.
 No special actions if energy rises.
 EnCoef did   100 forward-backward iterations
 EnCoef did   100 forward-backward iterations
 EnCoef did   100 forward-backward iterations
 EnCoef did   100 forward-backward iterations
 EnCoef did     6 forward-backward iterations
 Restarting incremental Fock formation.
 Rare condition: small coef for last iteration:  0.000D+00
 Rare condition: small coef for last iteration:  0.000D+00
 Rare condition: small coef for last iteration:  0.000D+00
 Rare condition: small coef for last iteration:  0.000D+00
 Rare condition: small coef for last iteration:  0.000D+00
 Rare condition: small coef for last iteration:  0.000D+00
 Rare condition: small coef for last iteration:  0.000D+00
 Restarting incremental Fock formation.
 Restarting incremental Fock formation.
 Restarting incremental Fock formation.
 SCF Done:  E(UAPFD) =  -2906.82951432     A.U. after   82 cycles
            NFock= 82  Conv=0.33D-08     -V/T= 2.0038
 <Sx>= 0.0000 <Sy>= 0.0000 <Sz>= 0.5000 <S**2>= 0.9229 S= 0.5830
 <L.S>=  0.00000000000    
 Annihilation of the first spin contaminant:
 S**2 before annihilation     0.9229,   after     0.7569

 **********************************************************************

            Population analysis using the SCF Density.

 **********************************************************************

 Orbital symmetries:
 Alpha Orbitals:
       Occupied  (A) (A) (A) (A) (A) (A) (A) (A) (A) (A) (A) (A)
                 (A) (A) (A) (A) (A) (A) (A) (A) (A) (A) (A) (A)
                 (A) (A) (A) (A) (A) (A) (A) (A) (A) (A) (A) (A)
                 (A) (A) (A) (A) (A) (A) (A) (A) (A) (A) (A) (A)
                 (A) (A) (A) (A) (A) (A) (A) (A) (A) (A) (A) (A)
                 (A) (A) (A) (A) (A) (A) (A) (A) (A) (A) (A) (A)
                 (A) (A) (A) (A) (A) (A) (A) (A) (A) (A) (A) (A)
                 (A) (A) (A) (A) (A) (A) (A) (A) (A) (A) (A) (A)
                 (A) (A) (A) (A) (A) (A) (A) (A) (A) (A) (A) (A)
                 (A) (A) (A) (A) (A) (A) (A) (A) (A) (A) (A) (A)
                 (A) (A) (A) (A) (A) (A) (A) (A) (A) (A) (A) (A)
                 (A) (A) (A) (A) (A) (A) (A) (A) (A) (A) (A) (A)
                 (A) (A) (A) (A) (A) (A) (A) (A) (A)
       Virtual   (A) (A) (A) (A) (A) (A) (A) (A) (A) (A) (A) (A)
                 (A) (A) (A) (A) (A) (A) (A) (A) (A) (A) (A) (A)
                 (A) (A) (A) (A) (A) (A) (A) (A) (A) (A) (A) (A)
                 (A) (A) (A) (A) (A) (A) (A) (A) (A) (A) (A) (A)
                 (A) (A) (A) (A) (A) (A) (A) (A) (A) (A) (A) (A)
                 (A) (A) (A) (A) (A) (A) (A) (A) (A) (A) (A) (A)
                 (A) (A) (A) (A) (A) (A) (A) (A) (A) (A) (A) (A)
                 (A) (A) (A) (A) (A) (A) (A) (A) (A) (A) (A) (A)
                 (A) (A) (A) (A) (A) (A) (A) (A) (A) (A) (A) (A)
                 (A) (A) (A) (A) (A) (A) (A) (A) (A) (A) (A) (A)
                 (A) (A) (A) (A) (A) (A) (A) (A) (A) (A) (A) (A)
                 (A) (A) (A) (A) (A) (A) (A) (A) (A) (A) (A) (A)
                 (A) (A) (A) (A) (A) (A) (A) (A) (A) (A) (A) (A)
                 (A) (A) (A) (A) (A) (A) (A) (A) (A) (A) (A) (A)
                 (A) (A) (A) (A) (A) (A) (A) (A) (A) (A) (A) (A)
                 (A) (A) (A) (A) (A) (A) (A) (A) (A) (A) (A) (A)
                 (A) (A) (A) (A) (A) (A) (A) (A) (A) (A) (A) (A)
                 (A) (A) (A) (A) (A) (A) (A) (A) (A) (A) (A) (A)
                 (A) (A) (A) (A) (A) (A) (A) (A) (A) (A) (A) (A)
                 (A) (A) (A) (A) (A) (A) (A) (A) (A) (A) (A) (A)
                 (A) (A) (A) (A) (A) (A) (A) (A) (A) (A) (A) (A)
                 (A) (A) (A) (A) (A) (A) (A) (A) (A) (A) (A) (A)
                 (A) (A) (A) (A) (A) (A) (A) (A) (A) (A) (A) (A)
                 (A) (A) (A) (A) (A) (A) (A) (A) (A) (A) (A) (A)
                 (A) (A) (A) (A) (A) (A) (A) (A) (A) (A) (A) (A)
                 (A) (A) (A) (A) (A) (A) (A) (A) (A) (A) (A) (A)
                 (A) (A) (A) (A) (A) (A) (A) (A) (A) (A) (A) (A)
                 (A) (A) (A) (A) (A) (A) (A) (A) (A) (A) (A) (A)
                 (A) (A) (A) (A) (A) (A) (A) (A) (A) (A) (A) (A)
                 (A) (A) (A) (A) (A) (A) (A) (A) (A) (A) (A) (A)
                 (A) (A) (A) (A) (A) (A) (A) (A) (A) (A) (A) (A)
                 (A) (A) (A) (A) (A) (A) (A) (A) (A) (A) (A) (A)
                 (A) (A) (A) (A) (A) (A) (A) (A) (A) (A) (A) (A)
                 (A) (A) (A) (A) (A) (A) (A) (A) (A) (A) (A) (A)
                 (A) (A) (A) (A) (A) (A) (A) (A) (A) (A) (A) (A)
                 (A) (A) (A) (A) (A) (A) (A) (A) (A) (A) (A) (A)
                 (A) (A) (A) (A) (A) (A) (A) (A) (A) (A) (A) (A)
                 (A) (A) (A) (A) (A) (A) (A) (A) (A) (A) (A) (A)
                 (A) (A) (A) (A) (A) (A) (A) (A) (A) (A) (A) (A)
                 (A) (A) (A) (A) (A) (A) (A) (A) (A) (A) (A) (A)
                 (A) (A) (A) (A) (A) (A) (A) (A) (A) (A) (A) (A)
                 (A) (A) (A) (A) (A) (A) (A) (A) (A) (A) (A) (A)
                 (A) (A) (A) (A)
 Beta  Orbitals:
       Occupied  (A) (A) (A) (A) (A) (A) (A) (A) (A) (A) (A) (A)
                 (A) (A) (A) (A) (A) (A) (A) (A) (A) (A) (A) (A)
                 (A) (A) (A) (A) (A) (A) (A) (A) (A) (A) (A) (A)
                 (A) (A) (A) (A) (A) (A) (A) (A) (A) (A) (A) (A)
                 (A) (A) (A) (A) (A) (A) (A) (A) (A) (A) (A) (A)
                 (A) (A) (A) (A) (A) (A) (A) (A) (A) (A) (A) (A)
                 (A) (A) (A) (A) (A) (A) (A) (A) (A) (A) (A) (A)
                 (A) (A) (A) (A) (A) (A) (A) (A) (A) (A) (A) (A)
                 (A) (A) (A) (A) (A) (A) (A) (A) (A) (A) (A) (A)
                 (A) (A) (A) (A) (A) (A) (A) (A) (A) (A) (A) (A)
                 (A) (A) (A) (A) (A) (A) (A) (A) (A) (A) (A) (A)
                 (A) (A) (A) (A) (A) (A) (A) (A) (A) (A) (A) (A)
                 (A) (A) (A) (A) (A) (A) (A) (A)
       Virtual   (A) (A) (A) (A) (A) (A) (A) (A) (A) (A) (A) (A)
                 (A) (A) (A) (A) (A) (A) (A) (A) (A) (A) (A) (A)
                 (A) (A) (A) (A) (A) (A) (A) (A) (A) (A) (A) (A)
                 (A) (A) (A) (A) (A) (A) (A) (A) (A) (A) (A) (A)
                 (A) (A) (A) (A) (A) (A) (A) (A) (A) (A) (A) (A)
                 (A) (A) (A) (A) (A) (A) (A) (A) (A) (A) (A) (A)
                 (A) (A) (A) (A) (A) (A) (A) (A) (A) (A) (A) (A)
                 (A) (A) (A) (A) (A) (A) (A) (A) (A) (A) (A) (A)
                 (A) (A) (A) (A) (A) (A) (A) (A) (A) (A) (A) (A)
                 (A) (A) (A) (A) (A) (A) (A) (A) (A) (A) (A) (A)
                 (A) (A) (A) (A) (A) (A) (A) (A) (A) (A) (A) (A)
                 (A) (A) (A) (A) (A) (A) (A) (A) (A) (A) (A) (A)
                 (A) (A) (A) (A) (A) (A) (A) (A) (A) (A) (A) (A)
                 (A) (A) (A) (A) (A) (A) (A) (A) (A) (A) (A) (A)
                 (A) (A) (A) (A) (A) (A) (A) (A) (A) (A) (A) (A)
                 (A) (A) (A) (A) (A) (A) (A) (A) (A) (A) (A) (A)
                 (A) (A) (A) (A) (A) (A) (A) (A) (A) (A) (A) (A)
                 (A) (A) (A) (A) (A) (A) (A) (A) (A) (A) (A) (A)
                 (A) (A) (A) (A) (A) (A) (A) (A) (A) (A) (A) (A)
                 (A) (A) (A) (A) (A) (A) (A) (A) (A) (A) (A) (A)
                 (A) (A) (A) (A) (A) (A) (A) (A) (A) (A) (A) (A)
                 (A) (A) (A) (A) (A) (A) (A) (A) (A) (A) (A) (A)
                 (A) (A) (A) (A) (A) (A) (A) (A) (A) (A) (A) (A)
                 (A) (A) (A) (A) (A) (A) (A) (A) (A) (A) (A) (A)
                 (A) (A) (A) (A) (A) (A) (A) (A) (A) (A) (A) (A)
                 (A) (A) (A) (A) (A) (A) (A) (A) (A) (A) (A) (A)
                 (A) (A) (A) (A) (A) (A) (A) (A) (A) (A) (A) (A)
                 (A) (A) (A) (A) (A) (A) (A) (A) (A) (A) (A) (A)
                 (A) (A) (A) (A) (A) (A) (A) (A) (A) (A) (A) (A)
                 (A) (A) (A) (A) (A) (A) (A) (A) (A) (A) (A) (A)
                 (A) (A) (A) (A) (A) (A) (A) (A) (A) (A) (A) (A)
                 (A) (A) (A) (A) (A) (A) (A) (A) (A) (A) (A) (A)
                 (A) (A) (A) (A) (A) (A) (A) (A) (A) (A) (A) (A)
                 (A) (A) (A) (A) (A) (A) (A) (A) (A) (A) (A) (A)
                 (A) (A) (A) (A) (A) (A) (A) (A) (A) (A) (A) (A)
                 (A) (A) (A) (A) (A) (A) (A) (A) (A) (A) (A) (A)
                 (A) (A) (A) (A) (A) (A) (A) (A) (A) (A) (A) (A)
                 (A) (A) (A) (A) (A) (A) (A) (A) (A) (A) (A) (A)
                 (A) (A) (A) (A) (A) (A) (A) (A) (A) (A) (A) (A)
                 (A) (A) (A) (A) (A) (A) (A) (A) (A) (A) (A) (A)
                 (A) (A) (A) (A) (A) (A) (A) (A) (A) (A) (A) (A)
                 (A) (A) (A) (A) (A) (A) (A) (A) (A) (A) (A) (A)
                 (A) (A) (A) (A) (A)
 The electronic state is 2-A.
 Alpha  occ. eigenvalues -- -256.37227 -30.24181 -26.08758 -26.08625 -26.05956
 Alpha  occ. eigenvalues --  -14.54960 -14.52023 -14.48288 -14.48284 -14.47879
 Alpha  occ. eigenvalues --  -14.47686 -10.39164 -10.36198 -10.33816 -10.33796
 Alpha  occ. eigenvalues --  -10.33763 -10.33742 -10.33708 -10.33666 -10.33527
 Alpha  occ. eigenvalues --  -10.33452 -10.33411 -10.31099 -10.31057 -10.30950
 Alpha  occ. eigenvalues --  -10.30828 -10.30806 -10.30744 -10.30585 -10.30516
 Alpha  occ. eigenvalues --  -10.30436 -10.30276 -10.30226 -10.30151 -10.29942
 Alpha  occ. eigenvalues --  -10.29543 -10.29281 -10.28470 -10.28446 -10.28434
 Alpha  occ. eigenvalues --  -10.28344 -10.28315 -10.28232 -10.27896 -10.27890
 Alpha  occ. eigenvalues --   -3.63568  -2.42023  -2.41452  -2.35590  -1.17755
 Alpha  occ. eigenvalues --   -1.09210  -1.08378  -1.07963  -1.07164  -1.03553
 Alpha  occ. eigenvalues --   -0.93848  -0.92365  -0.91907  -0.91604  -0.91457
 Alpha  occ. eigenvalues --   -0.91227  -0.90998  -0.90919  -0.86852  -0.85591
 Alpha  occ. eigenvalues --   -0.85524  -0.84440  -0.83103  -0.82910  -0.81336
 Alpha  occ. eigenvalues --   -0.80283  -0.78731  -0.78535  -0.78260  -0.76745
 Alpha  occ. eigenvalues --   -0.75393  -0.75329  -0.73177  -0.70769  -0.70058
 Alpha  occ. eigenvalues --   -0.69024  -0.68492  -0.67647  -0.65345  -0.64603
 Alpha  occ. eigenvalues --   -0.63718  -0.63377  -0.62008  -0.61876  -0.61531
 Alpha  occ. eigenvalues --   -0.59693  -0.59293  -0.58848  -0.58406  -0.58238
 Alpha  occ. eigenvalues --   -0.56172  -0.55429  -0.55083  -0.54795  -0.54468
 Alpha  occ. eigenvalues --   -0.54147  -0.54096  -0.54060  -0.53601  -0.53465
 Alpha  occ. eigenvalues --   -0.53099  -0.52713  -0.52605  -0.52367  -0.52105
 Alpha  occ. eigenvalues --   -0.52004  -0.50787  -0.50741  -0.50630  -0.50478
 Alpha  occ. eigenvalues --   -0.50411  -0.50132  -0.50096  -0.49836  -0.49488
 Alpha  occ. eigenvalues --   -0.49159  -0.48790  -0.48741  -0.48404  -0.48196
 Alpha  occ. eigenvalues --   -0.47816  -0.47623  -0.47328  -0.46819  -0.46384
 Alpha  occ. eigenvalues --   -0.45990  -0.45847  -0.44975  -0.44467  -0.43781
 Alpha  occ. eigenvalues --   -0.43494  -0.42986  -0.42645  -0.41962  -0.41643
 Alpha  occ. eigenvalues --   -0.40131  -0.39529  -0.39143  -0.38880  -0.37338
 Alpha  occ. eigenvalues --   -0.36924  -0.35347  -0.34287  -0.33216  -0.32438
 Alpha  occ. eigenvalues --   -0.31760  -0.30236  -0.28885
 Alpha virt. eigenvalues --   -0.22722  -0.17345  -0.17309  -0.14524  -0.11580
 Alpha virt. eigenvalues --   -0.09716  -0.07931  -0.06789  -0.05578  -0.04747
 Alpha virt. eigenvalues --   -0.02510  -0.01968  -0.01785  -0.01055   0.00747
 Alpha virt. eigenvalues --    0.01037   0.01683   0.02498   0.02831   0.03092
 Alpha virt. eigenvalues --    0.03765   0.03901   0.04175   0.04692   0.04805
 Alpha virt. eigenvalues --    0.04938   0.05434   0.05548   0.06089   0.06391
 Alpha virt. eigenvalues --    0.06907   0.07357   0.07610   0.07906   0.08038
 Alpha virt. eigenvalues --    0.08328   0.08478   0.08869   0.08989   0.09390
 Alpha virt. eigenvalues --    0.09642   0.09950   0.10164   0.10411   0.10771
 Alpha virt. eigenvalues --    0.11322   0.11715   0.11937   0.12213   0.12333
 Alpha virt. eigenvalues --    0.12634   0.12835   0.13254   0.13723   0.14289
 Alpha virt. eigenvalues --    0.14717   0.15150   0.15658   0.15695   0.16114
 Alpha virt. eigenvalues --    0.16431   0.16747   0.17105   0.17835   0.17871
 Alpha virt. eigenvalues --    0.19491   0.19910   0.20211   0.20659   0.21767
 Alpha virt. eigenvalues --    0.22029   0.23075   0.23287   0.24796   0.24956
 Alpha virt. eigenvalues --    0.25538   0.25865   0.26655   0.26955   0.27172
 Alpha virt. eigenvalues --    0.28426   0.30212   0.30756   0.30959   0.31822
 Alpha virt. eigenvalues --    0.33053   0.33734   0.33813   0.34663   0.35101
 Alpha virt. eigenvalues --    0.37622   0.37675   0.38143   0.38596   0.39298
 Alpha virt. eigenvalues --    0.39710   0.40181   0.40377   0.40522   0.41591
 Alpha virt. eigenvalues --    0.41794   0.42079   0.42375   0.42569   0.43159
 Alpha virt. eigenvalues --    0.43301   0.43690   0.43822   0.44575   0.44746
 Alpha virt. eigenvalues --    0.45090   0.45779   0.46016   0.46565   0.47197
 Alpha virt. eigenvalues --    0.47309   0.47632   0.48122   0.48506   0.48913
 Alpha virt. eigenvalues --    0.49614   0.49796   0.50217   0.50554   0.50908
 Alpha virt. eigenvalues --    0.51238   0.52057   0.52423   0.52736   0.53174
 Alpha virt. eigenvalues --    0.53848   0.54144   0.54490   0.54946   0.55329
 Alpha virt. eigenvalues --    0.55492   0.55873   0.56304   0.56670   0.57090
 Alpha virt. eigenvalues --    0.57344   0.57545   0.57555   0.57983   0.58615
 Alpha virt. eigenvalues --    0.59421   0.59667   0.59840   0.60647   0.60987
 Alpha virt. eigenvalues --    0.61524   0.62312   0.62654   0.63078   0.63510
 Alpha virt. eigenvalues --    0.64014   0.64858   0.64953   0.65848   0.66454
 Alpha virt. eigenvalues --    0.66578   0.66730   0.67543   0.67735   0.67983
 Alpha virt. eigenvalues --    0.68427   0.68526   0.68817   0.69331   0.69636
 Alpha virt. eigenvalues --    0.69666   0.70547   0.70625   0.71370   0.71596
 Alpha virt. eigenvalues --    0.72791   0.73309   0.73381   0.74123   0.74523
 Alpha virt. eigenvalues --    0.75882   0.76476   0.77186   0.77447   0.77604
 Alpha virt. eigenvalues --    0.78069   0.78344   0.78641   0.78860   0.79020
 Alpha virt. eigenvalues --    0.79752   0.80269   0.81031   0.81371   0.81499
 Alpha virt. eigenvalues --    0.82318   0.82588   0.82701   0.82842   0.83056
 Alpha virt. eigenvalues --    0.83693   0.83760   0.84099   0.84590   0.84813
 Alpha virt. eigenvalues --    0.84998   0.85566   0.86339   0.86482   0.86944
 Alpha virt. eigenvalues --    0.87273   0.87870   0.88027   0.88951   0.89344
 Alpha virt. eigenvalues --    0.89560   0.89799   0.90392   0.90844   0.91059
 Alpha virt. eigenvalues --    0.91322   0.91873   0.92523   0.93003   0.93465
 Alpha virt. eigenvalues --    0.93762   0.94209   0.94565   0.95244   0.95568
 Alpha virt. eigenvalues --    0.96325   0.96945   0.97233   0.97578   0.98772
 Alpha virt. eigenvalues --    0.99368   1.01296   1.01787   1.03114   1.03785
 Alpha virt. eigenvalues --    1.05009   1.05488   1.06669   1.06908   1.07190
 Alpha virt. eigenvalues --    1.07693   1.08231   1.08698   1.09646   1.09976
 Alpha virt. eigenvalues --    1.10146   1.10918   1.11119   1.11301   1.12030
 Alpha virt. eigenvalues --    1.13482   1.13552   1.14033   1.14698   1.15280
 Alpha virt. eigenvalues --    1.16918   1.17736   1.18682   1.19312   1.19833
 Alpha virt. eigenvalues --    1.20359   1.20485   1.21248   1.21629   1.22747
 Alpha virt. eigenvalues --    1.23229   1.23998   1.24935   1.25803   1.26487
 Alpha virt. eigenvalues --    1.26629   1.27147   1.27522   1.27786   1.28087
 Alpha virt. eigenvalues --    1.28328   1.28980   1.29851   1.30121   1.30572
 Alpha virt. eigenvalues --    1.32641   1.32853   1.33267   1.33628   1.34253
 Alpha virt. eigenvalues --    1.35910   1.36719   1.37676   1.37965   1.38510
 Alpha virt. eigenvalues --    1.39624   1.40974   1.41248   1.43415   1.43898
 Alpha virt. eigenvalues --    1.44194   1.44771   1.45555   1.46549   1.46785
 Alpha virt. eigenvalues --    1.47768   1.48722   1.49885   1.50534   1.51613
 Alpha virt. eigenvalues --    1.52542   1.52825   1.53816   1.55506   1.56413
 Alpha virt. eigenvalues --    1.56954   1.58015   1.59983   1.60280   1.61266
 Alpha virt. eigenvalues --    1.61954   1.63051   1.64983   1.68458   1.68867
 Alpha virt. eigenvalues --    1.69110   1.69483   1.69847   1.70510   1.70629
 Alpha virt. eigenvalues --    1.70881   1.71260   1.72039   1.72423   1.72689
 Alpha virt. eigenvalues --    1.73357   1.73532   1.74397   1.74923   1.75334
 Alpha virt. eigenvalues --    1.75676   1.77080   1.77417   1.77985   1.78250
 Alpha virt. eigenvalues --    1.79108   1.79593   1.79866   1.80705   1.81655
 Alpha virt. eigenvalues --    1.82378   1.82830   1.83063   1.84237   1.84565
 Alpha virt. eigenvalues --    1.84983   1.85870   1.86082   1.87769   1.89029
 Alpha virt. eigenvalues --    1.90161   1.90329   1.90572   1.91080   1.91395
 Alpha virt. eigenvalues --    1.91779   1.93102   1.93412   1.95047   1.95182
 Alpha virt. eigenvalues --    1.95610   1.95804   1.96212   1.97107   1.98110
 Alpha virt. eigenvalues --    1.98598   1.99382   2.00191   2.00860   2.02038
 Alpha virt. eigenvalues --    2.03003   2.03677   2.04420   2.05658   2.06060
 Alpha virt. eigenvalues --    2.06201   2.07177   2.07386   2.08782   2.09243
 Alpha virt. eigenvalues --    2.09861   2.10768   2.11229   2.12386   2.13332
 Alpha virt. eigenvalues --    2.13371   2.14183   2.14439   2.14492   2.16052
 Alpha virt. eigenvalues --    2.16276   2.16830   2.16905   2.17322   2.17687
 Alpha virt. eigenvalues --    2.18323   2.19018   2.19434   2.20245   2.20362
 Alpha virt. eigenvalues --    2.20979   2.21447   2.21538   2.22176   2.23335
 Alpha virt. eigenvalues --    2.24516   2.24912   2.25503   2.26100   2.26566
 Alpha virt. eigenvalues --    2.27341   2.27388   2.27716   2.27931   2.28859
 Alpha virt. eigenvalues --    2.30421   2.30623   2.31205   2.31366   2.32113
 Alpha virt. eigenvalues --    2.32980   2.33943   2.34028   2.34728   2.35289
 Alpha virt. eigenvalues --    2.35389   2.37669   2.38371   2.39605   2.40279
 Alpha virt. eigenvalues --    2.42074   2.42593   2.43092   2.43309   2.43391
 Alpha virt. eigenvalues --    2.45338   2.45534   2.46164   2.46369   2.46987
 Alpha virt. eigenvalues --    2.49142   2.50170   2.50372   2.50869   2.52923
 Alpha virt. eigenvalues --    2.55126   2.56327   2.57363   2.58090   2.58213
 Alpha virt. eigenvalues --    2.59104   2.60343   2.61443   2.62569   2.63618
 Alpha virt. eigenvalues --    2.65460   2.67994   2.68241   2.69917   2.70895
 Alpha virt. eigenvalues --    2.71640   2.75857   2.77112   2.77493   2.78440
 Alpha virt. eigenvalues --    2.80592   2.81209   2.82589   2.84740   2.86677
 Alpha virt. eigenvalues --    2.86974   2.87714   2.88640   2.88968   2.89417
 Alpha virt. eigenvalues --    2.90814   2.93965   2.94702   2.95270   3.02012
 Alpha virt. eigenvalues --    3.03604   3.04090   3.10296   3.13180   3.13891
 Alpha virt. eigenvalues --    3.19945   3.20142   3.28043   3.29553   3.30143
 Alpha virt. eigenvalues --    3.33926   3.35967   3.36136   3.43600   3.50758
 Alpha virt. eigenvalues --    3.75955   3.92198   4.08762
  Beta  occ. eigenvalues -- -256.37181 -30.21600 -26.06004 -26.05770 -26.05103
  Beta  occ. eigenvalues --  -14.54958 -14.52146 -14.48420 -14.48418 -14.48044
  Beta  occ. eigenvalues --  -14.47839 -10.39147 -10.36202 -10.33787 -10.33762
  Beta  occ. eigenvalues --  -10.33743 -10.33724 -10.33673 -10.33634 -10.33498
  Beta  occ. eigenvalues --  -10.33422 -10.33384 -10.31137 -10.31099 -10.31031
  Beta  occ. eigenvalues --  -10.30902 -10.30891 -10.30725 -10.30562 -10.30494
  Beta  occ. eigenvalues --  -10.30415 -10.30275 -10.30224 -10.30150 -10.29942
  Beta  occ. eigenvalues --  -10.29550 -10.29281 -10.28472 -10.28447 -10.28436
  Beta  occ. eigenvalues --  -10.28345 -10.28315 -10.28219 -10.27896 -10.27889
  Beta  occ. eigenvalues --   -3.57258  -2.33528  -2.32923  -2.32482  -1.17785
  Beta  occ. eigenvalues --   -1.09330  -1.08469  -1.08124  -1.07294  -1.03637
  Beta  occ. eigenvalues --   -0.93924  -0.92369  -0.91942  -0.91607  -0.91467
  Beta  occ. eigenvalues --   -0.91276  -0.91076  -0.91012  -0.86847  -0.85772
  Beta  occ. eigenvalues --   -0.85540  -0.84450  -0.83117  -0.82919  -0.81350
  Beta  occ. eigenvalues --   -0.80309  -0.78744  -0.78548  -0.78301  -0.76801
  Beta  occ. eigenvalues --   -0.75415  -0.75351  -0.73189  -0.70774  -0.70069
  Beta  occ. eigenvalues --   -0.69029  -0.68573  -0.67663  -0.65358  -0.64631
  Beta  occ. eigenvalues --   -0.63731  -0.63368  -0.62049  -0.61928  -0.61563
  Beta  occ. eigenvalues --   -0.59702  -0.59277  -0.58804  -0.58436  -0.58241
  Beta  occ. eigenvalues --   -0.56208  -0.55465  -0.55102  -0.54788  -0.54429
  Beta  occ. eigenvalues --   -0.54143  -0.54100  -0.54023  -0.53604  -0.53500
  Beta  occ. eigenvalues --   -0.53084  -0.52663  -0.52607  -0.52381  -0.52086
  Beta  occ. eigenvalues --   -0.51992  -0.50776  -0.50631  -0.50613  -0.50435
  Beta  occ. eigenvalues --   -0.50406  -0.50141  -0.49862  -0.49857  -0.49513
  Beta  occ. eigenvalues --   -0.49159  -0.48760  -0.48551  -0.48251  -0.48173
  Beta  occ. eigenvalues --   -0.47814  -0.47454  -0.47207  -0.46687  -0.46304
  Beta  occ. eigenvalues --   -0.45826  -0.44985  -0.44376  -0.43999  -0.43633
  Beta  occ. eigenvalues --   -0.43116  -0.42610  -0.42144  -0.41888  -0.39800
  Beta  occ. eigenvalues --   -0.39218  -0.38398  -0.37842  -0.36623  -0.36494
  Beta  occ. eigenvalues --   -0.35254  -0.34467  -0.33409  -0.32553  -0.31589
  Beta  occ. eigenvalues --   -0.30330  -0.28621
  Beta virt. eigenvalues --   -0.20046  -0.17553  -0.17511  -0.16263  -0.11683
  Beta virt. eigenvalues --   -0.11029  -0.09486  -0.07830  -0.06837  -0.05480
  Beta virt. eigenvalues --   -0.04820  -0.02344  -0.01700  -0.01424  -0.00969
  Beta virt. eigenvalues --    0.00833   0.01109   0.01667   0.02502   0.02842
  Beta virt. eigenvalues --    0.03083   0.03765   0.03934   0.04135   0.04648
  Beta virt. eigenvalues --    0.04824   0.04925   0.05416   0.05542   0.06096
  Beta virt. eigenvalues --    0.06399   0.06912   0.07363   0.07626   0.07901
  Beta virt. eigenvalues --    0.08016   0.08345   0.08499   0.08870   0.09008
  Beta virt. eigenvalues --    0.09391   0.09675   0.09969   0.10168   0.10432
  Beta virt. eigenvalues --    0.10772   0.11342   0.11727   0.12051   0.12228
  Beta virt. eigenvalues --    0.12351   0.12791   0.12974   0.13306   0.13788
  Beta virt. eigenvalues --    0.14431   0.14780   0.15197   0.15702   0.15812
  Beta virt. eigenvalues --    0.16125   0.16491   0.16760   0.17207   0.17855
  Beta virt. eigenvalues --    0.17901   0.19509   0.20142   0.20357   0.20655
  Beta virt. eigenvalues --    0.21809   0.22156   0.23137   0.23321   0.24840
  Beta virt. eigenvalues --    0.24999   0.25583   0.25898   0.26688   0.27028
  Beta virt. eigenvalues --    0.27228   0.28442   0.30255   0.30882   0.30979
  Beta virt. eigenvalues --    0.31909   0.33025   0.33729   0.33797   0.34695
  Beta virt. eigenvalues --    0.35177   0.37660   0.37814   0.38180   0.38622
  Beta virt. eigenvalues --    0.39300   0.39722   0.40223   0.40469   0.40583
  Beta virt. eigenvalues --    0.41624   0.41857   0.42147   0.42386   0.42560
  Beta virt. eigenvalues --    0.43169   0.43316   0.43705   0.43831   0.44661
  Beta virt. eigenvalues --    0.44760   0.45121   0.45835   0.46035   0.46700
  Beta virt. eigenvalues --    0.47226   0.47303   0.47584   0.48126   0.48416
  Beta virt. eigenvalues --    0.48918   0.49672   0.49783   0.50237   0.50550
  Beta virt. eigenvalues --    0.50903   0.51209   0.52040   0.52435   0.52723
  Beta virt. eigenvalues --    0.53150   0.53898   0.54148   0.54583   0.54942
  Beta virt. eigenvalues --    0.55341   0.55660   0.55888   0.56350   0.56612
  Beta virt. eigenvalues --    0.57035   0.57351   0.57593   0.57715   0.58027
  Beta virt. eigenvalues --    0.58626   0.59480   0.59745   0.59865   0.60734
  Beta virt. eigenvalues --    0.61156   0.61589   0.62325   0.62713   0.63175
  Beta virt. eigenvalues --    0.63664   0.64030   0.64915   0.64998   0.65857
  Beta virt. eigenvalues --    0.66453   0.66601   0.66745   0.67550   0.67839
  Beta virt. eigenvalues --    0.67994   0.68469   0.68648   0.68868   0.69366
  Beta virt. eigenvalues --    0.69668   0.70105   0.70568   0.70672   0.71397
  Beta virt. eigenvalues --    0.71747   0.72880   0.73373   0.73394   0.74143
  Beta virt. eigenvalues --    0.74626   0.75910   0.76524   0.77192   0.77449
  Beta virt. eigenvalues --    0.77587   0.78065   0.78385   0.78675   0.78864
  Beta virt. eigenvalues --    0.79048   0.79821   0.80332   0.81043   0.81443
  Beta virt. eigenvalues --    0.81522   0.82357   0.82602   0.82722   0.82948
  Beta virt. eigenvalues --    0.83068   0.83738   0.83774   0.84099   0.84587
  Beta virt. eigenvalues --    0.84872   0.85027   0.85506   0.86340   0.86520
  Beta virt. eigenvalues --    0.86929   0.87340   0.87890   0.88059   0.88957
  Beta virt. eigenvalues --    0.89372   0.89647   0.89809   0.90432   0.90843
  Beta virt. eigenvalues --    0.91163   0.91387   0.91881   0.92540   0.92975
  Beta virt. eigenvalues --    0.93612   0.93785   0.94251   0.94554   0.95281
  Beta virt. eigenvalues --    0.95564   0.96351   0.96958   0.97221   0.97612
  Beta virt. eigenvalues --    0.98815   0.99494   1.01343   1.01781   1.03396
  Beta virt. eigenvalues --    1.03882   1.04996   1.05506   1.06712   1.07184
  Beta virt. eigenvalues --    1.07631   1.07707   1.08283   1.08775   1.09690
  Beta virt. eigenvalues --    1.09991   1.10163   1.10950   1.11181   1.11325
  Beta virt. eigenvalues --    1.12034   1.13547   1.13728   1.14116   1.14820
  Beta virt. eigenvalues --    1.15281   1.16973   1.17715   1.18680   1.19333
  Beta virt. eigenvalues --    1.19851   1.20336   1.20497   1.21242   1.21624
  Beta virt. eigenvalues --    1.22753   1.23254   1.24045   1.24953   1.25842
  Beta virt. eigenvalues --    1.26496   1.26622   1.27163   1.27538   1.27792
  Beta virt. eigenvalues --    1.28066   1.28330   1.28984   1.29961   1.30124
  Beta virt. eigenvalues --    1.30683   1.32657   1.32889   1.33205   1.33565
  Beta virt. eigenvalues --    1.34211   1.35906   1.36741   1.37645   1.37950
  Beta virt. eigenvalues --    1.38485   1.39615   1.40994   1.41255   1.43405
  Beta virt. eigenvalues --    1.43897   1.44184   1.44778   1.45548   1.46585
  Beta virt. eigenvalues --    1.46872   1.47877   1.48778   1.49889   1.50529
  Beta virt. eigenvalues --    1.51627   1.52544   1.53009   1.53853   1.55721
  Beta virt. eigenvalues --    1.56435   1.57072   1.58122   1.60018   1.60285
  Beta virt. eigenvalues --    1.61259   1.61948   1.63036   1.64982   1.68472
  Beta virt. eigenvalues --    1.69030   1.69127   1.69453   1.69919   1.70506
  Beta virt. eigenvalues --    1.70637   1.70867   1.71294   1.71983   1.72441
  Beta virt. eigenvalues --    1.72706   1.73342   1.73541   1.74376   1.74933
  Beta virt. eigenvalues --    1.75303   1.75681   1.77034   1.77417   1.77919
  Beta virt. eigenvalues --    1.78237   1.79110   1.79731   1.79863   1.80805
  Beta virt. eigenvalues --    1.81636   1.82429   1.82827   1.83019   1.84216
  Beta virt. eigenvalues --    1.84642   1.85019   1.85801   1.86093   1.88304
  Beta virt. eigenvalues --    1.89245   1.90175   1.90341   1.90639   1.91085
  Beta virt. eigenvalues --    1.91432   1.91792   1.93190   1.93428   1.95003
  Beta virt. eigenvalues --    1.95199   1.95654   1.95792   1.96248   1.97117
  Beta virt. eigenvalues --    1.98098   1.98559   1.99353   2.00229   2.00947
  Beta virt. eigenvalues --    2.02030   2.03031   2.03713   2.04414   2.05672
  Beta virt. eigenvalues --    2.06096   2.06294   2.07244   2.07842   2.08823
  Beta virt. eigenvalues --    2.09331   2.09931   2.10768   2.11294   2.12746
  Beta virt. eigenvalues --    2.13368   2.13550   2.14242   2.14752   2.15195
  Beta virt. eigenvalues --    2.16081   2.16377   2.16897   2.17017   2.17583
  Beta virt. eigenvalues --    2.17750   2.18335   2.19056   2.19624   2.20305
  Beta virt. eigenvalues --    2.20377   2.20977   2.21499   2.21748   2.22209
  Beta virt. eigenvalues --    2.23355   2.24555   2.24944   2.25529   2.26113
  Beta virt. eigenvalues --    2.26580   2.27365   2.27372   2.27708   2.27947
  Beta virt. eigenvalues --    2.28883   2.30423   2.30613   2.31222   2.31363
  Beta virt. eigenvalues --    2.32165   2.33028   2.33966   2.34076   2.34735
  Beta virt. eigenvalues --    2.35301   2.35511   2.37666   2.38427   2.39725
  Beta virt. eigenvalues --    2.40341   2.42029   2.42579   2.43113   2.43346
  Beta virt. eigenvalues --    2.43441   2.45303   2.45536   2.46167   2.46387
  Beta virt. eigenvalues --    2.46991   2.49213   2.50194   2.50393   2.50896
  Beta virt. eigenvalues --    2.52943   2.55087   2.56293   2.57269   2.58032
  Beta virt. eigenvalues --    2.58163   2.59000   2.60253   2.61352   2.62548
  Beta virt. eigenvalues --    2.63630   2.65410   2.67951   2.68211   2.69911
  Beta virt. eigenvalues --    2.70889   2.71616   2.75807   2.77095   2.77402
  Beta virt. eigenvalues --    2.78377   2.80597   2.81198   2.82617   2.84729
  Beta virt. eigenvalues --    2.86653   2.86937   2.87831   2.88615   2.88929
  Beta virt. eigenvalues --    2.89396   2.90864   2.93979   2.94679   2.95253
  Beta virt. eigenvalues --    3.01991   3.03616   3.04093   3.10282   3.13212
  Beta virt. eigenvalues --    3.13937   3.19956   3.20145   3.28084   3.29552
  Beta virt. eigenvalues --    3.30227   3.35891   3.36100   3.37576   3.49141
  Beta virt. eigenvalues --    3.55028   3.77955   3.94708   4.11009
          Condensed to atoms (all electrons):
          Atomic-Atomic Spin Densities.
 Mulliken charges and spin densities:
               1          2
     1  Fe   0.874944   1.306030
     2  N   -0.666026  -0.071190
     3  N   -0.694735  -0.068493
     4  N   -0.676732  -0.075400
     5  N   -0.698977  -0.070865
     6  C    0.327255   0.023630
     7  C    0.040274   0.000612
     8  C    0.040869   0.001947
     9  C    0.305862   0.022629
    10  C    0.314035   0.023735
    11  C    0.045758   0.011873
    12  C    0.008676   0.014353
    13  C    0.332820   0.021528
    14  C    0.323998   0.021566
    15  C    0.045273   0.000944
    16  C    0.007359   0.000171
    17  C    0.323297   0.025934
    18  C    0.322562   0.025992
    19  C    0.044645   0.014976
    20  C    0.043205   0.013928
    21  C    0.335346   0.024823
    22  C   -0.286435  -0.063929
    23  H    0.196562   0.002965
    24  C   -0.301848  -0.060218
    25  H    0.196541   0.002792
    26  C   -0.280916  -0.056663
    27  H    0.198026   0.002652
    28  C   -0.296223  -0.061991
    29  H    0.197326   0.002852
    30  C   -0.611281  -0.000427
    31  H    0.205536  -0.000128
    32  H    0.209044   0.000231
    33  H    0.194813   0.000233
    34  C   -0.612510  -0.000387
    35  H    0.200024   0.000197
    36  H    0.208154   0.000196
    37  H    0.204207  -0.000142
    38  C   -0.614150  -0.001301
    39  H    0.190382   0.000564
    40  H    0.212298   0.000965
    41  H    0.212752  -0.000006
    42  C   -0.155435  -0.006040
    43  H    0.179759   0.000533
    44  C   -0.387293   0.009049
    45  H    0.191372  -0.000450
    46  H    0.195521  -0.000409
    47  C   -0.614923  -0.000379
    48  H    0.193378   0.000128
    49  H    0.210528   0.000242
    50  H    0.212147  -0.000156
    51  C   -0.155779  -0.000647
    52  H    0.175587   0.000069
    53  C   -0.387060   0.001018
    54  H    0.190925  -0.000044
    55  H    0.193330  -0.000056
    56  C   -0.613023  -0.001580
    57  H    0.200946   0.001013
    58  H    0.211300   0.000938
    59  H    0.206071  -0.000066
    60  C   -0.612861  -0.001744
    61  H    0.202716   0.001007
    62  H    0.205541  -0.000148
    63  H    0.209754   0.000984
    64  C   -0.602471  -0.000229
    65  H    0.223825  -0.000048
    66  H    0.218815  -0.000161
    67  H    0.214983   0.000009
    68  N   -0.628507   0.001269
    69  H    0.390932  -0.000071
    70  C    0.284631  -0.001957
    71  C    0.266675   0.011161
    72  H    0.236428  -0.000092
    73  N   -0.456551  -0.051909
    74  C   -0.037854   0.001194
    75  H    0.214581   0.000400
 Sum of Mulliken charges =   1.00000   1.00000
 Mulliken charges and spin densities with hydrogens summed into heavy atoms:
               1          2
     1  Fe   0.874944   1.306030
     2  N   -0.666026  -0.071190
     3  N   -0.694735  -0.068493
     4  N   -0.676732  -0.075400
     5  N   -0.698977  -0.070865
     6  C    0.327255   0.023630
     7  C    0.040274   0.000612
     8  C    0.040869   0.001947
     9  C    0.305862   0.022629
    10  C    0.314035   0.023735
    11  C    0.045758   0.011873
    12  C    0.008676   0.014353
    13  C    0.332820   0.021528
    14  C    0.323998   0.021566
    15  C    0.045273   0.000944
    16  C    0.007359   0.000171
    17  C    0.323297   0.025934
    18  C    0.322562   0.025992
    19  C    0.044645   0.014976
    20  C    0.043205   0.013928
    21  C    0.335346   0.024823
    22  C   -0.089873  -0.060964
    24  C   -0.105307  -0.057425
    26  C   -0.082890  -0.054010
    28  C   -0.098898  -0.059139
    30  C   -0.001888  -0.000092
    34  C   -0.000124  -0.000137
    38  C    0.001282   0.000222
    42  C    0.024325  -0.005508
    44  C   -0.000399   0.008189
    47  C    0.001130  -0.000165
    51  C    0.019808  -0.000578
    53  C   -0.002805   0.000917
    56  C    0.005294   0.000305
    60  C    0.005150   0.000099
    64  C    0.055152  -0.000429
    68  N   -0.237575   0.001198
    70  C    0.284631  -0.001957
    71  C    0.503103   0.011068
    73  N   -0.456551  -0.051909
    74  C    0.176727   0.001594
 Electronic spatial extent (au):  <R**2>=          19761.0843
 Charge=              1.0000 electrons
 Dipole moment (field-independent basis, Debye):
    X=             -0.7975    Y=             -1.8659    Z=              6.0993  Tot=              6.4280
 Quadrupole moment (field-independent basis, Debye-Ang):
   XX=           -170.3022   YY=           -177.7751   ZZ=           -203.6356
   XY=             -0.0701   XZ=             -3.2734   YZ=             -4.4193
 Traceless Quadrupole moment (field-independent basis, Debye-Ang):
   XX=             13.6021   YY=              6.1292   ZZ=            -19.7313
   XY=             -0.0701   XZ=             -3.2734   YZ=             -4.4193
 Octapole moment (field-independent basis, Debye-Ang**2):
  XXX=              2.5178  YYY=             -4.3471  ZZZ=            214.1619  XYY=             -9.7191
  XXY=              7.5526  XXZ=            -29.0787  XZZ=            -10.6255  YZZ=            -38.5662
  YYZ=            -54.0693  XYZ=              7.3618
 Hexadecapole moment (field-independent basis, Debye-Ang**3):
 XXXX=         -10155.3371 YYYY=          -9960.4003 ZZZZ=          -2347.7991 XXXY=            -48.3237
 XXXZ=             28.8136 YYYX=            -33.1311 YYYZ=             18.0116 ZZZX=            -29.4009
 ZZZY=           -142.6005 XXYY=          -3153.7617 XXZZ=          -2431.2774 YYZZ=          -2464.8825
 XXYZ=            -77.4130 YYXZ=            -66.3318 ZZXY=             29.8429
 N-N= 5.565361931372D+03 E-N=-1.792460256710D+04  KE= 2.895881396027D+03
                          Isotropic Fermi Contact Couplings
        Atom                 a.u.       MegaHertz       Gauss      10(-4) cm-1
     1  Fe(57)             0.18054      26.18548       9.34363       8.73454
     2  N(14)             -0.03696     -11.94330      -4.26167      -3.98386
     3  N(14)             -0.03039      -9.81872      -3.50356      -3.27517
     4  N(14)             -0.03316     -10.71278      -3.82259      -3.57340
     5  N(14)             -0.03246     -10.48856      -3.74258      -3.49861
     6  C(13)              0.00336       3.77199       1.34594       1.25820
     7  C(13)             -0.00092      -1.03184      -0.36819      -0.34418
     8  C(13)             -0.00059      -0.66873      -0.23862      -0.22306
     9  C(13)              0.00328       3.68305       1.31420       1.22853
    10  C(13)              0.00410       4.61351       1.64621       1.53890
    11  C(13)              0.00094       1.06199       0.37894       0.35424
    12  C(13)              0.00111       1.24707       0.44499       0.41598
    13  C(13)              0.00302       3.39153       1.21018       1.13129
    14  C(13)              0.00326       3.66609       1.30815       1.22288
    15  C(13)             -0.00055      -0.61631      -0.21992      -0.20558
    16  C(13)             -0.00068      -0.76764      -0.27391      -0.25606
    17  C(13)              0.00415       4.66710       1.66534       1.55678
    18  C(13)              0.00514       5.77470       2.06056       1.92623
    19  C(13)              0.00141       1.58673       0.56619       0.52928
    20  C(13)              0.00079       0.89228       0.31839       0.29763
    21  C(13)              0.00272       3.06039       1.09202       1.02084
    22  C(13)             -0.00849      -9.54500      -3.40589      -3.18387
    23  H(1)               0.00100       4.47813       1.59791       1.49374
    24  C(13)             -0.00809      -9.09127      -3.24399      -3.03252
    25  H(1)               0.00095       4.24239       1.51379       1.41511
    26  C(13)             -0.00749      -8.42172      -3.00508      -2.80918
    27  H(1)               0.00090       4.00325       1.42846       1.33534
    28  C(13)             -0.00843      -9.47547      -3.38108      -3.16068
    29  H(1)               0.00096       4.30608       1.53652       1.43635
    30  C(13)             -0.00018      -0.19880      -0.07094      -0.06631
    31  H(1)              -0.00005      -0.24446      -0.08723      -0.08154
    32  H(1)               0.00013       0.59124       0.21097       0.19722
    33  H(1)               0.00013       0.56618       0.20203       0.18886
    34  C(13)             -0.00018      -0.20671      -0.07376      -0.06895
    35  H(1)               0.00011       0.50417       0.17990       0.16817
    36  H(1)               0.00012       0.51716       0.18454       0.17251
    37  H(1)              -0.00006      -0.27401      -0.09777      -0.09140
    38  C(13)             -0.00045      -0.50908      -0.18165      -0.16981
    39  H(1)               0.00025       1.10945       0.39588       0.37007
    40  H(1)               0.00048       2.15240       0.76803       0.71796
    41  H(1)               0.00001       0.02930       0.01045       0.00977
    42  C(13)             -0.00119      -1.33351      -0.47583      -0.44481
    43  H(1)               0.00020       0.89613       0.31976       0.29892
    44  C(13)              0.00143       1.60552       0.57289       0.53554
    45  H(1)              -0.00014      -0.61861      -0.22074      -0.20635
    46  H(1)              -0.00014      -0.60665      -0.21647      -0.20236
    47  C(13)             -0.00015      -0.16583      -0.05917      -0.05532
    48  H(1)               0.00004       0.18256       0.06514       0.06090
    49  H(1)               0.00011       0.48470       0.17295       0.16168
    50  H(1)              -0.00004      -0.19508      -0.06961      -0.06507
    51  C(13)             -0.00012      -0.13758      -0.04909      -0.04589
    52  H(1)               0.00002       0.10874       0.03880       0.03627
    53  C(13)              0.00014       0.15354       0.05479       0.05121
    54  H(1)              -0.00001      -0.06136      -0.02190      -0.02047
    55  H(1)              -0.00002      -0.09577      -0.03417      -0.03194
    56  C(13)             -0.00058      -0.64840      -0.23136      -0.21628
    57  H(1)               0.00046       2.06306       0.73615       0.68816
    58  H(1)               0.00043       1.92455       0.68673       0.64196
    59  H(1)              -0.00003      -0.14508      -0.05177      -0.04839
    60  C(13)             -0.00072      -0.81148      -0.28956      -0.27068
    61  H(1)               0.00048       2.13928       0.76335       0.71359
    62  H(1)              -0.00007      -0.30570      -0.10908      -0.10197
    63  H(1)               0.00046       2.03504       0.72615       0.67882
    64  C(13)             -0.00008      -0.08798      -0.03139      -0.02935
    65  H(1)              -0.00003      -0.15305      -0.05461      -0.05105
    66  H(1)              -0.00007      -0.30169      -0.10765      -0.10063
    67  H(1)               0.00002       0.08160       0.02912       0.02722
    68  N(14)             -0.00099      -0.31870      -0.11372      -0.10631
    69  H(1)              -0.00009      -0.38033      -0.13571      -0.12686
    70  C(13)             -0.00150      -1.69013      -0.60308      -0.56377
    71  C(13)             -0.00018      -0.20673      -0.07377      -0.06896
    72  H(1)              -0.00023      -1.03388      -0.36892      -0.34487
    73  N(14)             -0.05380     -17.38145      -6.20214      -5.79783
    74  C(13)             -0.00080      -0.89929      -0.32089      -0.29997
    75  H(1)              -0.00007      -0.32060      -0.11440      -0.10694
 --------------------------------------------------------
       Center         ----  Spin Dipole Couplings  ----
                      3XX-RR        3YY-RR        3ZZ-RR
 --------------------------------------------------------
     1   Atom       -0.992827     -0.830920      1.823747
     2   Atom        0.043315      0.037937     -0.081252
     3   Atom        0.044444      0.029781     -0.074225
     4   Atom        0.057515      0.054477     -0.111993
     5   Atom        0.045458      0.038572     -0.084030
     6   Atom       -0.013367     -0.003107      0.016474
     7   Atom       -0.003841      0.000570      0.003271
     8   Atom       -0.001004     -0.003105      0.004109
     9   Atom       -0.007017     -0.007380      0.014396
    10   Atom       -0.001140     -0.014860      0.016000
    11   Atom       -0.005698     -0.009746      0.015444
    12   Atom       -0.010516     -0.007718      0.018234
    13   Atom       -0.008504     -0.007965      0.016469
    14   Atom       -0.011995     -0.002049      0.014044
    15   Atom       -0.003430      0.000524      0.002906
    16   Atom       -0.000324     -0.001869      0.002192
    17   Atom       -0.008037     -0.008362      0.016399
    18   Atom       -0.000926     -0.016591      0.017517
    19   Atom       -0.007321     -0.011478      0.018799
    20   Atom       -0.011340     -0.007675      0.019015
    21   Atom       -0.009685     -0.010341      0.020026
    22   Atom        0.025653      0.036247     -0.061900
    23   Atom        0.002059     -0.000372     -0.001687
    24   Atom        0.034431      0.024008     -0.058439
    25   Atom       -0.000363      0.001982     -0.001619
    26   Atom        0.022114      0.032920     -0.055034
    27   Atom        0.001639     -0.000045     -0.001594
    28   Atom        0.035202      0.024451     -0.059653
    29   Atom       -0.000357      0.002033     -0.001676
    30   Atom        0.000675     -0.000171     -0.000504
    31   Atom        0.000310      0.000192     -0.000502
    32   Atom        0.000878     -0.000320     -0.000558
    33   Atom        0.000905     -0.000308     -0.000597
    34   Atom       -0.000636      0.001068     -0.000431
    35   Atom       -0.000683      0.001304     -0.000621
    36   Atom       -0.000656      0.001170     -0.000513
    37   Atom       -0.000355      0.000846     -0.000491
    38   Atom        0.001513     -0.000943     -0.000570
    39   Atom        0.001476     -0.000729     -0.000746
    40   Atom        0.001338     -0.000757     -0.000581
    41   Atom        0.001188     -0.000472     -0.000717
    42   Atom        0.000065      0.002770     -0.002835
    43   Atom       -0.000509      0.001261     -0.000751
    44   Atom        0.001220     -0.003631      0.002412
    45   Atom        0.000465      0.000033     -0.000498
    46   Atom       -0.000344      0.000927     -0.000583
    47   Atom       -0.000565      0.001118     -0.000554
    48   Atom       -0.000676      0.001270     -0.000594
    49   Atom       -0.000585      0.001139     -0.000553
    50   Atom       -0.000335      0.000839     -0.000504
    51   Atom        0.000855     -0.000032     -0.000823
    52   Atom        0.000958     -0.000346     -0.000612
    53   Atom       -0.000231      0.000450     -0.000218
    54   Atom        0.000060      0.000354     -0.000414
    55   Atom        0.000321      0.000006     -0.000327
    56   Atom        0.001708     -0.001088     -0.000620
    57   Atom        0.001566     -0.000850     -0.000716
    58   Atom        0.001463     -0.000783     -0.000680
    59   Atom        0.001292     -0.000583     -0.000708
    60   Atom       -0.000524      0.000824     -0.000300
    61   Atom       -0.000555      0.001313     -0.000758
    62   Atom        0.000078      0.000584     -0.000662
    63   Atom       -0.000527      0.001097     -0.000570
    64   Atom       -0.000399     -0.000493      0.000892
    65   Atom       -0.000403     -0.000732      0.001135
    66   Atom       -0.000465     -0.000645      0.001110
    67   Atom       -0.000527     -0.000636      0.001163
    68   Atom       -0.003624      0.005862     -0.002238
    69   Atom       -0.001085     -0.001047      0.002132
    70   Atom       -0.000294     -0.001715      0.002009
    71   Atom       -0.010460      0.007583      0.002877
    72   Atom        0.001199     -0.003652      0.002453
    73   Atom        0.024523      0.012939     -0.037462
    74   Atom       -0.005452     -0.002126      0.007577
    75   Atom        0.000663     -0.004635      0.003972
 --------------------------------------------------------
                        XY            XZ            YZ
 --------------------------------------------------------
     1   Atom       -2.300335      0.203868      0.548865
     2   Atom       -0.006398     -0.016358     -0.017433
     3   Atom       -0.001026     -0.047649      0.050826
     4   Atom        0.001010      0.002290      0.026285
     5   Atom       -0.007305      0.052165     -0.026919
     6   Atom        0.007245      0.002087     -0.001324
     7   Atom        0.000698     -0.000007     -0.000496
     8   Atom        0.002036     -0.000003     -0.001098
     9   Atom        0.008526      0.001082     -0.000965
    10   Atom       -0.005667     -0.002191     -0.001991
    11   Atom       -0.001047      0.000601     -0.001656
    12   Atom       -0.001878      0.001249     -0.002609
    13   Atom       -0.008225     -0.000526     -0.003335
    14   Atom        0.007130      0.001327      0.001840
    15   Atom        0.000872     -0.000270     -0.000613
    16   Atom        0.002072     -0.000054     -0.000208
    17   Atom        0.008808      0.003760      0.000073
    18   Atom       -0.005254     -0.002326     -0.003336
    19   Atom       -0.001077     -0.000483     -0.001473
    20   Atom       -0.001748      0.000493     -0.002657
    21   Atom       -0.008455      0.000416     -0.005210
    22   Atom       -0.001296     -0.002733      0.007509
    23   Atom        0.000650     -0.000009     -0.000090
    24   Atom        0.002403     -0.002185      0.004629
    25   Atom       -0.000212     -0.000041      0.000227
    26   Atom       -0.001562      0.000661      0.004522
    27   Atom        0.000458     -0.000046      0.000366
    28   Atom        0.002391      0.000220      0.006473
    29   Atom       -0.000291      0.000040      0.000241
    30   Atom        0.000967      0.000101      0.000050
    31   Atom        0.000869      0.000059      0.000048
    32   Atom        0.000756      0.000285      0.000102
    33   Atom        0.000808     -0.000168     -0.000047
    34   Atom        0.000477      0.000071      0.000268
    35   Atom        0.000206      0.000028     -0.000064
    36   Atom        0.000232      0.000026      0.000387
    37   Atom        0.000619      0.000048      0.000105
    38   Atom       -0.000340      0.000174     -0.000056
    39   Atom        0.000141     -0.000224     -0.000086
    40   Atom       -0.000226      0.000436      0.000019
    41   Atom       -0.000672     -0.000187     -0.000012
    42   Atom       -0.001796      0.002929      0.000421
    43   Atom       -0.000810     -0.000027      0.000163
    44   Atom        0.000114     -0.006384     -0.001027
    45   Atom       -0.000345      0.000366      0.000015
    46   Atom       -0.000642     -0.000241     -0.000022
    47   Atom        0.000519      0.000100     -0.000197
    48   Atom        0.000131      0.000023      0.000207
    49   Atom        0.000353     -0.000033     -0.000223
    50   Atom        0.000615      0.000013      0.000071
    51   Atom        0.001058     -0.000168     -0.000347
    52   Atom        0.000725      0.000060      0.000022
    53   Atom        0.000724      0.000010      0.000747
    54   Atom        0.000599     -0.000142     -0.000211
    55   Atom        0.000473     -0.000096     -0.000032
    56   Atom       -0.000202     -0.000454      0.000045
    57   Atom       -0.000002      0.000336      0.000079
    58   Atom        0.000040     -0.000458     -0.000122
    59   Atom       -0.000728     -0.000159      0.000021
    60   Atom       -0.000826     -0.000239      0.000380
    61   Atom       -0.000730     -0.000043     -0.000142
    62   Atom       -0.001153     -0.000149      0.000190
    63   Atom       -0.000718     -0.000123      0.000601
    64   Atom       -0.000004      0.000495      0.000178
    65   Atom       -0.000007      0.000848      0.000075
    66   Atom       -0.000106      0.000443     -0.000344
    67   Atom        0.000048      0.000325      0.000138
    68   Atom       -0.002548     -0.001680      0.000588
    69   Atom        0.000051     -0.001047     -0.000516
    70   Atom       -0.000909      0.001258      0.002020
    71   Atom       -0.001302     -0.004327     -0.003642
    72   Atom        0.001898     -0.006333     -0.002335
    73   Atom       -0.001011     -0.004280     -0.006593
    74   Atom        0.001392      0.002820      0.003609
    75   Atom        0.000615      0.007642      0.001144
 --------------------------------------------------------


 ---------------------------------------------------------------------------------
              Anisotropic Spin Dipole Couplings in Principal Axis System
 ---------------------------------------------------------------------------------

       Atom             a.u.   MegaHertz   Gauss  10(-4) cm-1        Axes

              Baa    -3.2685   -56.587   -20.192   -18.875  0.7117  0.6949 -0.1034
     1 Fe(57) Bbb     1.2834    22.219     7.928     7.411  0.6723 -0.6309  0.3872
              Bcc     1.9851    34.368    12.263    11.464 -0.2038  0.3451  0.9162
 
              Baa    -0.0860    -3.317    -1.184    -1.107  0.1312  0.1447  0.9807
     2 N(14)  Bbb     0.0383     1.476     0.527     0.492  0.4737  0.8599 -0.1903
              Bcc     0.0477     1.841     0.657     0.614  0.8709 -0.4895 -0.0443
 
              Baa    -0.1077    -4.154    -1.482    -1.386  0.2800 -0.3310  0.9011
     3 N(14)  Bbb     0.0354     1.365     0.487     0.455  0.6104  0.7859  0.0991
              Bcc     0.0723     2.789     0.995     0.930  0.7410 -0.5223 -0.4221
 
              Baa    -0.1161    -4.477    -1.597    -1.493 -0.0122 -0.1522  0.9883
     4 N(14)  Bbb     0.0566     2.183     0.779     0.728  0.8198 -0.5674 -0.0773
              Bcc     0.0595     2.294     0.818     0.765  0.5725  0.8093  0.1317
 
              Baa    -0.1061    -4.092    -1.460    -1.365 -0.3145  0.1583  0.9360
     5 N(14)  Bbb     0.0340     1.312     0.468     0.438  0.4864  0.8736  0.0157
              Bcc     0.0721     2.780     0.992     0.927  0.8152 -0.4602  0.3517
 
              Baa    -0.0173    -2.321    -0.828    -0.774  0.8855 -0.4590 -0.0727
     6 C(13)  Bbb     0.0006     0.085     0.030     0.029  0.4610  0.8873  0.0134
              Bcc     0.0167     2.235     0.798     0.746  0.0583 -0.0454  0.9973
 
              Baa    -0.0039    -0.530    -0.189    -0.177  0.9881 -0.1537 -0.0096
     7 C(13)  Bbb     0.0006     0.079     0.028     0.026  0.1529  0.9717  0.1802
              Bcc     0.0034     0.451     0.161     0.150 -0.0184 -0.1795  0.9836
 
              Baa    -0.0044    -0.597    -0.213    -0.199 -0.5057  0.8557  0.1096
     8 C(13)  Bbb     0.0002     0.021     0.008     0.007  0.8604  0.4909  0.1369
              Bcc     0.0043     0.576     0.205     0.192 -0.0634 -0.1635  0.9845
 
              Baa    -0.0158    -2.120    -0.756    -0.707 -0.6989  0.7136  0.0479
     9 C(13)  Bbb     0.0013     0.178     0.064     0.059  0.7141  0.7000 -0.0074
              Bcc     0.0145     1.941     0.693     0.648  0.0388 -0.0290  0.9988
 
              Baa    -0.0171    -2.295    -0.819    -0.766  0.3431  0.9360  0.0790
    10 C(13)  Bbb     0.0008     0.104     0.037     0.035  0.9328 -0.3494  0.0886
              Bcc     0.0163     2.191     0.782     0.731 -0.1105 -0.0433  0.9929
 
              Baa    -0.0101    -1.353    -0.483    -0.451  0.2241  0.9728  0.0578
    11 C(13)  Bbb    -0.0055    -0.736    -0.263    -0.246  0.9741 -0.2217 -0.0455
              Bcc     0.0156     2.090     0.746     0.697  0.0315 -0.0665  0.9973
 
              Baa    -0.0115    -1.538    -0.549    -0.513  0.8932  0.4497  0.0019
    12 C(13)  Bbb    -0.0071    -0.953    -0.340    -0.318 -0.4470  0.8873  0.1134
              Bcc     0.0186     2.491     0.889     0.831  0.0493 -0.1021  0.9935
 
              Baa    -0.0167    -2.239    -0.799    -0.747  0.7092  0.7002  0.0817
    13 C(13)  Bbb    -0.0002    -0.033    -0.012    -0.011  0.7045 -0.6999 -0.1175
              Bcc     0.0169     2.272     0.811     0.758  0.0251 -0.1409  0.9897
 
              Baa    -0.0157    -2.109    -0.753    -0.704  0.8872 -0.4613 -0.0110
    14 C(13)  Bbb     0.0013     0.171     0.061     0.057  0.4526  0.8747 -0.1731
              Bcc     0.0144     1.938     0.692     0.646  0.0895  0.1486  0.9848
 
              Baa    -0.0036    -0.485    -0.173    -0.162  0.9789 -0.2031  0.0214
    15 C(13)  Bbb     0.0005     0.071     0.025     0.024  0.1902  0.9452  0.2653
              Bcc     0.0031     0.415     0.148     0.138 -0.0741 -0.2557  0.9639
 
              Baa    -0.0033    -0.444    -0.159    -0.148 -0.5695  0.8216  0.0255
    16 C(13)  Bbb     0.0011     0.146     0.052     0.049  0.8152  0.5605  0.1458
              Bcc     0.0022     0.298     0.106     0.099 -0.1055 -0.1039  0.9890
 
              Baa    -0.0172    -2.309    -0.824    -0.770  0.7069 -0.7031 -0.0776
    17 C(13)  Bbb     0.0002     0.021     0.008     0.007  0.6869  0.7085 -0.1622
              Bcc     0.0170     2.288     0.816     0.763  0.1690  0.0614  0.9837
 
              Baa    -0.0186    -2.497    -0.891    -0.833  0.2961  0.9492  0.1067
    18 C(13)  Bbb     0.0006     0.078     0.028     0.026  0.9500 -0.3043  0.0706
              Bcc     0.0180     2.418     0.863     0.807 -0.0994 -0.0805  0.9918
 
              Baa    -0.0118    -1.586    -0.566    -0.529  0.2377  0.9700  0.0504
    19 C(13)  Bbb    -0.0071    -0.947    -0.338    -0.316  0.9712 -0.2382  0.0046
              Bcc     0.0189     2.533     0.904     0.845 -0.0165 -0.0479  0.9987
 
              Baa    -0.0120    -1.617    -0.577    -0.539  0.9247  0.3803  0.0179
    20 C(13)  Bbb    -0.0072    -0.972    -0.347    -0.324 -0.3801  0.9195  0.1002
              Bcc     0.0193     2.589     0.924     0.863  0.0217 -0.0994  0.9948
 
              Baa    -0.0188    -2.522    -0.900    -0.841  0.6754  0.7319  0.0910
    21 C(13)  Bbb    -0.0022    -0.298    -0.106    -0.099  0.7348 -0.6572 -0.1677
              Bcc     0.0210     2.819     1.006     0.940  0.0629 -0.1801  0.9816
 
              Baa    -0.0625    -8.394    -2.995    -2.800  0.0298 -0.0754  0.9967
    22 C(13)  Bbb     0.0255     3.426     1.223     1.143  0.9909  0.1335 -0.0195
              Bcc     0.0370     4.967     1.772     1.657 -0.1316  0.9882  0.0787
 
              Baa    -0.0017    -0.904    -0.322    -0.301 -0.0102  0.0733  0.9973
    23 H(1)   Bbb    -0.0005    -0.282    -0.101    -0.094 -0.2431  0.9672 -0.0735
              Bcc     0.0022     1.186     0.423     0.395  0.9699  0.2432 -0.0079
 
              Baa    -0.0588    -7.884    -2.813    -2.630  0.0249 -0.0566  0.9981
    24 C(13)  Bbb     0.0238     3.191     1.139     1.065 -0.2079  0.9763  0.0605
              Bcc     0.0350     4.693     1.675     1.565  0.9778  0.2090 -0.0125
 
              Baa    -0.0016    -0.872    -0.311    -0.291  0.0219 -0.0615  0.9979
    25 H(1)   Bbb    -0.0004    -0.204    -0.073    -0.068  0.9957  0.0910 -0.0163
              Bcc     0.0020     1.075     0.384     0.359 -0.0898  0.9940  0.0632
 
              Baa    -0.0553    -7.417    -2.647    -2.474 -0.0096 -0.0514  0.9986
    26 C(13)  Bbb     0.0219     2.941     1.049     0.981  0.9909  0.1339  0.0164
              Bcc     0.0334     4.476     1.597     1.493 -0.1346  0.9897  0.0496
 
              Baa    -0.0017    -0.898    -0.320    -0.299  0.0450 -0.2298  0.9722
    27 H(1)   Bbb    -0.0001    -0.039    -0.014    -0.013 -0.2454  0.9408  0.2337
              Bcc     0.0018     0.937     0.334     0.312  0.9684  0.2491  0.0141
 
              Baa    -0.0601    -8.071    -2.880    -2.692 -0.0004 -0.0763  0.9971
    28 C(13)  Bbb     0.0244     3.276     1.169     1.093 -0.2172  0.9733  0.0744
              Bcc     0.0357     4.795     1.711     1.600  0.9761  0.2166  0.0170
 
              Baa    -0.0017    -0.904    -0.323    -0.302 -0.0446 -0.0680  0.9967
    29 H(1)   Bbb    -0.0004    -0.207    -0.074    -0.069  0.9921  0.1142  0.0522
              Bcc     0.0021     1.111     0.397     0.371 -0.1174  0.9911  0.0624
 
              Baa    -0.0008    -0.108    -0.039    -0.036 -0.5490  0.8346  0.0449
    30 C(13)  Bbb    -0.0005    -0.069    -0.024    -0.023 -0.0269 -0.0713  0.9971
              Bcc     0.0013     0.176     0.063     0.059  0.8354  0.5461  0.0616
 
              Baa    -0.0006    -0.331    -0.118    -0.110 -0.6833  0.7290  0.0413
    31 H(1)   Bbb    -0.0005    -0.270    -0.096    -0.090 -0.0058 -0.0619  0.9981
              Bcc     0.0011     0.600     0.214     0.200  0.7301  0.6818  0.0466
 
              Baa    -0.0007    -0.372    -0.133    -0.124 -0.4563  0.8255  0.3324
    32 H(1)   Bbb    -0.0006    -0.318    -0.113    -0.106  0.0094 -0.3690  0.9294
              Bcc     0.0013     0.690     0.246     0.230  0.8898  0.4271  0.1606
 
              Baa    -0.0007    -0.385    -0.137    -0.128 -0.4497  0.8455 -0.2880
    33 H(1)   Bbb    -0.0006    -0.321    -0.115    -0.107 -0.0526  0.2968  0.9535
              Bcc     0.0013     0.706     0.252     0.236  0.8916  0.4439 -0.0890
 
              Baa    -0.0008    -0.102    -0.036    -0.034  0.9677 -0.2520 -0.0034
    34 C(13)  Bbb    -0.0005    -0.064    -0.023    -0.021 -0.0380 -0.1591  0.9865
              Bcc     0.0012     0.166     0.059     0.055  0.2492  0.9546  0.1635
 
              Baa    -0.0007    -0.382    -0.136    -0.128  0.9331 -0.1059 -0.3437
    35 H(1)   Bbb    -0.0006    -0.326    -0.116    -0.109  0.3451 -0.0057  0.9386
              Bcc     0.0013     0.708     0.253     0.236  0.1013  0.9944 -0.0312
 
              Baa    -0.0007    -0.368    -0.131    -0.123  0.9616 -0.1653  0.2190
    36 H(1)   Bbb    -0.0006    -0.316    -0.113    -0.105 -0.2473 -0.1769  0.9527
              Bcc     0.0013     0.684     0.244     0.228  0.1188  0.9703  0.2110
 
              Baa    -0.0006    -0.329    -0.117    -0.110  0.9213 -0.3876 -0.0302
    37 H(1)   Bbb    -0.0005    -0.266    -0.095    -0.089 -0.0000 -0.0777  0.9970
              Bcc     0.0011     0.596     0.213     0.199  0.3888  0.9185  0.0716
 
              Baa    -0.0010    -0.133    -0.047    -0.044  0.1289  0.9885  0.0789
    38 C(13)  Bbb    -0.0006    -0.078    -0.028    -0.026 -0.0936 -0.0670  0.9934
              Bcc     0.0016     0.211     0.075     0.070  0.9872 -0.1354  0.0838
 
              Baa    -0.0008    -0.441    -0.157    -0.147  0.0371  0.6296  0.7760
    39 H(1)   Bbb    -0.0007    -0.363    -0.130    -0.121 -0.1153  0.7740 -0.6225
              Bcc     0.0015     0.805     0.287     0.268  0.9926  0.0664 -0.1013
 
              Baa    -0.0008    -0.433    -0.154    -0.144  0.1778  0.8929 -0.4136
    40 H(1)   Bbb    -0.0006    -0.343    -0.122    -0.114 -0.1450  0.4395  0.8865
              Bcc     0.0015     0.776     0.277     0.259  0.9733 -0.0976  0.2076
 
              Baa    -0.0008    -0.424    -0.151    -0.141  0.2738  0.5988  0.7527
    41 H(1)   Bbb    -0.0006    -0.345    -0.123    -0.115  0.2008  0.7297 -0.6536
              Bcc     0.0014     0.768     0.274     0.256  0.9406 -0.3301 -0.0795
 
              Baa    -0.0049    -0.655    -0.234    -0.219 -0.5475 -0.1735  0.8186
    42 C(13)  Bbb     0.0010     0.140     0.050     0.047  0.6441  0.5372  0.5446
              Bcc     0.0038     0.515     0.184     0.172 -0.5342  0.8254 -0.1823
 
              Baa    -0.0008    -0.448    -0.160    -0.149  0.8445  0.3569 -0.3992
    43 H(1)   Bbb    -0.0007    -0.399    -0.142    -0.133  0.3960  0.0855  0.9143
              Bcc     0.0016     0.847     0.302     0.282 -0.3605  0.9302  0.0691
 
              Baa    -0.0049    -0.657    -0.235    -0.219  0.6418  0.4470  0.6232
    44 C(13)  Bbb    -0.0034    -0.454    -0.162    -0.152 -0.3743  0.8918 -0.2541
              Bcc     0.0083     1.112     0.397     0.371 -0.6693 -0.0702  0.7396
 
              Baa    -0.0006    -0.345    -0.123    -0.115 -0.3623 -0.2044  0.9093
    45 H(1)   Bbb    -0.0001    -0.048    -0.017    -0.016  0.3311  0.8838  0.3306
              Bcc     0.0007     0.394     0.140     0.131  0.8712 -0.4209  0.2525
 
              Baa    -0.0008    -0.443    -0.158    -0.148  0.6799  0.2573  0.6867
    46 H(1)   Bbb    -0.0004    -0.196    -0.070    -0.065 -0.6212 -0.2956  0.7257
              Bcc     0.0012     0.639     0.228     0.213 -0.3897  0.9200  0.0411
 
              Baa    -0.0008    -0.108    -0.039    -0.036  0.8031 -0.2709 -0.5306
    47 C(13)  Bbb    -0.0005    -0.064    -0.023    -0.021  0.5335 -0.0695  0.8430
              Bcc     0.0013     0.172     0.061     0.057  0.2653  0.9601 -0.0887
 
              Baa    -0.0007    -0.366    -0.131    -0.122  0.9906 -0.0528 -0.1262
    48 H(1)   Bbb    -0.0006    -0.329    -0.117    -0.110  0.1194 -0.1163  0.9860
              Bcc     0.0013     0.695     0.248     0.232  0.0667  0.9918  0.1089
 
              Baa    -0.0007    -0.350    -0.125    -0.117  0.9683 -0.2076 -0.1387
    49 H(1)   Bbb    -0.0006    -0.310    -0.110    -0.103  0.1610  0.0945  0.9824
              Bcc     0.0012     0.660     0.235     0.220  0.1908  0.9737 -0.1249
 
              Baa    -0.0006    -0.321    -0.114    -0.107  0.9032 -0.3941  0.1700
    50 H(1)   Bbb    -0.0005    -0.269    -0.096    -0.090 -0.1733  0.0276  0.9845
              Bcc     0.0011     0.590     0.211     0.197  0.3926  0.9187  0.0434
 
              Baa    -0.0010    -0.135    -0.048    -0.045 -0.2358  0.5429  0.8060
    51 C(13)  Bbb    -0.0006    -0.080    -0.029    -0.027 -0.5239  0.6276 -0.5759
              Bcc     0.0016     0.215     0.077     0.072  0.8185  0.5581 -0.1364
 
              Baa    -0.0007    -0.357    -0.127    -0.119 -0.4082  0.9098  0.0749
    52 H(1)   Bbb    -0.0006    -0.327    -0.117    -0.109 -0.0003 -0.0822  0.9966
              Bcc     0.0013     0.685     0.244     0.228  0.9129  0.4068  0.0338
 
              Baa    -0.0010    -0.131    -0.047    -0.044 -0.5669  0.5897 -0.5752
    53 C(13)  Bbb    -0.0002    -0.032    -0.011    -0.011  0.7152  0.0060 -0.6988
              Bcc     0.0012     0.162     0.058     0.054  0.4086  0.8076  0.4252
 
              Baa    -0.0005    -0.251    -0.089    -0.084 -0.1215  0.3287  0.9366
    54 H(1)   Bbb    -0.0004    -0.216    -0.077    -0.072  0.7883 -0.5415  0.2923
              Bcc     0.0009     0.466     0.166     0.156  0.6032  0.7738 -0.1934
 
              Baa    -0.0004    -0.195    -0.070    -0.065  0.4613 -0.5248  0.7154
    55 H(1)   Bbb    -0.0003    -0.163    -0.058    -0.054 -0.3640  0.6234  0.6920
              Bcc     0.0007     0.358     0.128     0.119  0.8092  0.5796 -0.0965
 
              Baa    -0.0011    -0.148    -0.053    -0.049  0.0670  0.9973 -0.0297
    56 C(13)  Bbb    -0.0007    -0.095    -0.034    -0.032  0.1863  0.0168  0.9823
              Bcc     0.0018     0.243     0.087     0.081  0.9802 -0.0713 -0.1847
 
              Baa    -0.0009    -0.478    -0.171    -0.160  0.0699  0.8586 -0.5079
    57 H(1)   Bbb    -0.0007    -0.383    -0.137    -0.128 -0.1246  0.5127  0.8495
              Bcc     0.0016     0.861     0.307     0.287  0.9897  0.0039  0.1428
 
              Baa    -0.0009    -0.475    -0.170    -0.159  0.1197  0.7241  0.6792
    58 H(1)   Bbb    -0.0007    -0.357    -0.127    -0.119  0.1646 -0.6891  0.7057
              Bcc     0.0016     0.832     0.297     0.277  0.9791  0.0274 -0.2017
 
              Baa    -0.0008    -0.449    -0.160    -0.150  0.3294  0.9102  0.2510
    59 H(1)   Bbb    -0.0007    -0.379    -0.135    -0.127 -0.0178 -0.2598  0.9655
              Bcc     0.0016     0.828     0.296     0.276  0.9440 -0.3225 -0.0694
 
              Baa    -0.0009    -0.124    -0.044    -0.041  0.9076  0.4077  0.1000
    60 C(13)  Bbb    -0.0004    -0.056    -0.020    -0.019  0.0203 -0.2807  0.9596
              Bcc     0.0013     0.180     0.064     0.060 -0.4193  0.8689  0.2631
 
              Baa    -0.0009    -0.467    -0.166    -0.156  0.7326  0.2844  0.6184
    61 H(1)   Bbb    -0.0007    -0.371    -0.132    -0.124 -0.5989 -0.1624  0.7842
              Bcc     0.0016     0.838     0.299     0.279 -0.3235  0.9448 -0.0514
 
              Baa    -0.0008    -0.453    -0.162    -0.151  0.7779  0.6281 -0.0187
    62 H(1)   Bbb    -0.0007    -0.368    -0.131    -0.123  0.0830 -0.0731  0.9939
              Bcc     0.0015     0.820     0.293     0.274 -0.6229  0.7747  0.1090
 
              Baa    -0.0009    -0.464    -0.165    -0.155  0.6948  0.4300 -0.5766
    63 H(1)   Bbb    -0.0007    -0.359    -0.128    -0.120  0.6392 -0.0017  0.7690
              Bcc     0.0015     0.823     0.294     0.274 -0.3297  0.9028  0.2760
 
              Baa    -0.0006    -0.081    -0.029    -0.027  0.7811  0.5351 -0.3217
    64 C(13)  Bbb    -0.0005    -0.063    -0.023    -0.021 -0.5386  0.8381  0.0863
              Bcc     0.0011     0.145     0.052     0.048  0.3158  0.1058  0.9429
 
              Baa    -0.0008    -0.427    -0.152    -0.142  0.7918  0.4889 -0.3660
    65 H(1)   Bbb    -0.0007    -0.381    -0.136    -0.127 -0.4577  0.8718  0.1745
              Bcc     0.0015     0.807     0.288     0.269  0.4044  0.0293  0.9141
 
              Baa    -0.0007    -0.381    -0.136    -0.127  0.1536  0.9771  0.1470
    66 H(1)   Bbb    -0.0006    -0.309    -0.110    -0.103  0.9559 -0.1093 -0.2728
              Bcc     0.0013     0.690     0.246     0.230  0.2505 -0.1824  0.9508
 
              Baa    -0.0007    -0.349    -0.125    -0.117 -0.3226  0.9464 -0.0143
    67 H(1)   Bbb    -0.0006    -0.309    -0.110    -0.103  0.9286  0.3136 -0.1983
              Bcc     0.0012     0.659     0.235     0.220  0.1832  0.0772  0.9800
 
              Baa    -0.0051    -0.195    -0.070    -0.065  0.8621  0.1754  0.4754
    68 N(14)  Bbb    -0.0015    -0.060    -0.021    -0.020 -0.4365 -0.2194  0.8725
              Bcc     0.0066     0.255     0.091     0.085 -0.2574  0.9597  0.1125
 
              Baa    -0.0014    -0.761    -0.272    -0.254  0.9029  0.2988  0.3090
    69 H(1)   Bbb    -0.0011    -0.581    -0.207    -0.194 -0.3276  0.9437  0.0447
              Bcc     0.0025     1.342     0.479     0.448 -0.2783 -0.1416  0.9500
 
              Baa    -0.0032    -0.434    -0.155    -0.145  0.4260  0.8051 -0.4127
    70 C(13)  Bbb     0.0001     0.018     0.006     0.006  0.8702 -0.4894 -0.0567
              Bcc     0.0031     0.415     0.148     0.139  0.2476  0.3350  0.9091
 
              Baa    -0.0120    -1.612    -0.575    -0.538  0.9452  0.1193  0.3038
    71 C(13)  Bbb     0.0024     0.322     0.115     0.107 -0.3222  0.4888  0.8107
              Bcc     0.0096     1.290     0.460     0.430  0.0518  0.8642 -0.5004
 
              Baa    -0.0046    -2.471    -0.882    -0.824  0.5569  0.5006  0.6628
    72 H(1)   Bbb    -0.0043    -2.282    -0.814    -0.761 -0.5160  0.8338 -0.1962
              Bcc     0.0089     4.753     1.696     1.586 -0.6509 -0.2327  0.7226
 
              Baa    -0.0386    -1.489    -0.531    -0.497  0.0691  0.1279  0.9894
    73 N(14)  Bbb     0.0138     0.531     0.189     0.177  0.0410  0.9905 -0.1309
              Bcc     0.0248     0.958     0.342     0.320  0.9968 -0.0496 -0.0632
 
              Baa    -0.0062    -0.828    -0.295    -0.276  0.9682 -0.2040 -0.1450
    74 C(13)  Bbb    -0.0033    -0.437    -0.156    -0.146  0.1435  0.9271 -0.3462
              Bcc     0.0094     1.265     0.451     0.422  0.2051  0.3143  0.9269
 
              Baa    -0.0056    -2.972    -1.061    -0.991  0.7336  0.2768 -0.6207
    75 H(1)   Bbb    -0.0047    -2.495    -0.890    -0.832 -0.2679  0.9571  0.1102
              Bcc     0.0102     5.467     1.951     1.824  0.6246  0.0855  0.7763
 

 ---------------------------------------------------------------------------------

 Unable to Open any file for archive entry.
 1\1\GINC-BGN1007\SP\UAPFD\Gen\C34H34Fe1N6(1+,2)\BECSLEIP\16-Sep-2024\0
 \\# apfd/gen scf=maxcycle=999 geom=check\\5cnf_III_D\\1,2\Fe,0,12.0810
 681805,-28.9548749564,13.686155138\N,0,10.9913552321,-30.2417424315,14
 .7552712585\N,0,11.9271228931,-27.6187409209,15.1856794814\N,0,12.9022
 859509,-27.5267300824,12.541294033\N,0,11.9518220182,-30.1539213438,12
 .1052056848\C,0,10.6230834496,-31.4987315934,14.3802716465\C,0,10.0169
 181062,-32.209922317,15.4829274027\C,0,10.014953988,-31.350651793,16.5
 368230123\C,0,10.6223593385,-30.127685489,16.0629639685\C,0,11.3919457
 868,-27.8298620331,16.4231132336\C,0,11.5075478054,-26.6552454251,17.2
 472682377\C,0,12.1361979906,-25.7101842508,16.4816681458\C,0,12.385648
 1846,-26.3365260499,15.1988221837\C,0,13.1805622663,-26.2365437223,12.
 8847489497\C,0,13.6830007857,-25.493958502,11.7586615281\C,0,13.702567
 4852,-26.3657000712,10.7032748686\C,0,13.1982904321,-27.6240211377,11.
 2156938373\C,0,12.4512242422,-29.9287895384,10.8580916174\C,0,12.21884
 03147,-31.0656845242,9.9958663279\C,0,11.5774360563,-31.993883558,10.7
 546016202\C,0,11.4185833764,-31.4070680132,12.0663296181\C,0,10.801102
 7061,-32.0447318612,13.1234353974\H,0,10.4367158197,-33.0470351287,12.
 9586574363\C,0,10.7964073873,-29.0052968612,16.8455951368\H,0,10.42440
 38806,-29.0419447652,17.8580932781\C,0,12.9925373758,-25.6915245596,14
 .1409959347\H,0,13.2739273625,-24.6593918806,14.2820710381\C,0,13.0585
 756126,-28.7608306392,10.441891313\H,0,13.3756099909,-28.7069447845,9.
 4116806602\C,0,9.5010692079,-31.5525044588,17.9211648813\H,0,9.0974358
 982,-32.5547565713,18.0410205943\H,0,8.7098400088,-30.8360921518,18.14
 28245104\H,0,10.2973787253,-31.4134437664,18.6530827541\C,0,9.50471446
 95,-33.6068206517,15.4023517038\H,0,10.3033419756,-34.2929088555,15.11
 94926036\H,0,8.7148539724,-33.6809959648,14.654736591\H,0,9.1001957059
 ,-33.9266290042,16.3594481865\C,0,11.0769506033,-26.5581844198,18.6693
 515158\H,0,11.2784325364,-27.4877594152,19.2001648942\H,0,10.006892008
 ,-26.3561452681,18.737893625\H,0,11.6113648011,-25.7507264209,19.16576
 03271\C,0,12.5181696667,-24.3582544847,16.8277949891\H,0,13.4365890752
 ,-24.0017010275,16.3756742748\C,0,11.8401833124,-23.547681647,17.63344
 17613\H,0,10.8990347084,-23.8306749235,18.0715047234\H,0,12.1932879855
 ,-22.5554400522,17.8608264004\C,0,14.1378878132,-24.0773263807,11.7992
 371105\H,0,14.6718368036,-23.8692674265,12.7252922077\H,0,13.288365079
 1,-23.3951993823,11.7393106402\H,0,14.8013974439,-23.8747840533,10.960
 9999352\C,0,14.1228392662,-26.1388924085,9.3371249114\H,0,14.601342450
 1,-26.97940699,8.8471432875\C,0,13.9602891098,-25.006570662,8.66134254
 15\H,0,13.4486784145,-24.1582361508,9.0813239493\H,0,14.3102377024,-24
 .8996007611,7.6479667782\C,0,12.6304937991,-31.1326039537,8.5654277744
 \H,0,13.7105840705,-31.0172267471,8.4705495385\H,0,12.1538353822,-30.3
 365544768,7.9931706308\H,0,12.3479734933,-32.0859653602,8.1260153505\C
 ,0,11.089057331,-33.3499272249,10.3766053453\H,0,11.5514044895,-34.112
 3012149,11.0040931818\H,0,11.325486046,-33.5707731655,9.3386645101\H,0
 ,10.0084031382,-33.4166541165,10.503945537\C,0,17.3256907026,-30.84266
 10689,13.9963511944\H,0,17.5436526004,-30.6056120569,12.9600842106\H,0
 ,17.450097296,-31.9157614604,14.1412723797\H,0,18.0440204385,-30.32748
 97348,14.6329606154\N,0,15.4266595772,-30.4951642483,15.5894499368\H,0
 ,15.9184892558,-30.8221551451,16.4046409558\C,0,15.9390707322,-30.4241
 662139,14.3215890083\C,0,14.1517730591,-30.0466418504,15.5434927126\H,
 0,13.5042698688,-29.9889455072,16.3946500478\N,0,13.8228580941,-29.696
 0123281,14.321300189\C,0,14.9280485383,-29.9267645504,13.5502401231\H,
 0,14.9194293247,-29.7174480437,12.5000690721\\Version=ES64L-G16RevC.02
 \State=2-A\HF=-2906.8295143\S2=0.922926\S2-1=0.\S2A=0.756918\RMSD=3.30
 3e-09\Dipole=1.8713407,-1.3280159,1.063113\Quadrupole=-14.0053849,4.73
 25402,9.2728446,2.5893752,-5.115397,0.8366775\PG=C01 [X(C34H34Fe1N6)]\
 \@
 The archive entry for this job was punched.


 BE NOT THE FIRST BY WHOM THE NEW ARE TRIED,
 NOR YET THE THE LAST TO LAY THE OLD ASIDE.

                          -- ALEXANDER POPE
 Job cpu time:       0 days  4 hours 29 minutes 18.7 seconds.
 Elapsed time:       0 days  0 hours  4 minutes 42.9 seconds.
 File lengths (MBytes):  RWF=    408 Int=      0 D2E=      0 Chk=    150 Scr=      1
 Normal termination of Gaussian 16 at Mon Sep 16 23:50:05 2024.
