 Entering Gaussian System, Link 0=g16
 Input=5cp412.com
 Output=5cp412.log
 Initial command:
 /sw/chem/gaussian/g16_C02/a100/g16/l1.exe "/local/becsleip_8020782/Gau-3131210.inp" -scrdir="/local/becsleip_8020782/"
 Entering Link 1 = /sw/chem/gaussian/g16_C02/a100/g16/l1.exe PID=   3131211.
  
 Copyright (c) 1988-2021, Gaussian, Inc.  All Rights Reserved.
  
 This is part of the Gaussian(R) 16 program.  It is based on
 the Gaussian(R) 09 system (copyright 2009, Gaussian, Inc.),
 the Gaussian(R) 03 system (copyright 2003, Gaussian, Inc.),
 the Gaussian(R) 98 system (copyright 1998, Gaussian, Inc.),
 the Gaussian(R) 94 system (copyright 1995, Gaussian, Inc.),
 the Gaussian 92(TM) system (copyright 1992, Gaussian, Inc.),
 the Gaussian 90(TM) system (copyright 1990, Gaussian, Inc.),
 the Gaussian 88(TM) system (copyright 1988, Gaussian, Inc.),
 the Gaussian 86(TM) system (copyright 1986, Carnegie Mellon
 University), and the Gaussian 82(TM) system (copyright 1983,
 Carnegie Mellon University). Gaussian is a federally registered
 trademark of Gaussian, Inc.
  
 This software contains proprietary and confidential information,
 including trade secrets, belonging to Gaussian, Inc.
  
 This software is provided under written license and may be
 used, copied, transmitted, or stored only in accord with that
 written license.
  
 The following legend is applicable only to US Government
 contracts under FAR:
  
                    RESTRICTED RIGHTS LEGEND
  
 Use, reproduction and disclosure by the US Government is
 subject to restrictions as set forth in subparagraphs (a)
 and (c) of the Commercial Computer Software - Restricted
 Rights clause in FAR 52.227-19.
  
 Gaussian, Inc.
 340 Quinnipiac St., Bldg. 40, Wallingford CT 06492
  
  
 ---------------------------------------------------------------
 Warning -- This program may not be used in any manner that
 competes with the business of Gaussian, Inc. or will provide
 assistance to any competitor of Gaussian, Inc.  The licensee
 of this program is prohibited from giving any competitor of
 Gaussian, Inc. access to this program.  By using this program,
 the user acknowledges that Gaussian, Inc. is engaged in the
 business of creating and licensing software in the field of
 computational chemistry and represents and warrants to the
 licensee that it is not a competitor of Gaussian, Inc. and that
 it will not use this program in any manner prohibited above.
 ---------------------------------------------------------------
  

 Cite this work as:
 Gaussian 16, Revision C.02,
 M. J. Frisch, G. W. Trucks, H. B. Schlegel, G. E. Scuseria, 
 M. A. Robb, J. R. Cheeseman, G. Scalmani, V. Barone, 
 G. A. Petersson, H. Nakatsuji, X. Li, M. Caricato, A. V. Marenich, 
 J. Bloino, B. G. Janesko, R. Gomperts, B. Mennucci, H. P. Hratchian, 
 J. V. Ortiz, A. F. Izmaylov, J. L. Sonnenberg, D. Williams-Young, 
 F. Ding, F. Lipparini, F. Egidi, J. Goings, B. Peng, A. Petrone, 
 T. Henderson, D. Ranasinghe, V. G. Zakrzewski, J. Gao, N. Rega, 
 G. Zheng, W. Liang, M. Hada, M. Ehara, K. Toyota, R. Fukuda, 
 J. Hasegawa, M. Ishida, T. Nakajima, Y. Honda, O. Kitao, H. Nakai, 
 T. Vreven, K. Throssell, J. A. Montgomery, Jr., J. E. Peralta, 
 F. Ogliaro, M. J. Bearpark, J. J. Heyd, E. N. Brothers, K. N. Kudin, 
 V. N. Staroverov, T. A. Keith, R. Kobayashi, J. Normand, 
 K. Raghavachari, A. P. Rendell, J. C. Burant, S. S. Iyengar, 
 J. Tomasi, M. Cossi, J. M. Millam, M. Klene, C. Adamo, R. Cammi, 
 J. W. Ochterski, R. L. Martin, K. Morokuma, O. Farkas, 
 J. B. Foresman, and D. J. Fox, Gaussian, Inc., Wallingford CT, 2019.
 
 ******************************************
 Gaussian 16:  ES64L-G16RevC.02  7-Dec-2021
                17-Sep-2024 
 ******************************************
 %mem=16GB
 %CPU=0-71
 SetSPE:  set environment variable "OMP_PROC_BIND" = "true"
 SetSPE:  set environment variable "OMP_PLACES" = "{0},{1},{2},{3},{4},{5},{6},{7},{8},{9},{10},{11},{12},{13},{14},{15},{16},{17},{18},{19},{20},{21},{22},{23},{24},{25},{26},{27},{28},{29},{30},{31},{32},{33},{34},{35},{36},{37},{38},{39},{40},{41},{42},{43},{44},{45},{46},{47},{48},{49},{50},{51},{52},{53},{54},{55},{56},{57},{58},{59},{60},{61},{62},{63},{64},{65},{66},{67},{68},{69},{70},{71}"
 Will use up to   72 processors via shared memory.
 %gpucpu=0,1,2,3=0,1,2,3
 Will use    4 GPUs:
 Thread  CPU   GPU
      0    0     0
      1    1     1
      2    2     2
      3    3     3
      4    4    -1
      5    5    -1
      6    6    -1
      7    7    -1
      8    8    -1
      9    9    -1
     10   10    -1
     11   11    -1
     12   12    -1
     13   13    -1
     14   14    -1
     15   15    -1
     16   16    -1
     17   17    -1
     18   18    -1
     19   19    -1
     20   20    -1
     21   21    -1
     22   22    -1
     23   23    -1
     24   24    -1
     25   25    -1
     26   26    -1
     27   27    -1
     28   28    -1
     29   29    -1
     30   30    -1
     31   31    -1
     32   32    -1
     33   33    -1
     34   34    -1
     35   35    -1
     36   36    -1
     37   37    -1
     38   38    -1
     39   39    -1
     40   40    -1
     41   41    -1
     42   42    -1
     43   43    -1
     44   44    -1
     45   45    -1
     46   46    -1
     47   47    -1
     48   48    -1
     49   49    -1
     50   50    -1
     51   51    -1
     52   52    -1
     53   53    -1
     54   54    -1
     55   55    -1
     56   56    -1
     57   57    -1
     58   58    -1
     59   59    -1
     60   60    -1
     61   61    -1
     62   62    -1
     63   63    -1
     64   64    -1
     65   65    -1
     66   66    -1
     67   67    -1
     68   68    -1
     69   69    -1
     70   70    -1
     71   71    -1
 SetGPE:  set environment variable "OMP_PROC_BIND" = "true"
 SetGPE:  set environment variable "OMP_PLACES" = "{0},{1},{2},{3},{4},{5},{6},{7},{8},{9},{10},{11},{12},{13},{14},{15},{16},{17},{18},{19},{20},{21},{22},{23},{24},{25},{26},{27},{28},{29},{30},{31},{32},{33},{34},{35},{36},{37},{38},{39},{40},{41},{42},{43},{44},{45},{46},{47},{48},{49},{50},{51},{52},{53},{54},{55},{56},{57},{58},{59},{60},{61},{62},{63},{64},{65},{66},{67},{68},{69},{70},{71}"
 %oldchk=5cp4_II_Sre.chk
 %chk=5cp4_III_Dn.chk
 Properties for Device   0
 Minimum vector length:                              32
 Maximum vector length:                            1024
 Number of SMPs:                                    108
 Maximum number of threads per SMP:                2048
 Number of ASync Engines:                             5
 Memory:                                           9207742464
 Properties for Device   1
 Minimum vector length:                              32
 Maximum vector length:                            1024
 Number of SMPs:                                    108
 Maximum number of threads per SMP:                2048
 Number of ASync Engines:                             5
 Memory:                                           9207742464
 Properties for Device   2
 Minimum vector length:                              32
 Maximum vector length:                            1024
 Number of SMPs:                                    108
 Maximum number of threads per SMP:                2048
 Number of ASync Engines:                             5
 Memory:                                           9207742464
 Properties for Device   3
 Minimum vector length:                              32
 Maximum vector length:                            1024
 Number of SMPs:                                    108
 Maximum number of threads per SMP:                2048
 Number of ASync Engines:                             5
 Memory:                                           9207742464
   8286968217 words of memory will be used on each GPU.
 Copying data from "5cp4_II_Sre.chk" to current chk file "5cp4_III_Dn.chk"
 IOpt=  2 FromEx=T IUOpen= 4 IOptOp= 5 NList=   0 IFRang= 0 IUIn= 4 IUOut= 2.
 --------------------------------------------------------------
 # apfd/def2TZVP guess=read scf=maxcycle=999 geom=check pop=nbo
 --------------------------------------------------------------
 1/29=2,38=1,172=1/1;
 2/12=2,40=1/2;
 3/5=44,7=101,11=2,14=-4,25=1,30=1,74=-44,116=-2/1,2,3;
 4/5=1/1;
 5/5=2,7=999,38=6/2;
 6/7=2,8=2,9=2,10=2,28=1,40=1/1,7;
 99/5=1,9=1/99;
 ----------
 5cp4_III_D
 ----------
 Structure from the checkpoint file:  "5cp4_III_Dn.chk"
 Charge =  1 Multiplicity = 2
 Z-Matrix found in chk file.
 Fe,0,5.9114055828,5.8767947035,9.0636469867
 N,0,6.6989216326,7.7334686247,9.1194405262
 N,0,4.1154074637,6.6853831627,9.2926540882
 N,0,5.192686282,4.0842180566,9.5536601988
 N,0,7.7558522068,5.120054323,9.0818718265
 C,0,8.0159106376,8.0679177225,9.0417732451
 C,0,8.1889169838,9.5023996,9.0611835694
 C,0,6.9427429197,10.035726099,9.168116992
 C,0,6.0273475646,8.9187325208,9.2100806637
 C,0,3.7621302022,8.0020704484,9.3418108144
 C,0,2.3330211236,8.1592522611,9.3347428458
 C,0,1.8077209951,6.8950306687,9.285731562
 C,0,2.9392753923,5.9908810773,9.302617798
 C,0,3.8768032697,3.7302990644,9.4853613374
 C,0,3.7222829511,2.3037649352,9.5615028405
 C,0,4.971972983,1.7956716769,9.7964435004
 C,0,5.8776080862,2.9270129296,9.7600689584
 C,0,8.1091490295,3.821402289,9.2936279169
 C,0,9.5420575835,3.6518864698,9.1836417139
 C,0,10.0575567089,4.8943563187,8.9964846665
 C,0,8.9289808182,5.7994909642,8.9508409415
 C,0,9.0615337512,7.1724645735,8.9328311969
 H,0,10.0594014965,7.5768369453,8.866419511
 C,0,4.6578624509,9.0563458882,9.3044110708
 H,0,4.2579796337,10.0571431297,9.3513746911
 C,0,2.8219300903,4.6167506435,9.3701238631
 H,0,1.8283293249,4.1978013745,9.335037899
 C,0,7.2470434622,2.796356581,9.6266261952
 H,0,7.6675663045,1.8117453128,9.7539007526
 C,0,6.5275386315,11.4643797447,9.2400917263
 H,0,7.3927825394,12.1205043239,9.1918614568
 H,0,5.9990788652,11.6621190867,10.1727664726
 H,0,5.8612550013,11.7135219235,8.4137209858
 C,0,9.5080955825,10.1896800366,8.9864576707
 H,0,10.027401338,9.9249369924,8.0651956975
 H,0,10.1387040893,9.8979949403,9.8263563317
 H,0,9.3829059132,11.2692143889,9.0111795602
 C,0,1.617321263,9.4600918921,9.4338295585
 H,0,1.5602107774,9.9503589077,8.4603976222
 H,0,2.1334540161,10.1303309002,10.1194314531
 H,0,0.6045610262,9.3009875587,9.7980417445
 C,0,0.420265855,6.4856121509,9.2773540196
 H,0,0.1992062822,5.5626948916,9.7998331615
 C,0,-0.5696392132,7.1435880672,8.6834808395
 H,0,-0.401546284,8.0399879413,8.1122930187
 H,0,-1.5860399693,6.7898182095,8.7278018012
 C,0,2.4239038903,1.5791476077,9.4895448849
 H,0,1.86646125,1.8766597979,8.6014890033
 H,0,1.8116304576,1.8022083267,10.3642603664
 H,0,2.5870094763,0.5050981072,9.4563471452
 C,0,5.321068025,0.4102390195,10.0268145828
 H,0,4.7399398512,-0.3137022885,9.466595468
 C,0,6.240982473,-0.019200526,10.883358693
 H,0,6.8055294456,0.6581608888,11.5015947048
 H,0,6.4421675585,-1.0691069966,11.015311035
 C,0,10.244608556,2.3462325956,9.3210112907
 H,0,9.8278191023,1.6150116118,8.629178526
 H,0,10.1346239468,1.9557232256,10.333084967
 H,0,11.3055902838,2.4551671843,9.1106305344
 C,0,11.4784760979,5.3174745181,8.8533591698
 H,0,11.6210933206,5.8779789156,7.9296767422
 H,0,12.1374819266,4.4532244363,8.8372970587
 H,0,11.7731069899,5.9557757536,9.686819506
 C,0,5.5753454049,7.3253063804,6.0786595842
 H,0,6.5917512254,7.7050539937,6.085309771
 H,0,4.9439942162,7.9537644004,6.6981770662
 H,0,5.2021641172,7.2674097287,5.0610147356
 S,0,5.6502268486,5.6396311582,6.7896619473
 H,0,4.3300728911,5.4196618399,6.6946819254
 Recover connectivity data from disk.
 Stoichiometry    C31H32FeN4S(1+,2)
 Framework group  C1[X(C31H32FeN4S)]
 Deg. of freedom   201
 Full point group                 C1      NOp   1
 Largest Abelian subgroup         C1      NOp   1
 Largest concise Abelian subgroup C1      NOp   1
                         Standard orientation:                         
 ---------------------------------------------------------------------
 Center     Atomic      Atomic             Coordinates (Angstroms)
 Number     Number       Type             X           Y           Z
 ---------------------------------------------------------------------
      1         26           0       -0.068473    0.121092   -0.015771
      2          7           0        0.684310    1.973583   -0.284335
      3          7           0        1.756018   -0.606040   -0.288496
      4          7           0       -0.856696   -1.686940   -0.298129
      5          7           0       -1.905094    0.896579    0.004616
      6          6           0       -0.003797    3.147763   -0.271741
      7          6           0        0.886343    4.272639   -0.445956
      8          6           0        2.135769    3.753386   -0.580606
      9          6           0        1.989929    2.319220   -0.484266
     10          6           0        2.932409    0.060835   -0.468130
     11          6           0        4.051886   -0.841041   -0.445748
     12          6           0        3.532255   -2.093682   -0.252168
     13          6           0        2.094424   -1.926340   -0.199011
     14          6           0       -0.174513   -2.860820   -0.163579
     15          6           0       -1.077714   -3.975640   -0.085611
     16          6           0       -2.331960   -3.467018   -0.293584
     17          6           0       -2.169429   -2.030228   -0.396773
     18          6           0       -3.084148    0.218847   -0.077046
     19          6           0       -4.208113    1.125323    0.018160
     20          6           0       -3.683005    2.377061    0.061885
     21          6           0       -2.244883    2.215108    0.037148
     22          6           0       -1.367452    3.271640   -0.092484
     23          1           0       -1.781736    4.267649   -0.091318
     24          6           0        3.047546    1.436760   -0.561964
     25          1           0        4.033796    1.849708   -0.705113
     26          6           0        1.202529   -2.977364   -0.118805
     27          1           0        1.609493   -3.971414   -0.017623
     28          6           0       -3.219790   -1.139412   -0.280922
     29          1           0       -4.219441   -1.542097   -0.313164
     30          6           0        3.433588    4.452700   -0.793333
     31          1           0        3.289615    5.529318   -0.833792
     32          1           0        3.891012    4.132705   -1.729612
     33          1           0        4.128286    4.229431    0.016877
     34          6           0        0.445757    5.695066   -0.473489
     35          1           0       -0.053215    5.960649    0.458704
     36          1           0       -0.254628    5.862063   -1.291871
     37          1           0        1.295183    6.359749   -0.608949
     38          6           0        5.469774   -0.446533   -0.665262
     39          1           0        5.913793   -0.056186    0.252163
     40          1           0        5.538736    0.326538   -1.428981
     41          1           0        6.050255   -1.308238   -0.987992
     42          6           0        4.222182   -3.362514   -0.169750
     43          1           0        3.695344   -4.212168   -0.587072
     44          6           0        5.420235   -3.549847    0.373487
     45          1           0        5.968574   -2.751895    0.843210
     46          1           0        5.884640   -4.521579    0.389369
     47          6           0       -0.669522   -5.396255    0.091221
     48          1           0       -0.013789   -5.502999    0.955234
     49          1           0       -0.131675   -5.752690   -0.788231
     50          1           0       -1.541318   -6.029472    0.233684
     51          6           0       -3.570449   -4.210144   -0.384521
     52          1           0       -3.638898   -5.078144    0.261650
     53          6           0       -4.573188   -3.936091   -1.211406
     54          1           0       -4.529370   -3.117666   -1.909982
     55          1           0       -5.464529   -4.540301   -1.236525
     56          6           0       -5.634073    0.696837    0.003392
     57          1           0       -5.815818   -0.047973    0.777509
     58          1           0       -5.892043    0.254446   -0.959224
     59          1           0       -6.293081    1.543738    0.177391
     60          6           0       -4.377924    3.692833    0.127900
     61          1           0       -4.028101    4.269370    0.984009
     62          1           0       -5.452313    3.556266    0.220163
     63          1           0       -4.184005    4.273301   -0.774510
     64          6           0        1.367849    1.165649    2.806843
     65          1           0        0.918785    2.150978    2.737551
     66          1           0        2.220577    1.102430    2.138843
     67          1           0        1.650196    0.952359    3.833004
     68         16           0        0.082338   -0.025189    2.275806
     69          1           0        0.863729   -1.105936    2.422871
 ---------------------------------------------------------------------
 Rotational constants (GHZ):           0.1148511           0.1075164           0.0605863
 Standard basis: def2TZVP (5D, 7F)
 There are  1546 symmetry adapted cartesian basis functions of A   symmetry.
 There are  1359 symmetry adapted basis functions of A   symmetry.
  1359 basis functions,  2212 primitive gaussians,  1546 cartesian basis functions
   144 alpha electrons      143 beta electrons
       nuclear repulsion energy      5047.4309750966 Hartrees.
 NAtoms=   69 NActive=   69 NUniq=   69 SFac= 1.00D+00 NAtFMM=   60 NAOKFM=T Big=T
 Integral buffers will be    131072 words long.
 Raffenetti 2 integral format.
 Two-electron integral symmetry is turned on.
 R6APFD:  NTU= -4 IXU= 1 FactS= 1.050
 Nuclear repulsion after empirical dispersion term =     5047.2994862037 Hartrees.
 One-electron integrals computed using PRISM.
   1 Symmetry operations used in ECPInt.
 ECPInt:  NShTT=  146611 NPrTT=  457451 LenC2=  116062 LenP2D=  241802.
 LDataN:  DoStor=T MaxTD1= 6 Len=  172
 Number of processors reduced to  26 by ecpmxn.
 NBasis=  1359 RedAO= T EigKep=  3.82D-06  NBF=  1359
 NBsUse=  1359 1.00D-06 EigRej= -1.00D+00 NBFU=  1359
 Initial guess from the checkpoint file:  "5cp4_III_Dn.chk"
 B after Tr=     0.000000    0.000000   -0.000000
         Rot=    1.000000    0.000000   -0.000000   -0.000000 Ang=   0.00 deg.
 Initial guess <Sx>= 0.0000 <Sy>= 0.0000 <Sz>= 0.5000 <S**2>= 1.2875 S= 0.7399
 Requested convergence on RMS density matrix=1.00D-08 within 999 cycles.
 Requested convergence on MAX density matrix=1.00D-06.
 Requested convergence on             energy=1.00D-06.
 No special actions if energy rises.
 Restarting incremental Fock formation.
 Restarting incremental Fock formation.
 Restarting incremental Fock formation.
 SCF Done:  E(UAPFD) =  -3080.56002744     A.U. after   69 cycles
            NFock= 69  Conv=0.49D-08     -V/T= 2.0031
 <Sx>= 0.0000 <Sy>= 0.0000 <Sz>= 0.5000 <S**2>= 1.1992 S= 0.7038
 <L.S>=  0.00000000000    
 Annihilation of the first spin contaminant:
 S**2 before annihilation     1.1992,   after     0.7868

 **********************************************************************

            Population analysis using the SCF Density.

 **********************************************************************

 Orbital symmetries:
 Alpha Orbitals:
       Occupied  (A) (A) (A) (A) (A) (A) (A) (A) (A) (A) (A) (A)
                 (A) (A) (A) (A) (A) (A) (A) (A) (A) (A) (A) (A)
                 (A) (A) (A) (A) (A) (A) (A) (A) (A) (A) (A) (A)
                 (A) (A) (A) (A) (A) (A) (A) (A) (A) (A) (A) (A)
                 (A) (A) (A) (A) (A) (A) (A) (A) (A) (A) (A) (A)
                 (A) (A) (A) (A) (A) (A) (A) (A) (A) (A) (A) (A)
                 (A) (A) (A) (A) (A) (A) (A) (A) (A) (A) (A) (A)
                 (A) (A) (A) (A) (A) (A) (A) (A) (A) (A) (A) (A)
                 (A) (A) (A) (A) (A) (A) (A) (A) (A) (A) (A) (A)
                 (A) (A) (A) (A) (A) (A) (A) (A) (A) (A) (A) (A)
                 (A) (A) (A) (A) (A) (A) (A) (A) (A) (A) (A) (A)
                 (A) (A) (A) (A) (A) (A) (A) (A) (A) (A) (A) (A)
       Virtual   (A) (A) (A) (A) (A) (A) (A) (A) (A) (A) (A) (A)
                 (A) (A) (A) (A) (A) (A) (A) (A) (A) (A) (A) (A)
                 (A) (A) (A) (A) (A) (A) (A) (A) (A) (A) (A) (A)
                 (A) (A) (A) (A) (A) (A) (A) (A) (A) (A) (A) (A)
                 (A) (A) (A) (A) (A) (A) (A) (A) (A) (A) (A) (A)
                 (A) (A) (A) (A) (A) (A) (A) (A) (A) (A) (A) (A)
                 (A) (A) (A) (A) (A) (A) (A) (A) (A) (A) (A) (A)
                 (A) (A) (A) (A) (A) (A) (A) (A) (A) (A) (A) (A)
                 (A) (A) (A) (A) (A) (A) (A) (A) (A) (A) (A) (A)
                 (A) (A) (A) (A) (A) (A) (A) (A) (A) (A) (A) (A)
                 (A) (A) (A) (A) (A) (A) (A) (A) (A) (A) (A) (A)
                 (A) (A) (A) (A) (A) (A) (A) (A) (A) (A) (A) (A)
                 (A) (A) (A) (A) (A) (A) (A) (A) (A) (A) (A) (A)
                 (A) (A) (A) (A) (A) (A) (A) (A) (A) (A) (A) (A)
                 (A) (A) (A) (A) (A) (A) (A) (A) (A) (A) (A) (A)
                 (A) (A) (A) (A) (A) (A) (A) (A) (A) (A) (A) (A)
                 (A) (A) (A) (A) (A) (A) (A) (A) (A) (A) (A) (A)
                 (A) (A) (A) (A) (A) (A) (A) (A) (A) (A) (A) (A)
                 (A) (A) (A) (A) (A) (A) (A) (A) (A) (A) (A) (A)
                 (A) (A) (A) (A) (A) (A) (A) (A) (A) (A) (A) (A)
                 (A) (A) (A) (A) (A) (A) (A) (A) (A) (A) (A) (A)
                 (A) (A) (A) (A) (A) (A) (A) (A) (A) (A) (A) (A)
                 (A) (A) (A) (A) (A) (A) (A) (A) (A) (A) (A) (A)
                 (A) (A) (A) (A) (A) (A) (A) (A) (A) (A) (A) (A)
                 (A) (A) (A) (A) (A) (A) (A) (A) (A) (A) (A) (A)
                 (A) (A) (A) (A) (A) (A) (A) (A) (A) (A) (A) (A)
                 (A) (A) (A) (A) (A) (A) (A) (A) (A) (A) (A) (A)
                 (A) (A) (A) (A) (A) (A) (A) (A) (A) (A) (A) (A)
                 (A) (A) (A) (A) (A) (A) (A) (A) (A) (A) (A) (A)
                 (A) (A) (A) (A) (A) (A) (A) (A) (A) (A) (A) (A)
                 (A) (A) (A) (A) (A) (A) (A) (A) (A) (A) (A) (A)
                 (A) (A) (A) (A) (A) (A) (A) (A) (A) (A) (A) (A)
                 (A) (A) (A) (A) (A) (A) (A) (A) (A) (A) (A) (A)
                 (A) (A) (A) (A) (A) (A) (A) (A) (A) (A) (A) (A)
                 (A) (A) (A) (A) (A) (A) (A) (A) (A) (A) (A) (A)
                 (A) (A) (A) (A) (A) (A) (A) (A) (A) (A) (A) (A)
                 (A) (A) (A) (A) (A) (A) (A) (A) (A) (A) (A) (A)
                 (A) (A) (A) (A) (A) (A) (A) (A) (A) (A) (A) (A)
                 (A) (A) (A) (A) (A) (A) (A) (A) (A) (A) (A) (A)
                 (A) (A) (A) (A) (A) (A) (A) (A) (A) (A) (A) (A)
                 (A) (A) (A) (A) (A) (A) (A) (A) (A) (A) (A) (A)
                 (A) (A) (A) (A) (A) (A) (A) (A) (A) (A) (A) (A)
                 (A) (A) (A) (A) (A) (A) (A) (A) (A) (A) (A) (A)
                 (A) (A) (A) (A) (A) (A) (A) (A) (A) (A) (A) (A)
                 (A) (A) (A) (A) (A) (A) (A) (A) (A) (A) (A) (A)
                 (A) (A) (A) (A) (A) (A) (A) (A) (A) (A) (A) (A)
                 (A) (A) (A) (A) (A) (A) (A) (A) (A) (A) (A) (A)
                 (A) (A) (A) (A) (A) (A) (A) (A) (A) (A) (A) (A)
                 (A) (A) (A) (A) (A) (A) (A) (A) (A) (A) (A) (A)
                 (A) (A) (A) (A) (A) (A) (A) (A) (A) (A) (A) (A)
                 (A) (A) (A) (A) (A) (A) (A) (A) (A) (A) (A) (A)
                 (A) (A) (A) (A) (A) (A) (A) (A) (A) (A) (A) (A)
                 (A) (A) (A) (A) (A) (A) (A) (A) (A) (A) (A) (A)
                 (A) (A) (A) (A) (A) (A) (A) (A) (A) (A) (A) (A)
                 (A) (A) (A) (A) (A) (A) (A) (A) (A) (A) (A) (A)
                 (A) (A) (A) (A) (A) (A) (A) (A) (A) (A) (A) (A)
                 (A) (A) (A) (A) (A) (A) (A) (A) (A) (A) (A) (A)
                 (A) (A) (A) (A) (A) (A) (A) (A) (A) (A) (A) (A)
                 (A) (A) (A) (A) (A) (A) (A) (A) (A) (A) (A) (A)
                 (A) (A) (A) (A) (A) (A) (A) (A) (A) (A) (A) (A)
                 (A) (A) (A) (A) (A) (A) (A) (A) (A) (A) (A) (A)
                 (A) (A) (A) (A) (A) (A) (A) (A) (A) (A) (A) (A)
                 (A) (A) (A) (A) (A) (A) (A) (A) (A) (A) (A) (A)
                 (A) (A) (A) (A) (A) (A) (A) (A) (A) (A) (A) (A)
                 (A) (A) (A) (A) (A) (A) (A) (A) (A) (A) (A) (A)
                 (A) (A) (A) (A) (A) (A) (A) (A) (A) (A) (A) (A)
                 (A) (A) (A) (A) (A) (A) (A) (A) (A) (A) (A) (A)
                 (A) (A) (A) (A) (A) (A) (A) (A) (A) (A) (A) (A)
                 (A) (A) (A) (A) (A) (A) (A) (A) (A) (A) (A) (A)
                 (A) (A) (A) (A) (A) (A) (A) (A) (A) (A) (A) (A)
                 (A) (A) (A) (A) (A) (A) (A) (A) (A) (A) (A) (A)
                 (A) (A) (A) (A) (A) (A) (A) (A) (A) (A) (A) (A)
                 (A) (A) (A) (A) (A) (A) (A) (A) (A) (A) (A) (A)
                 (A) (A) (A) (A) (A) (A) (A) (A) (A) (A) (A) (A)
                 (A) (A) (A) (A) (A) (A) (A) (A) (A) (A) (A) (A)
                 (A) (A) (A) (A) (A) (A) (A) (A) (A) (A) (A) (A)
                 (A) (A) (A) (A) (A) (A) (A) (A) (A) (A) (A) (A)
                 (A) (A) (A) (A) (A) (A) (A) (A) (A) (A) (A) (A)
                 (A) (A) (A) (A) (A) (A) (A) (A) (A) (A) (A) (A)
                 (A) (A) (A) (A) (A) (A) (A) (A) (A) (A) (A) (A)
                 (A) (A) (A) (A) (A) (A) (A) (A) (A) (A) (A) (A)
                 (A) (A) (A) (A) (A) (A) (A) (A) (A) (A) (A) (A)
                 (A) (A) (A) (A) (A) (A) (A) (A) (A) (A) (A) (A)
                 (A) (A) (A) (A) (A) (A) (A) (A) (A) (A) (A) (A)
                 (A) (A) (A) (A) (A) (A) (A) (A) (A) (A) (A) (A)
                 (A) (A) (A) (A) (A) (A) (A) (A) (A) (A) (A) (A)
                 (A) (A) (A) (A) (A) (A) (A) (A) (A) (A) (A) (A)
                 (A) (A) (A) (A) (A) (A) (A) (A) (A) (A) (A) (A)
                 (A) (A) (A) (A) (A) (A) (A) (A) (A) (A) (A) (A)
                 (A) (A) (A) (A) (A) (A) (A) (A) (A) (A) (A) (A)
                 (A) (A) (A) (A) (A) (A) (A) (A) (A) (A) (A) (A)
                 (A) (A) (A) (A) (A) (A) (A) (A) (A) (A) (A) (A)
                 (A) (A) (A) (A) (A) (A) (A) (A) (A) (A) (A) (A)
                 (A) (A) (A) (A) (A) (A) (A) (A) (A) (A) (A) (A)
                 (A) (A) (A) (A) (A) (A) (A) (A) (A) (A) (A) (A)
                 (A) (A) (A) (A) (A) (A) (A) (A) (A) (A) (A) (A)
                 (A) (A) (A) (A) (A) (A) (A) (A) (A) (A) (A) (A)
                 (A) (A) (A) (A) (A) (A) (A) (A) (A) (A) (A) (A)
                 (A) (A) (A) (A) (A) (A) (A) (A) (A) (A) (A) (A)
                 (A) (A) (A) (A) (A) (A) (A) (A) (A) (A) (A) (A)
                 (A) (A) (A) (A) (A) (A) (A) (A) (A) (A) (A) (A)
                 (A) (A) (A)
 Beta  Orbitals:
       Occupied  (A) (A) (A) (A) (A) (A) (A) (A) (A) (A) (A) (A)
                 (A) (A) (A) (A) (A) (A) (A) (A) (A) (A) (A) (A)
                 (A) (A) (A) (A) (A) (A) (A) (A) (A) (A) (A) (A)
                 (A) (A) (A) (A) (A) (A) (A) (A) (A) (A) (A) (A)
                 (A) (A) (A) (A) (A) (A) (A) (A) (A) (A) (A) (A)
                 (A) (A) (A) (A) (A) (A) (A) (A) (A) (A) (A) (A)
                 (A) (A) (A) (A) (A) (A) (A) (A) (A) (A) (A) (A)
                 (A) (A) (A) (A) (A) (A) (A) (A) (A) (A) (A) (A)
                 (A) (A) (A) (A) (A) (A) (A) (A) (A) (A) (A) (A)
                 (A) (A) (A) (A) (A) (A) (A) (A) (A) (A) (A) (A)
                 (A) (A) (A) (A) (A) (A) (A) (A) (A) (A) (A) (A)
                 (A) (A) (A) (A) (A) (A) (A) (A) (A) (A) (A)
       Virtual   (A) (A) (A) (A) (A) (A) (A) (A) (A) (A) (A) (A)
                 (A) (A) (A) (A) (A) (A) (A) (A) (A) (A) (A) (A)
                 (A) (A) (A) (A) (A) (A) (A) (A) (A) (A) (A) (A)
                 (A) (A) (A) (A) (A) (A) (A) (A) (A) (A) (A) (A)
                 (A) (A) (A) (A) (A) (A) (A) (A) (A) (A) (A) (A)
                 (A) (A) (A) (A) (A) (A) (A) (A) (A) (A) (A) (A)
                 (A) (A) (A) (A) (A) (A) (A) (A) (A) (A) (A) (A)
                 (A) (A) (A) (A) (A) (A) (A) (A) (A) (A) (A) (A)
                 (A) (A) (A) (A) (A) (A) (A) (A) (A) (A) (A) (A)
                 (A) (A) (A) (A) (A) (A) (A) (A) (A) (A) (A) (A)
                 (A) (A) (A) (A) (A) (A) (A) (A) (A) (A) (A) (A)
                 (A) (A) (A) (A) (A) (A) (A) (A) (A) (A) (A) (A)
                 (A) (A) (A) (A) (A) (A) (A) (A) (A) (A) (A) (A)
                 (A) (A) (A) (A) (A) (A) (A) (A) (A) (A) (A) (A)
                 (A) (A) (A) (A) (A) (A) (A) (A) (A) (A) (A) (A)
                 (A) (A) (A) (A) (A) (A) (A) (A) (A) (A) (A) (A)
                 (A) (A) (A) (A) (A) (A) (A) (A) (A) (A) (A) (A)
                 (A) (A) (A) (A) (A) (A) (A) (A) (A) (A) (A) (A)
                 (A) (A) (A) (A) (A) (A) (A) (A) (A) (A) (A) (A)
                 (A) (A) (A) (A) (A) (A) (A) (A) (A) (A) (A) (A)
                 (A) (A) (A) (A) (A) (A) (A) (A) (A) (A) (A) (A)
                 (A) (A) (A) (A) (A) (A) (A) (A) (A) (A) (A) (A)
                 (A) (A) (A) (A) (A) (A) (A) (A) (A) (A) (A) (A)
                 (A) (A) (A) (A) (A) (A) (A) (A) (A) (A) (A) (A)
                 (A) (A) (A) (A) (A) (A) (A) (A) (A) (A) (A) (A)
                 (A) (A) (A) (A) (A) (A) (A) (A) (A) (A) (A) (A)
                 (A) (A) (A) (A) (A) (A) (A) (A) (A) (A) (A) (A)
                 (A) (A) (A) (A) (A) (A) (A) (A) (A) (A) (A) (A)
                 (A) (A) (A) (A) (A) (A) (A) (A) (A) (A) (A) (A)
                 (A) (A) (A) (A) (A) (A) (A) (A) (A) (A) (A) (A)
                 (A) (A) (A) (A) (A) (A) (A) (A) (A) (A) (A) (A)
                 (A) (A) (A) (A) (A) (A) (A) (A) (A) (A) (A) (A)
                 (A) (A) (A) (A) (A) (A) (A) (A) (A) (A) (A) (A)
                 (A) (A) (A) (A) (A) (A) (A) (A) (A) (A) (A) (A)
                 (A) (A) (A) (A) (A) (A) (A) (A) (A) (A) (A) (A)
                 (A) (A) (A) (A) (A) (A) (A) (A) (A) (A) (A) (A)
                 (A) (A) (A) (A) (A) (A) (A) (A) (A) (A) (A) (A)
                 (A) (A) (A) (A) (A) (A) (A) (A) (A) (A) (A) (A)
                 (A) (A) (A) (A) (A) (A) (A) (A) (A) (A) (A) (A)
                 (A) (A) (A) (A) (A) (A) (A) (A) (A) (A) (A) (A)
                 (A) (A) (A) (A) (A) (A) (A) (A) (A) (A) (A) (A)
                 (A) (A) (A) (A) (A) (A) (A) (A) (A) (A) (A) (A)
                 (A) (A) (A) (A) (A) (A) (A) (A) (A) (A) (A) (A)
                 (A) (A) (A) (A) (A) (A) (A) (A) (A) (A) (A) (A)
                 (A) (A) (A) (A) (A) (A) (A) (A) (A) (A) (A) (A)
                 (A) (A) (A) (A) (A) (A) (A) (A) (A) (A) (A) (A)
                 (A) (A) (A) (A) (A) (A) (A) (A) (A) (A) (A) (A)
                 (A) (A) (A) (A) (A) (A) (A) (A) (A) (A) (A) (A)
                 (A) (A) (A) (A) (A) (A) (A) (A) (A) (A) (A) (A)
                 (A) (A) (A) (A) (A) (A) (A) (A) (A) (A) (A) (A)
                 (A) (A) (A) (A) (A) (A) (A) (A) (A) (A) (A) (A)
                 (A) (A) (A) (A) (A) (A) (A) (A) (A) (A) (A) (A)
                 (A) (A) (A) (A) (A) (A) (A) (A) (A) (A) (A) (A)
                 (A) (A) (A) (A) (A) (A) (A) (A) (A) (A) (A) (A)
                 (A) (A) (A) (A) (A) (A) (A) (A) (A) (A) (A) (A)
                 (A) (A) (A) (A) (A) (A) (A) (A) (A) (A) (A) (A)
                 (A) (A) (A) (A) (A) (A) (A) (A) (A) (A) (A) (A)
                 (A) (A) (A) (A) (A) (A) (A) (A) (A) (A) (A) (A)
                 (A) (A) (A) (A) (A) (A) (A) (A) (A) (A) (A) (A)
                 (A) (A) (A) (A) (A) (A) (A) (A) (A) (A) (A) (A)
                 (A) (A) (A) (A) (A) (A) (A) (A) (A) (A) (A) (A)
                 (A) (A) (A) (A) (A) (A) (A) (A) (A) (A) (A) (A)
                 (A) (A) (A) (A) (A) (A) (A) (A) (A) (A) (A) (A)
                 (A) (A) (A) (A) (A) (A) (A) (A) (A) (A) (A) (A)
                 (A) (A) (A) (A) (A) (A) (A) (A) (A) (A) (A) (A)
                 (A) (A) (A) (A) (A) (A) (A) (A) (A) (A) (A) (A)
                 (A) (A) (A) (A) (A) (A) (A) (A) (A) (A) (A) (A)
                 (A) (A) (A) (A) (A) (A) (A) (A) (A) (A) (A) (A)
                 (A) (A) (A) (A) (A) (A) (A) (A) (A) (A) (A) (A)
                 (A) (A) (A) (A) (A) (A) (A) (A) (A) (A) (A) (A)
                 (A) (A) (A) (A) (A) (A) (A) (A) (A) (A) (A) (A)
                 (A) (A) (A) (A) (A) (A) (A) (A) (A) (A) (A) (A)
                 (A) (A) (A) (A) (A) (A) (A) (A) (A) (A) (A) (A)
                 (A) (A) (A) (A) (A) (A) (A) (A) (A) (A) (A) (A)
                 (A) (A) (A) (A) (A) (A) (A) (A) (A) (A) (A) (A)
                 (A) (A) (A) (A) (A) (A) (A) (A) (A) (A) (A) (A)
                 (A) (A) (A) (A) (A) (A) (A) (A) (A) (A) (A) (A)
                 (A) (A) (A) (A) (A) (A) (A) (A) (A) (A) (A) (A)
                 (A) (A) (A) (A) (A) (A) (A) (A) (A) (A) (A) (A)
                 (A) (A) (A) (A) (A) (A) (A) (A) (A) (A) (A) (A)
                 (A) (A) (A) (A) (A) (A) (A) (A) (A) (A) (A) (A)
                 (A) (A) (A) (A) (A) (A) (A) (A) (A) (A) (A) (A)
                 (A) (A) (A) (A) (A) (A) (A) (A) (A) (A) (A) (A)
                 (A) (A) (A) (A) (A) (A) (A) (A) (A) (A) (A) (A)
                 (A) (A) (A) (A) (A) (A) (A) (A) (A) (A) (A) (A)
                 (A) (A) (A) (A) (A) (A) (A) (A) (A) (A) (A) (A)
                 (A) (A) (A) (A) (A) (A) (A) (A) (A) (A) (A) (A)
                 (A) (A) (A) (A) (A) (A) (A) (A) (A) (A) (A) (A)
                 (A) (A) (A) (A) (A) (A) (A) (A) (A) (A) (A) (A)
                 (A) (A) (A) (A) (A) (A) (A) (A) (A) (A) (A) (A)
                 (A) (A) (A) (A) (A) (A) (A) (A) (A) (A) (A) (A)
                 (A) (A) (A) (A) (A) (A) (A) (A) (A) (A) (A) (A)
                 (A) (A) (A) (A) (A) (A) (A) (A) (A) (A) (A) (A)
                 (A) (A) (A) (A) (A) (A) (A) (A) (A) (A) (A) (A)
                 (A) (A) (A) (A) (A) (A) (A) (A) (A) (A) (A) (A)
                 (A) (A) (A) (A) (A) (A) (A) (A) (A) (A) (A) (A)
                 (A) (A) (A) (A) (A) (A) (A) (A) (A) (A) (A) (A)
                 (A) (A) (A) (A) (A) (A) (A) (A) (A) (A) (A) (A)
                 (A) (A) (A) (A) (A) (A) (A) (A) (A) (A) (A) (A)
                 (A) (A) (A) (A) (A) (A) (A) (A) (A) (A) (A) (A)
                 (A) (A) (A) (A) (A) (A) (A) (A) (A) (A) (A) (A)
                 (A) (A) (A) (A)
 The electronic state is 2-A.
 Alpha  occ. eigenvalues -- -256.36518 -89.11192 -30.23335 -26.07784 -26.07769
 Alpha  occ. eigenvalues --  -26.05238 -14.48132 -14.47948 -14.47688 -14.47624
 Alpha  occ. eigenvalues --  -10.34999 -10.34380 -10.34169 -10.34149 -10.34138
 Alpha  occ. eigenvalues --  -10.34096 -10.34079 -10.33866 -10.33742 -10.31869
 Alpha  occ. eigenvalues --  -10.31845 -10.31578 -10.31380 -10.31124 -10.30948
 Alpha  occ. eigenvalues --  -10.30945 -10.30867 -10.30861 -10.30591 -10.30301
 Alpha  occ. eigenvalues --  -10.30225 -10.29781 -10.29690 -10.28961 -10.28916
 Alpha  occ. eigenvalues --  -10.28883 -10.28607 -10.28508 -10.28415 -10.28387
 Alpha  occ. eigenvalues --  -10.28317  -8.13942  -6.08460  -6.08203  -6.07746
 Alpha  occ. eigenvalues --   -3.63341  -2.42013  -2.41288  -2.35495  -1.10378
 Alpha  occ. eigenvalues --   -1.09530  -1.09108  -1.08270  -0.95168  -0.94217
 Alpha  occ. eigenvalues --   -0.93424  -0.93148  -0.92673  -0.92427  -0.92197
 Alpha  occ. eigenvalues --   -0.91904  -0.88117  -0.86961  -0.86702  -0.85456
 Alpha  occ. eigenvalues --   -0.83939  -0.82319  -0.81218  -0.79883  -0.79641
 Alpha  occ. eigenvalues --   -0.79554  -0.78983  -0.76707  -0.76561  -0.72245
 Alpha  occ. eigenvalues --   -0.71321  -0.70064  -0.69723  -0.66444  -0.66325
 Alpha  occ. eigenvalues --   -0.65160  -0.64158  -0.63149  -0.62919  -0.62427
 Alpha  occ. eigenvalues --   -0.60408  -0.60033  -0.59476  -0.59397  -0.58113
 Alpha  occ. eigenvalues --   -0.57447  -0.56958  -0.56072  -0.55775  -0.55704
 Alpha  occ. eigenvalues --   -0.55130  -0.54776  -0.54525  -0.54304  -0.53928
 Alpha  occ. eigenvalues --   -0.53461  -0.53404  -0.52269  -0.52032  -0.51773
 Alpha  occ. eigenvalues --   -0.51749  -0.51583  -0.51392  -0.51268  -0.51144
 Alpha  occ. eigenvalues --   -0.50989  -0.50902  -0.50633  -0.50089  -0.49853
 Alpha  occ. eigenvalues --   -0.49400  -0.49078  -0.48845  -0.48645  -0.48537
 Alpha  occ. eigenvalues --   -0.47807  -0.47533  -0.47074  -0.46207  -0.45604
 Alpha  occ. eigenvalues --   -0.45342  -0.45036  -0.44538  -0.44007  -0.43693
 Alpha  occ. eigenvalues --   -0.43139  -0.42443  -0.41041  -0.40849  -0.40143
 Alpha  occ. eigenvalues --   -0.39443  -0.38575  -0.38187  -0.36036  -0.34403
 Alpha  occ. eigenvalues --   -0.33704  -0.32864  -0.32137  -0.30555
 Alpha virt. eigenvalues --   -0.25475  -0.18889  -0.18758  -0.14771  -0.13117
 Alpha virt. eigenvalues --   -0.11776  -0.10040  -0.09140  -0.08189  -0.06765
 Alpha virt. eigenvalues --   -0.05882  -0.04599  -0.04143  -0.03824  -0.03492
 Alpha virt. eigenvalues --   -0.03194  -0.02997  -0.02401  -0.02205  -0.01541
 Alpha virt. eigenvalues --   -0.00800  -0.00461  -0.00426  -0.00176   0.00554
 Alpha virt. eigenvalues --    0.00925   0.01073   0.01227   0.01450   0.01558
 Alpha virt. eigenvalues --    0.02134   0.02273   0.02470   0.02682   0.03031
 Alpha virt. eigenvalues --    0.03471   0.03595   0.03673   0.03983   0.04356
 Alpha virt. eigenvalues --    0.04470   0.04749   0.04989   0.05234   0.05430
 Alpha virt. eigenvalues --    0.05794   0.06377   0.06579   0.06782   0.06946
 Alpha virt. eigenvalues --    0.07098   0.07242   0.07379   0.07736   0.07900
 Alpha virt. eigenvalues --    0.08092   0.08148   0.08392   0.08708   0.09182
 Alpha virt. eigenvalues --    0.09545   0.09781   0.09945   0.09995   0.10470
 Alpha virt. eigenvalues --    0.10527   0.10716   0.11055   0.11536   0.11617
 Alpha virt. eigenvalues --    0.11846   0.12323   0.12529   0.12759   0.12959
 Alpha virt. eigenvalues --    0.13487   0.13713   0.14013   0.14508   0.14709
 Alpha virt. eigenvalues --    0.15121   0.15554   0.15921   0.16250   0.16281
 Alpha virt. eigenvalues --    0.16793   0.16860   0.16993   0.17269   0.17484
 Alpha virt. eigenvalues --    0.17854   0.18319   0.18472   0.19205   0.19577
 Alpha virt. eigenvalues --    0.19618   0.19964   0.20118   0.20143   0.20407
 Alpha virt. eigenvalues --    0.20655   0.20942   0.21071   0.21630   0.22053
 Alpha virt. eigenvalues --    0.22273   0.22551   0.22835   0.23223   0.23348
 Alpha virt. eigenvalues --    0.23577   0.23882   0.24177   0.24430   0.24838
 Alpha virt. eigenvalues --    0.25130   0.25565   0.25767   0.26087   0.26999
 Alpha virt. eigenvalues --    0.27284   0.27530   0.27917   0.28086   0.28332
 Alpha virt. eigenvalues --    0.28781   0.29072   0.29170   0.29309   0.29673
 Alpha virt. eigenvalues --    0.29907   0.30202   0.30256   0.30468   0.30515
 Alpha virt. eigenvalues --    0.31044   0.31415   0.31675   0.31955   0.32140
 Alpha virt. eigenvalues --    0.32219   0.32526   0.32716   0.33093   0.33676
 Alpha virt. eigenvalues --    0.33750   0.33917   0.34370   0.34576   0.34932
 Alpha virt. eigenvalues --    0.34958   0.35128   0.35384   0.35585   0.35961
 Alpha virt. eigenvalues --    0.36296   0.36456   0.36769   0.37002   0.37204
 Alpha virt. eigenvalues --    0.37336   0.37564   0.37717   0.37909   0.38336
 Alpha virt. eigenvalues --    0.38803   0.38978   0.39016   0.39428   0.39593
 Alpha virt. eigenvalues --    0.39919   0.39983   0.40464   0.40660   0.40708
 Alpha virt. eigenvalues --    0.40937   0.41321   0.41446   0.41705   0.41832
 Alpha virt. eigenvalues --    0.41956   0.42370   0.42621   0.42956   0.42968
 Alpha virt. eigenvalues --    0.43161   0.43464   0.43829   0.44239   0.44438
 Alpha virt. eigenvalues --    0.44798   0.45038   0.45116   0.45401   0.45618
 Alpha virt. eigenvalues --    0.45920   0.46201   0.46398   0.47060   0.47390
 Alpha virt. eigenvalues --    0.47684   0.48049   0.48305   0.48690   0.49007
 Alpha virt. eigenvalues --    0.49374   0.49843   0.50009   0.50092   0.50977
 Alpha virt. eigenvalues --    0.51317   0.51552   0.51922   0.52200   0.52339
 Alpha virt. eigenvalues --    0.52864   0.53328   0.53437   0.53823   0.54312
 Alpha virt. eigenvalues --    0.54652   0.54902   0.55268   0.55478   0.55673
 Alpha virt. eigenvalues --    0.56034   0.56398   0.56574   0.56870   0.57222
 Alpha virt. eigenvalues --    0.57800   0.58017   0.58326   0.58415   0.58710
 Alpha virt. eigenvalues --    0.59119   0.59578   0.59993   0.60426   0.60679
 Alpha virt. eigenvalues --    0.61185   0.61405   0.61623   0.61865   0.61892
 Alpha virt. eigenvalues --    0.62314   0.62582   0.62873   0.63270   0.63403
 Alpha virt. eigenvalues --    0.63650   0.64035   0.64724   0.64947   0.65511
 Alpha virt. eigenvalues --    0.65866   0.66160   0.66409   0.66724   0.67468
 Alpha virt. eigenvalues --    0.67841   0.67999   0.68560   0.68732   0.69215
 Alpha virt. eigenvalues --    0.69594   0.69885   0.70838   0.71384   0.71920
 Alpha virt. eigenvalues --    0.72248   0.72528   0.72870   0.73366   0.73749
 Alpha virt. eigenvalues --    0.74257   0.74304   0.74824   0.75419   0.76110
 Alpha virt. eigenvalues --    0.76201   0.76760   0.77059   0.77362   0.78145
 Alpha virt. eigenvalues --    0.78386   0.79049   0.79198   0.79559   0.79875
 Alpha virt. eigenvalues --    0.80657   0.81057   0.81633   0.81713   0.82272
 Alpha virt. eigenvalues --    0.82620   0.82872   0.83666   0.84297   0.84556
 Alpha virt. eigenvalues --    0.84665   0.85002   0.85598   0.85791   0.86043
 Alpha virt. eigenvalues --    0.86545   0.86756   0.87261   0.87599   0.87882
 Alpha virt. eigenvalues --    0.88415   0.88569   0.88605   0.89286   0.89822
 Alpha virt. eigenvalues --    0.90430   0.90604   0.90917   0.91273   0.91621
 Alpha virt. eigenvalues --    0.91882   0.92327   0.92491   0.92890   0.93372
 Alpha virt. eigenvalues --    0.93537   0.93789   0.93942   0.94633   0.95046
 Alpha virt. eigenvalues --    0.95566   0.96393   0.96659   0.96889   0.97178
 Alpha virt. eigenvalues --    0.97322   0.97785   0.98233   0.98807   0.99461
 Alpha virt. eigenvalues --    0.99744   1.00407   1.00595   1.00912   1.01769
 Alpha virt. eigenvalues --    1.02332   1.02989   1.04118   1.04651   1.04841
 Alpha virt. eigenvalues --    1.05557   1.05979   1.06590   1.06985   1.07744
 Alpha virt. eigenvalues --    1.07985   1.08554   1.08633   1.09360   1.09448
 Alpha virt. eigenvalues --    1.09725   1.10161   1.10975   1.11418   1.11654
 Alpha virt. eigenvalues --    1.12129   1.12498   1.12661   1.13984   1.14492
 Alpha virt. eigenvalues --    1.14815   1.14988   1.15457   1.15607   1.15918
 Alpha virt. eigenvalues --    1.15992   1.16494   1.17088   1.17554   1.17990
 Alpha virt. eigenvalues --    1.18251   1.18547   1.19148   1.19394   1.19689
 Alpha virt. eigenvalues --    1.20288   1.20762   1.21267   1.22325   1.22661
 Alpha virt. eigenvalues --    1.23380   1.24317   1.24910   1.25628   1.26490
 Alpha virt. eigenvalues --    1.26913   1.27384   1.28110   1.28635   1.29358
 Alpha virt. eigenvalues --    1.30177   1.30726   1.31156   1.31411   1.32437
 Alpha virt. eigenvalues --    1.32652   1.33496   1.33677   1.34509   1.34579
 Alpha virt. eigenvalues --    1.34652   1.35208   1.36115   1.36473   1.36894
 Alpha virt. eigenvalues --    1.37569   1.37698   1.37895   1.38108   1.38926
 Alpha virt. eigenvalues --    1.39243   1.39910   1.40255   1.40877   1.41068
 Alpha virt. eigenvalues --    1.41310   1.41418   1.42113   1.42339   1.42686
 Alpha virt. eigenvalues --    1.42943   1.43449   1.43719   1.44316   1.44427
 Alpha virt. eigenvalues --    1.44634   1.44893   1.45102   1.45145   1.45566
 Alpha virt. eigenvalues --    1.45962   1.46109   1.46203   1.46575   1.46659
 Alpha virt. eigenvalues --    1.46808   1.47063   1.47620   1.48275   1.48446
 Alpha virt. eigenvalues --    1.48761   1.49088   1.49610   1.49752   1.49968
 Alpha virt. eigenvalues --    1.50381   1.50781   1.51114   1.51569   1.51940
 Alpha virt. eigenvalues --    1.51994   1.52340   1.53019   1.53237   1.53421
 Alpha virt. eigenvalues --    1.53924   1.54026   1.54422   1.54476   1.55239
 Alpha virt. eigenvalues --    1.55432   1.55494   1.55809   1.56337   1.56733
 Alpha virt. eigenvalues --    1.57221   1.57426   1.57689   1.58117   1.58796
 Alpha virt. eigenvalues --    1.59027   1.59053   1.59525   1.59832   1.60241
 Alpha virt. eigenvalues --    1.60416   1.60943   1.61491   1.61680   1.62169
 Alpha virt. eigenvalues --    1.62445   1.63032   1.63310   1.64130   1.64870
 Alpha virt. eigenvalues --    1.65264   1.65917   1.66570   1.67078   1.67358
 Alpha virt. eigenvalues --    1.68433   1.68668   1.69018   1.70006   1.70368
 Alpha virt. eigenvalues --    1.70926   1.71132   1.71587   1.71874   1.72239
 Alpha virt. eigenvalues --    1.72802   1.73068   1.73392   1.74128   1.75380
 Alpha virt. eigenvalues --    1.75874   1.76060   1.76924   1.77393   1.77671
 Alpha virt. eigenvalues --    1.78208   1.78379   1.78766   1.79372   1.79932
 Alpha virt. eigenvalues --    1.80232   1.81161   1.81491   1.81815   1.83015
 Alpha virt. eigenvalues --    1.83360   1.83538   1.84348   1.84885   1.85502
 Alpha virt. eigenvalues --    1.86075   1.86610   1.87297   1.87627   1.87922
 Alpha virt. eigenvalues --    1.88566   1.88697   1.89175   1.89348   1.90356
 Alpha virt. eigenvalues --    1.90408   1.90953   1.91542   1.92228   1.92614
 Alpha virt. eigenvalues --    1.92917   1.93371   1.94153   1.94575   1.95098
 Alpha virt. eigenvalues --    1.95761   1.95936   1.97003   1.97177   1.97509
 Alpha virt. eigenvalues --    1.98108   1.98959   1.99317   1.99980   2.00025
 Alpha virt. eigenvalues --    2.00588   2.01931   2.02394   2.02437   2.02965
 Alpha virt. eigenvalues --    2.03501   2.03894   2.04102   2.04380   2.04900
 Alpha virt. eigenvalues --    2.05813   2.06218   2.07334   2.07438   2.08342
 Alpha virt. eigenvalues --    2.09230   2.09364   2.09982   2.10588   2.11098
 Alpha virt. eigenvalues --    2.11288   2.12298   2.12907   2.13167   2.13710
 Alpha virt. eigenvalues --    2.15135   2.15293   2.15489   2.15762   2.16484
 Alpha virt. eigenvalues --    2.16727   2.17103   2.17445   2.18389   2.19189
 Alpha virt. eigenvalues --    2.19509   2.19729   2.20271   2.20485   2.21202
 Alpha virt. eigenvalues --    2.21758   2.22116   2.23235   2.23715   2.24116
 Alpha virt. eigenvalues --    2.24614   2.25190   2.25676   2.26166   2.26250
 Alpha virt. eigenvalues --    2.26739   2.27019   2.27069   2.27369   2.27664
 Alpha virt. eigenvalues --    2.28050   2.28845   2.29400   2.29601   2.29879
 Alpha virt. eigenvalues --    2.30174   2.31172   2.31459   2.32452   2.32600
 Alpha virt. eigenvalues --    2.33113   2.33399   2.34241   2.34387   2.34685
 Alpha virt. eigenvalues --    2.35295   2.35620   2.35819   2.36231   2.37097
 Alpha virt. eigenvalues --    2.37884   2.38415   2.39478   2.39841   2.40262
 Alpha virt. eigenvalues --    2.41353   2.41481   2.41882   2.42528   2.43126
 Alpha virt. eigenvalues --    2.43321   2.43982   2.44313   2.44864   2.45208
 Alpha virt. eigenvalues --    2.45562   2.45603   2.45865   2.46167   2.46414
 Alpha virt. eigenvalues --    2.46753   2.47587   2.47909   2.48264   2.48518
 Alpha virt. eigenvalues --    2.48953   2.49447   2.49616   2.49964   2.50211
 Alpha virt. eigenvalues --    2.50500   2.51007   2.51976   2.52173   2.52578
 Alpha virt. eigenvalues --    2.52842   2.53592   2.54230   2.54638   2.55023
 Alpha virt. eigenvalues --    2.55622   2.56042   2.56419   2.56947   2.57534
 Alpha virt. eigenvalues --    2.57694   2.57857   2.58477   2.58951   2.59182
 Alpha virt. eigenvalues --    2.59708   2.59778   2.61282   2.61997   2.62450
 Alpha virt. eigenvalues --    2.62655   2.63296   2.63994   2.64143   2.64564
 Alpha virt. eigenvalues --    2.64741   2.65431   2.66444   2.66652   2.67053
 Alpha virt. eigenvalues --    2.67624   2.67913   2.68346   2.68828   2.69339
 Alpha virt. eigenvalues --    2.70254   2.70717   2.71248   2.71551   2.71992
 Alpha virt. eigenvalues --    2.72278   2.72535   2.72977   2.73780   2.74508
 Alpha virt. eigenvalues --    2.74632   2.74942   2.75472   2.75819   2.76030
 Alpha virt. eigenvalues --    2.76370   2.76889   2.77571   2.77824   2.78256
 Alpha virt. eigenvalues --    2.78526   2.78890   2.79599   2.80050   2.80645
 Alpha virt. eigenvalues --    2.81166   2.81729   2.81945   2.82433   2.82768
 Alpha virt. eigenvalues --    2.83546   2.83614   2.84314   2.84611   2.85060
 Alpha virt. eigenvalues --    2.85460   2.85972   2.86267   2.87084   2.87660
 Alpha virt. eigenvalues --    2.88289   2.88372   2.89144   2.89746   2.89895
 Alpha virt. eigenvalues --    2.90380   2.91086   2.91890   2.92182   2.92428
 Alpha virt. eigenvalues --    2.92904   2.93185   2.93478   2.94288   2.94875
 Alpha virt. eigenvalues --    2.95124   2.95415   2.95885   2.96623   2.96678
 Alpha virt. eigenvalues --    2.97028   2.97197   2.97544   2.98015   2.98638
 Alpha virt. eigenvalues --    2.98954   2.98995   2.99566   2.99605   3.00434
 Alpha virt. eigenvalues --    3.00912   3.00971   3.01104   3.01476   3.01949
 Alpha virt. eigenvalues --    3.02107   3.02510   3.02810   3.03488   3.04072
 Alpha virt. eigenvalues --    3.04155   3.04659   3.04837   3.05535   3.05608
 Alpha virt. eigenvalues --    3.06465   3.06692   3.06865   3.07328   3.07756
 Alpha virt. eigenvalues --    3.07947   3.08164   3.08648   3.09180   3.09427
 Alpha virt. eigenvalues --    3.09727   3.09900   3.10284   3.10506   3.10882
 Alpha virt. eigenvalues --    3.11223   3.11496   3.12475   3.12713   3.12888
 Alpha virt. eigenvalues --    3.13415   3.13519   3.14052   3.14259   3.14555
 Alpha virt. eigenvalues --    3.15135   3.15525   3.15740   3.15816   3.16136
 Alpha virt. eigenvalues --    3.16488   3.16866   3.17695   3.18093   3.18399
 Alpha virt. eigenvalues --    3.19069   3.19163   3.19585   3.19816   3.20001
 Alpha virt. eigenvalues --    3.20209   3.20250   3.20948   3.21055   3.21192
 Alpha virt. eigenvalues --    3.21615   3.21819   3.22145   3.22363   3.22541
 Alpha virt. eigenvalues --    3.22848   3.23000   3.23229   3.23739   3.23990
 Alpha virt. eigenvalues --    3.24138   3.24447   3.24626   3.25111   3.25354
 Alpha virt. eigenvalues --    3.25761   3.26091   3.26354   3.26791   3.27136
 Alpha virt. eigenvalues --    3.27276   3.27499   3.27695   3.27754   3.28231
 Alpha virt. eigenvalues --    3.28898   3.29082   3.29150   3.29530   3.30053
 Alpha virt. eigenvalues --    3.30615   3.30798   3.31248   3.31862   3.32557
 Alpha virt. eigenvalues --    3.32967   3.33278   3.33378   3.33836   3.34035
 Alpha virt. eigenvalues --    3.35186   3.35666   3.36011   3.36340   3.36784
 Alpha virt. eigenvalues --    3.37002   3.37702   3.38191   3.38928   3.39297
 Alpha virt. eigenvalues --    3.39361   3.40891   3.41077   3.41494   3.42740
 Alpha virt. eigenvalues --    3.43156   3.43505   3.44073   3.44481   3.44888
 Alpha virt. eigenvalues --    3.45704   3.46028   3.46630   3.47011   3.47816
 Alpha virt. eigenvalues --    3.48288   3.48833   3.49185   3.49706   3.50230
 Alpha virt. eigenvalues --    3.50691   3.50943   3.51607   3.51982   3.52491
 Alpha virt. eigenvalues --    3.53216   3.54402   3.54705   3.55036   3.55525
 Alpha virt. eigenvalues --    3.55868   3.57183   3.57509   3.58176   3.58655
 Alpha virt. eigenvalues --    3.59390   3.59514   3.60017   3.60477   3.60980
 Alpha virt. eigenvalues --    3.61131   3.61450   3.61730   3.62442   3.62832
 Alpha virt. eigenvalues --    3.63162   3.63361   3.63576   3.64034   3.64718
 Alpha virt. eigenvalues --    3.64878   3.66108   3.66418   3.67555   3.68241
 Alpha virt. eigenvalues --    3.68427   3.69298   3.70186   3.70361   3.71228
 Alpha virt. eigenvalues --    3.72196   3.72537   3.73370   3.73544   3.74146
 Alpha virt. eigenvalues --    3.74615   3.74806   3.75802   3.76889   3.77099
 Alpha virt. eigenvalues --    3.78193   3.78363   3.78989   3.80482   3.81112
 Alpha virt. eigenvalues --    3.81474   3.82096   3.82439   3.83382   3.84568
 Alpha virt. eigenvalues --    3.85396   3.85752   3.86298   3.86846   3.88157
 Alpha virt. eigenvalues --    3.88632   3.88905   3.89320   3.90132   3.90434
 Alpha virt. eigenvalues --    3.91531   3.91673   3.91990   3.92699   3.93347
 Alpha virt. eigenvalues --    3.93966   3.94456   3.95320   3.96082   3.97353
 Alpha virt. eigenvalues --    3.98603   3.99027   3.99304   3.99796   3.99905
 Alpha virt. eigenvalues --    4.01128   4.02117   4.02686   4.03533   4.03758
 Alpha virt. eigenvalues --    4.04497   4.04821   4.05837   4.06329   4.07350
 Alpha virt. eigenvalues --    4.07950   4.08226   4.08630   4.09826   4.10018
 Alpha virt. eigenvalues --    4.10530   4.11049   4.11423   4.11681   4.12108
 Alpha virt. eigenvalues --    4.13169   4.13732   4.14069   4.14695   4.15983
 Alpha virt. eigenvalues --    4.16395   4.17134   4.17241   4.17761   4.19149
 Alpha virt. eigenvalues --    4.19383   4.19980   4.20741   4.21367   4.21940
 Alpha virt. eigenvalues --    4.22779   4.23823   4.24005   4.24838   4.26185
 Alpha virt. eigenvalues --    4.27210   4.28137   4.28326   4.29076   4.29220
 Alpha virt. eigenvalues --    4.29618   4.29824   4.30778   4.31037   4.31746
 Alpha virt. eigenvalues --    4.32493   4.33013   4.33262   4.33835   4.34480
 Alpha virt. eigenvalues --    4.35084   4.35554   4.36623   4.37501   4.39198
 Alpha virt. eigenvalues --    4.39640   4.40217   4.41409   4.41971   4.43488
 Alpha virt. eigenvalues --    4.43899   4.44691   4.45703   4.45880   4.47819
 Alpha virt. eigenvalues --    4.49136   4.50829   4.51486   4.52037   4.53140
 Alpha virt. eigenvalues --    4.54156   4.55155   4.55797   4.56598   4.57028
 Alpha virt. eigenvalues --    4.58649   4.59634   4.60403   4.62810   4.63345
 Alpha virt. eigenvalues --    4.63640   4.64728   4.65955   4.66332   4.67247
 Alpha virt. eigenvalues --    4.68581   4.69879   4.70583   4.71818   4.72043
 Alpha virt. eigenvalues --    4.72732   4.72791   4.73629   4.74275   4.75893
 Alpha virt. eigenvalues --    4.76112   4.77498   4.79536   4.80615   4.80994
 Alpha virt. eigenvalues --    4.81567   4.82182   4.83905   4.84228   4.85489
 Alpha virt. eigenvalues --    4.87569   4.88323   4.90109   4.91151   4.91435
 Alpha virt. eigenvalues --    4.92098   4.93458   4.94326   4.95278   4.95892
 Alpha virt. eigenvalues --    4.96735   4.98168   4.98864   5.00338   5.04209
 Alpha virt. eigenvalues --    5.06008   5.06223   5.07591   5.08176   5.08674
 Alpha virt. eigenvalues --    5.10442   5.10714   5.11385   5.11613   5.14150
 Alpha virt. eigenvalues --    5.15004   5.21970   5.22434   5.23930   5.24868
 Alpha virt. eigenvalues --    5.25298   5.25658   5.26215   5.27070   5.29070
 Alpha virt. eigenvalues --    5.34929   5.35724   5.35977   5.36650   5.38219
 Alpha virt. eigenvalues --    5.38654   5.40267   5.44531   5.45881   5.47959
 Alpha virt. eigenvalues --    5.49742   5.50133   5.52445   5.53474   5.54403
 Alpha virt. eigenvalues --    5.56038   5.60918   5.61638   5.62949   5.64280
 Alpha virt. eigenvalues --    5.64903   5.72778   5.73817   5.76991   5.85705
 Alpha virt. eigenvalues --    5.87526   5.88775   5.94139   5.95712   5.97781
 Alpha virt. eigenvalues --    5.99042   6.04227   6.11966   6.19740   6.20324
 Alpha virt. eigenvalues --    6.27157   8.91003   9.06269   9.26153  19.36480
 Alpha virt. eigenvalues --   22.18219  22.23944  22.26159  22.36112  22.36651
 Alpha virt. eigenvalues --   22.43048  22.44385  22.52823  22.53134  22.68874
 Alpha virt. eigenvalues --   22.74789  22.77644  22.79669  22.80679  22.82463
 Alpha virt. eigenvalues --   22.83083  22.88965  22.90409  22.99192  23.12316
 Alpha virt. eigenvalues --   23.16256  23.18512  23.23651  23.29803  23.38386
 Alpha virt. eigenvalues --   23.39527  23.44264  23.60322  23.64586  23.66347
 Alpha virt. eigenvalues --   23.74644  32.68104  32.72929  32.75712  32.88676
  Beta  occ. eigenvalues -- -256.36462 -89.11260 -30.20218 -26.04753 -26.04171
  Beta  occ. eigenvalues --  -26.04066 -14.48360 -14.48175 -14.47923 -14.47912
  Beta  occ. eigenvalues --  -10.34985 -10.34313 -10.34115 -10.34090 -10.34070
  Beta  occ. eigenvalues --  -10.34046 -10.34020 -10.33804 -10.33681 -10.32039
  Beta  occ. eigenvalues --  -10.32027 -10.31743 -10.31546 -10.31100 -10.30923
  Beta  occ. eigenvalues --  -10.30922 -10.30862 -10.30843 -10.30587 -10.30296
  Beta  occ. eigenvalues --  -10.30220 -10.29791 -10.29694 -10.28962 -10.28918
  Beta  occ. eigenvalues --  -10.28885 -10.28607 -10.28509 -10.28396 -10.28388
  Beta  occ. eigenvalues --  -10.28311  -8.14003  -6.08501  -6.08268  -6.07928
  Beta  occ. eigenvalues --   -3.55682  -2.32507  -2.31437  -2.30349  -1.10598
  Beta  occ. eigenvalues --   -1.09715  -1.09373  -1.08504  -0.95348  -0.94379
  Beta  occ. eigenvalues --   -0.93467  -0.93199  -0.92736  -0.92559  -0.92401
  Beta  occ. eigenvalues --   -0.92034  -0.88105  -0.87275  -0.86824  -0.85475
  Beta  occ. eigenvalues --   -0.83974  -0.82346  -0.81262  -0.79939  -0.79678
  Beta  occ. eigenvalues --   -0.79593  -0.79059  -0.76761  -0.76616  -0.72255
  Beta  occ. eigenvalues --   -0.71339  -0.70094  -0.69894  -0.66477  -0.66362
  Beta  occ. eigenvalues --   -0.65205  -0.64159  -0.63220  -0.62973  -0.62475
  Beta  occ. eigenvalues --   -0.60411  -0.59992  -0.59519  -0.59423  -0.58284
  Beta  occ. eigenvalues --   -0.57478  -0.56982  -0.56211  -0.55839  -0.55745
  Beta  occ. eigenvalues --   -0.55222  -0.54793  -0.54587  -0.54347  -0.53991
  Beta  occ. eigenvalues --   -0.53442  -0.53328  -0.52269  -0.52055  -0.51775
  Beta  occ. eigenvalues --   -0.51708  -0.51578  -0.51288  -0.51260  -0.51161
  Beta  occ. eigenvalues --   -0.50982  -0.50895  -0.50558  -0.50042  -0.49743
  Beta  occ. eigenvalues --   -0.49447  -0.49055  -0.48813  -0.48569  -0.48349
  Beta  occ. eigenvalues --   -0.47777  -0.47425  -0.46966  -0.46057  -0.45189
  Beta  occ. eigenvalues --   -0.45014  -0.44861  -0.44004  -0.43541  -0.43337
  Beta  occ. eigenvalues --   -0.43080  -0.41203  -0.40864  -0.39653  -0.39298
  Beta  occ. eigenvalues --   -0.37242  -0.36278  -0.35626  -0.34723  -0.34032
  Beta  occ. eigenvalues --   -0.32434  -0.32186  -0.30090
  Beta virt. eigenvalues --   -0.20924  -0.19345  -0.17378  -0.16978  -0.13345
  Beta virt. eigenvalues --   -0.11023  -0.10536  -0.09924  -0.09159  -0.08188
  Beta virt. eigenvalues --   -0.06814  -0.05785  -0.04596  -0.03991  -0.03768
  Beta virt. eigenvalues --   -0.03288  -0.03053  -0.02885  -0.02209  -0.02086
  Beta virt. eigenvalues --   -0.01481  -0.00772  -0.00451  -0.00362  -0.00182
  Beta virt. eigenvalues --    0.00557   0.00942   0.01071   0.01197   0.01445
  Beta virt. eigenvalues --    0.01525   0.02059   0.02208   0.02398   0.02627
  Beta virt. eigenvalues --    0.03011   0.03430   0.03499   0.03655   0.03937
  Beta virt. eigenvalues --    0.04301   0.04426   0.04738   0.04997   0.05236
  Beta virt. eigenvalues --    0.05423   0.05791   0.06379   0.06597   0.06817
  Beta virt. eigenvalues --    0.07104   0.07147   0.07330   0.07544   0.07782
  Beta virt. eigenvalues --    0.08046   0.08121   0.08278   0.08373   0.08717
  Beta virt. eigenvalues --    0.09176   0.09571   0.09834   0.09960   0.10025
  Beta virt. eigenvalues --    0.10485   0.10574   0.10784   0.11033   0.11644
  Beta virt. eigenvalues --    0.11670   0.11884   0.12324   0.12660   0.12784
  Beta virt. eigenvalues --    0.13017   0.13554   0.13816   0.14012   0.14544
  Beta virt. eigenvalues --    0.14723   0.15119   0.15562   0.15911   0.16239
  Beta virt. eigenvalues --    0.16303   0.16795   0.16929   0.16996   0.17278
  Beta virt. eigenvalues --    0.17493   0.17873   0.18369   0.18503   0.19209
  Beta virt. eigenvalues --    0.19588   0.19669   0.19975   0.20093   0.20130
  Beta virt. eigenvalues --    0.20412   0.20650   0.20908   0.21065   0.21619
  Beta virt. eigenvalues --    0.22068   0.22318   0.22573   0.22838   0.23235
  Beta virt. eigenvalues --    0.23312   0.23591   0.23844   0.24163   0.24418
  Beta virt. eigenvalues --    0.24828   0.25203   0.25633   0.25781   0.26082
  Beta virt. eigenvalues --    0.26927   0.27243   0.27575   0.27964   0.28068
  Beta virt. eigenvalues --    0.28334   0.28756   0.29087   0.29211   0.29295
  Beta virt. eigenvalues --    0.29594   0.29863   0.30172   0.30263   0.30490
  Beta virt. eigenvalues --    0.30514   0.31001   0.31415   0.31679   0.31885
  Beta virt. eigenvalues --    0.32143   0.32199   0.32517   0.32785   0.33076
  Beta virt. eigenvalues --    0.33639   0.33752   0.33910   0.34359   0.34569
  Beta virt. eigenvalues --    0.34928   0.34977   0.35169   0.35403   0.35599
  Beta virt. eigenvalues --    0.36054   0.36275   0.36496   0.36767   0.37017
  Beta virt. eigenvalues --    0.37196   0.37346   0.37566   0.37706   0.37918
  Beta virt. eigenvalues --    0.38323   0.38808   0.38976   0.39052   0.39459
  Beta virt. eigenvalues --    0.39585   0.39917   0.39984   0.40477   0.40709
  Beta virt. eigenvalues --    0.40723   0.40921   0.41309   0.41474   0.41702
  Beta virt. eigenvalues --    0.41851   0.41954   0.42388   0.42642   0.42957
  Beta virt. eigenvalues --    0.42962   0.43161   0.43449   0.43875   0.44257
  Beta virt. eigenvalues --    0.44424   0.44823   0.45054   0.45119   0.45395
  Beta virt. eigenvalues --    0.45699   0.45950   0.46270   0.46423   0.47039
  Beta virt. eigenvalues --    0.47420   0.47697   0.48052   0.48323   0.48677
  Beta virt. eigenvalues --    0.49007   0.49353   0.49867   0.49998   0.50105
  Beta virt. eigenvalues --    0.50995   0.51347   0.51572   0.51908   0.52201
  Beta virt. eigenvalues --    0.52342   0.52841   0.53305   0.53422   0.53775
  Beta virt. eigenvalues --    0.54297   0.54669   0.54904   0.55267   0.55456
  Beta virt. eigenvalues --    0.55666   0.56009   0.56392   0.56571   0.56955
  Beta virt. eigenvalues --    0.57275   0.57783   0.58008   0.58316   0.58513
  Beta virt. eigenvalues --    0.58707   0.59124   0.59568   0.60003   0.60379
  Beta virt. eigenvalues --    0.60676   0.61133   0.61416   0.61616   0.61818
  Beta virt. eigenvalues --    0.61890   0.62307   0.62587   0.62823   0.63323
  Beta virt. eigenvalues --    0.63380   0.63661   0.64042   0.64733   0.64984
  Beta virt. eigenvalues --    0.65579   0.65923   0.66169   0.66422   0.66763
  Beta virt. eigenvalues --    0.67582   0.67833   0.68009   0.68553   0.68730
  Beta virt. eigenvalues --    0.69174   0.69569   0.69877   0.70847   0.71458
  Beta virt. eigenvalues --    0.71954   0.72329   0.72542   0.72862   0.73322
  Beta virt. eigenvalues --    0.73743   0.74238   0.74315   0.74799   0.75455
  Beta virt. eigenvalues --    0.76118   0.76285   0.76763   0.77067   0.77340
  Beta virt. eigenvalues --    0.78118   0.78338   0.79039   0.79173   0.79505
  Beta virt. eigenvalues --    0.79923   0.80619   0.81019   0.81633   0.81688
  Beta virt. eigenvalues --    0.82279   0.82654   0.82873   0.83648   0.84285
  Beta virt. eigenvalues --    0.84528   0.84645   0.85008   0.85618   0.85846
  Beta virt. eigenvalues --    0.86013   0.86602   0.86776   0.87353   0.87696
  Beta virt. eigenvalues --    0.87880   0.88443   0.88561   0.88695   0.89352
  Beta virt. eigenvalues --    0.89861   0.90435   0.90588   0.90922   0.91257
  Beta virt. eigenvalues --    0.91668   0.91946   0.92341   0.92509   0.92964
  Beta virt. eigenvalues --    0.93412   0.93674   0.93924   0.93953   0.94777
  Beta virt. eigenvalues --    0.95066   0.95589   0.96526   0.96625   0.96883
  Beta virt. eigenvalues --    0.97312   0.97331   0.97811   0.98331   0.98830
  Beta virt. eigenvalues --    0.99460   0.99712   1.00423   1.00600   1.00944
  Beta virt. eigenvalues --    1.01782   1.02494   1.03006   1.04184   1.04808
  Beta virt. eigenvalues --    1.05087   1.05595   1.05997   1.06608   1.07023
  Beta virt. eigenvalues --    1.07785   1.08075   1.08661   1.08704   1.09398
  Beta virt. eigenvalues --    1.09525   1.09824   1.10228   1.10984   1.11504
  Beta virt. eigenvalues --    1.11712   1.12146   1.12601   1.12983   1.14041
  Beta virt. eigenvalues --    1.14528   1.14935   1.15015   1.15543   1.15640
  Beta virt. eigenvalues --    1.15994   1.16132   1.16565   1.17138   1.17579
  Beta virt. eigenvalues --    1.18044   1.18537   1.18559   1.19238   1.19409
  Beta virt. eigenvalues --    1.19745   1.20359   1.20866   1.21352   1.22348
  Beta virt. eigenvalues --    1.22711   1.23394   1.24285   1.24919   1.25622
  Beta virt. eigenvalues --    1.26491   1.26982   1.27412   1.28097   1.28587
  Beta virt. eigenvalues --    1.29350   1.30130   1.30743   1.31136   1.31430
  Beta virt. eigenvalues --    1.32362   1.32615   1.33490   1.33673   1.34405
  Beta virt. eigenvalues --    1.34596   1.34683   1.35172   1.36109   1.36483
  Beta virt. eigenvalues --    1.36833   1.37619   1.37696   1.37907   1.38067
  Beta virt. eigenvalues --    1.38968   1.39242   1.39910   1.40302   1.40906
  Beta virt. eigenvalues --    1.41155   1.41325   1.41440   1.42127   1.42342
  Beta virt. eigenvalues --    1.42761   1.42960   1.43473   1.43710   1.44332
  Beta virt. eigenvalues --    1.44424   1.44604   1.44912   1.45096   1.45148
  Beta virt. eigenvalues --    1.45562   1.45957   1.46111   1.46200   1.46563
  Beta virt. eigenvalues --    1.46656   1.46806   1.47035   1.47622   1.48269
  Beta virt. eigenvalues --    1.48436   1.48731   1.49078   1.49574   1.49756
  Beta virt. eigenvalues --    1.49939   1.50347   1.50779   1.51113   1.51526
  Beta virt. eigenvalues --    1.51907   1.51958   1.52311   1.53004   1.53193
  Beta virt. eigenvalues --    1.53404   1.53901   1.54007   1.54387   1.54461
  Beta virt. eigenvalues --    1.55200   1.55415   1.55487   1.55802   1.56298
  Beta virt. eigenvalues --    1.56712   1.57201   1.57411   1.57663   1.58087
  Beta virt. eigenvalues --    1.58789   1.58980   1.59045   1.59476   1.59823
  Beta virt. eigenvalues --    1.60258   1.60410   1.60926   1.61438   1.61642
  Beta virt. eigenvalues --    1.62221   1.62432   1.62982   1.63279   1.64086
  Beta virt. eigenvalues --    1.64813   1.65229   1.65851   1.66562   1.67095
  Beta virt. eigenvalues --    1.67371   1.68485   1.68638   1.68990   1.70013
  Beta virt. eigenvalues --    1.70297   1.70900   1.71096   1.71542   1.71809
  Beta virt. eigenvalues --    1.72176   1.72710   1.73040   1.73372   1.74051
  Beta virt. eigenvalues --    1.75332   1.75824   1.75978   1.76897   1.77353
  Beta virt. eigenvalues --    1.77651   1.78160   1.78323   1.78650   1.79336
  Beta virt. eigenvalues --    1.79926   1.80279   1.81159   1.81568   1.81815
  Beta virt. eigenvalues --    1.83015   1.83423   1.83538   1.84330   1.84865
  Beta virt. eigenvalues --    1.85583   1.86083   1.86606   1.87333   1.87634
  Beta virt. eigenvalues --    1.87918   1.88562   1.88743   1.89157   1.89360
  Beta virt. eigenvalues --    1.90356   1.90427   1.90961   1.91544   1.92298
  Beta virt. eigenvalues --    1.92641   1.92922   1.93376   1.94269   1.94683
  Beta virt. eigenvalues --    1.95123   1.95775   1.95917   1.96991   1.97184
  Beta virt. eigenvalues --    1.97510   1.98106   1.98975   1.99326   1.99998
  Beta virt. eigenvalues --    2.00023   2.00609   2.02034   2.02433   2.02484
  Beta virt. eigenvalues --    2.03002   2.03515   2.03897   2.04105   2.04380
  Beta virt. eigenvalues --    2.04870   2.05813   2.06311   2.07368   2.07537
  Beta virt. eigenvalues --    2.08369   2.09215   2.09358   2.10013   2.10574
  Beta virt. eigenvalues --    2.11080   2.11275   2.12295   2.12929   2.13179
  Beta virt. eigenvalues --    2.13882   2.15148   2.15290   2.15542   2.15787
  Beta virt. eigenvalues --    2.16520   2.16731   2.17114   2.17564   2.18434
  Beta virt. eigenvalues --    2.19277   2.19587   2.19742   2.20270   2.20531
  Beta virt. eigenvalues --    2.21261   2.21781   2.22115   2.23239   2.24110
  Beta virt. eigenvalues --    2.24377   2.24628   2.25199   2.25829   2.26234
  Beta virt. eigenvalues --    2.26323   2.26778   2.27049   2.27070   2.27667
  Beta virt. eigenvalues --    2.28017   2.28286   2.28875   2.29433   2.29634
  Beta virt. eigenvalues --    2.29918   2.30193   2.31258   2.31478   2.32413
  Beta virt. eigenvalues --    2.32602   2.33127   2.33364   2.34298   2.34371
  Beta virt. eigenvalues --    2.34718   2.35335   2.35637   2.35768   2.36227
  Beta virt. eigenvalues --    2.37056   2.37871   2.38380   2.39459   2.39764
  Beta virt. eigenvalues --    2.40190   2.41258   2.41557   2.41870   2.42485
  Beta virt. eigenvalues --    2.43117   2.43303   2.43906   2.44280   2.44848
  Beta virt. eigenvalues --    2.45157   2.45558   2.45569   2.45808   2.46148
  Beta virt. eigenvalues --    2.46395   2.46757   2.47544   2.47890   2.48247
  Beta virt. eigenvalues --    2.48493   2.48963   2.49448   2.49585   2.49942
  Beta virt. eigenvalues --    2.50184   2.50488   2.51009   2.51984   2.52160
  Beta virt. eigenvalues --    2.52616   2.52805   2.53592   2.54229   2.54680
  Beta virt. eigenvalues --    2.55074   2.55600   2.56020   2.56458   2.57000
  Beta virt. eigenvalues --    2.57534   2.57802   2.57856   2.58475   2.58992
  Beta virt. eigenvalues --    2.59175   2.59687   2.59748   2.61306   2.61988
  Beta virt. eigenvalues --    2.62416   2.62636   2.63318   2.63980   2.64200
  Beta virt. eigenvalues --    2.64515   2.64679   2.65449   2.66449   2.66596
  Beta virt. eigenvalues --    2.67061   2.67583   2.67935   2.68361   2.68761
  Beta virt. eigenvalues --    2.69344   2.70232   2.70714   2.71315   2.71561
  Beta virt. eigenvalues --    2.71937   2.72369   2.72595   2.72956   2.73734
  Beta virt. eigenvalues --    2.74505   2.74676   2.74895   2.75352   2.75826
  Beta virt. eigenvalues --    2.76241   2.76380   2.76893   2.77551   2.77842
  Beta virt. eigenvalues --    2.78277   2.78517   2.78911   2.79499   2.80048
  Beta virt. eigenvalues --    2.80635   2.81142   2.81743   2.81919   2.82438
  Beta virt. eigenvalues --    2.82774   2.83465   2.83574   2.84320   2.84592
  Beta virt. eigenvalues --    2.85008   2.85420   2.85976   2.86249   2.87083
  Beta virt. eigenvalues --    2.87626   2.88271   2.88355   2.89100   2.89727
  Beta virt. eigenvalues --    2.89860   2.90361   2.91107   2.91861   2.92177
  Beta virt. eigenvalues --    2.92423   2.92919   2.93152   2.93464   2.94287
  Beta virt. eigenvalues --    2.94863   2.95132   2.95381   2.95924   2.96612
  Beta virt. eigenvalues --    2.96669   2.97026   2.97180   2.97557   2.98003
  Beta virt. eigenvalues --    2.98631   2.98928   2.99014   2.99547   2.99613
  Beta virt. eigenvalues --    3.00453   3.00877   3.00988   3.01103   3.01471
  Beta virt. eigenvalues --    3.01942   3.02095   3.02523   3.02811   3.03460
  Beta virt. eigenvalues --    3.04042   3.04141   3.04620   3.04856   3.05578
  Beta virt. eigenvalues --    3.05648   3.06482   3.06656   3.06912   3.07353
  Beta virt. eigenvalues --    3.07776   3.07943   3.08163   3.08702   3.09210
  Beta virt. eigenvalues --    3.09441   3.09756   3.09908   3.10285   3.10478
  Beta virt. eigenvalues --    3.10895   3.11251   3.11493   3.12486   3.12678
  Beta virt. eigenvalues --    3.12890   3.13367   3.13533   3.14068   3.14215
  Beta virt. eigenvalues --    3.14549   3.15098   3.15478   3.15722   3.15823
  Beta virt. eigenvalues --    3.16117   3.16448   3.16884   3.17676   3.18121
  Beta virt. eigenvalues --    3.18377   3.19085   3.19112   3.19588   3.19771
  Beta virt. eigenvalues --    3.20016   3.20195   3.20244   3.20930   3.21052
  Beta virt. eigenvalues --    3.21223   3.21670   3.21816   3.22103   3.22343
  Beta virt. eigenvalues --    3.22516   3.22859   3.23009   3.23237   3.23773
  Beta virt. eigenvalues --    3.23994   3.24150   3.24456   3.24629   3.25095
  Beta virt. eigenvalues --    3.25369   3.25791   3.26109   3.26348   3.26803
  Beta virt. eigenvalues --    3.27175   3.27307   3.27522   3.27715   3.27757
  Beta virt. eigenvalues --    3.28248   3.28933   3.29113   3.29192   3.29596
  Beta virt. eigenvalues --    3.30092   3.30630   3.30807   3.31265   3.31882
  Beta virt. eigenvalues --    3.32557   3.32997   3.33298   3.33424   3.33905
  Beta virt. eigenvalues --    3.34007   3.35193   3.35661   3.36007   3.36330
  Beta virt. eigenvalues --    3.36806   3.37047   3.37741   3.38240   3.38965
  Beta virt. eigenvalues --    3.39357   3.39387   3.40994   3.41160   3.41604
  Beta virt. eigenvalues --    3.42741   3.43250   3.43561   3.44201   3.44555
  Beta virt. eigenvalues --    3.44960   3.45721   3.46092   3.46691   3.47065
  Beta virt. eigenvalues --    3.47893   3.48330   3.48851   3.49221   3.49749
  Beta virt. eigenvalues --    3.50303   3.50730   3.51343   3.51787   3.52150
  Beta virt. eigenvalues --    3.52595   3.53247   3.54436   3.54678   3.55127
  Beta virt. eigenvalues --    3.55569   3.55895   3.57228   3.58041   3.58201
  Beta virt. eigenvalues --    3.58878   3.59450   3.59594   3.60049   3.60832
  Beta virt. eigenvalues --    3.61122   3.61170   3.61476   3.61882   3.62584
  Beta virt. eigenvalues --    3.62949   3.63228   3.63460   3.63979   3.64271
  Beta virt. eigenvalues --    3.64807   3.65050   3.66450   3.66942   3.67584
  Beta virt. eigenvalues --    3.68318   3.68933   3.69857   3.70445   3.71414
  Beta virt. eigenvalues --    3.72258   3.72772   3.73118   3.73589   3.74089
  Beta virt. eigenvalues --    3.74423   3.74637   3.75215   3.75982   3.76986
  Beta virt. eigenvalues --    3.77388   3.78394   3.78440   3.79042   3.80682
  Beta virt. eigenvalues --    3.81585   3.81647   3.82528   3.82686   3.83642
  Beta virt. eigenvalues --    3.84602   3.85591   3.85893   3.86626   3.86990
  Beta virt. eigenvalues --    3.88228   3.88760   3.89145   3.89465   3.90452
  Beta virt. eigenvalues --    3.90656   3.91759   3.92044   3.92619   3.92969
  Beta virt. eigenvalues --    3.93624   3.94125   3.94746   3.95465   3.96429
  Beta virt. eigenvalues --    3.97612   3.98839   3.99351   3.99789   4.00178
  Beta virt. eigenvalues --    4.00548   4.01788   4.02514   4.02743   4.03643
  Beta virt. eigenvalues --    4.04182   4.04858   4.05909   4.06103   4.06824
  Beta virt. eigenvalues --    4.07515   4.08129   4.08492   4.08825   4.09779
  Beta virt. eigenvalues --    4.10432   4.11315   4.11522   4.11946   4.12624
  Beta virt. eigenvalues --    4.13337   4.14287   4.14714   4.15395   4.15843
  Beta virt. eigenvalues --    4.16877   4.17172   4.17670   4.18148   4.19205
  Beta virt. eigenvalues --    4.19408   4.19757   4.20530   4.21092   4.22104
  Beta virt. eigenvalues --    4.22768   4.23149   4.24062   4.24376   4.24979
  Beta virt. eigenvalues --    4.26372   4.27390   4.28160   4.28511   4.29168
  Beta virt. eigenvalues --    4.29528   4.29751   4.30313   4.31296   4.31844
  Beta virt. eigenvalues --    4.32561   4.32676   4.32998   4.33554   4.33993
  Beta virt. eigenvalues --    4.34617   4.35181   4.35591   4.36666   4.37536
  Beta virt. eigenvalues --    4.39211   4.39686   4.40325   4.41481   4.42005
  Beta virt. eigenvalues --    4.43533   4.43937   4.44696   4.45754   4.45946
  Beta virt. eigenvalues --    4.47827   4.49159   4.50856   4.51590   4.52140
  Beta virt. eigenvalues --    4.53245   4.54173   4.55161   4.55761   4.56562
  Beta virt. eigenvalues --    4.56989   4.58628   4.59646   4.60415   4.62589
  Beta virt. eigenvalues --    4.63304   4.63638   4.64718   4.65888   4.66506
  Beta virt. eigenvalues --    4.67195   4.68537   4.69761   4.70502   4.71761
  Beta virt. eigenvalues --    4.71997   4.72625   4.72780   4.73603   4.74157
  Beta virt. eigenvalues --    4.75808   4.76027   4.77436   4.79332   4.80228
  Beta virt. eigenvalues --    4.80824   4.81195   4.81914   4.83675   4.84113
  Beta virt. eigenvalues --    4.85195   4.87402   4.88048   4.90034   4.90909
  Beta virt. eigenvalues --    4.91092   4.91947   4.93348   4.94221   4.95139
  Beta virt. eigenvalues --    4.95844   4.96693   4.98108   4.98801   5.00286
  Beta virt. eigenvalues --    5.04134   5.05794   5.05991   5.07521   5.07902
  Beta virt. eigenvalues --    5.08627   5.10169   5.10374   5.11117   5.11474
  Beta virt. eigenvalues --    5.14001   5.14943   5.21906   5.22192   5.23879
  Beta virt. eigenvalues --    5.24642   5.25071   5.25382   5.26089   5.26773
  Beta virt. eigenvalues --    5.29027   5.34765   5.35542   5.35728   5.36508
  Beta virt. eigenvalues --    5.37831   5.38396   5.40133   5.44390   5.45737
  Beta virt. eigenvalues --    5.47867   5.49632   5.50123   5.52331   5.53408
  Beta virt. eigenvalues --    5.54320   5.55975   5.60786   5.61528   5.62861
  Beta virt. eigenvalues --    5.64166   5.64793   5.72696   5.73748   5.76943
  Beta virt. eigenvalues --    5.85577   5.87400   5.88642   5.94062   5.95567
  Beta virt. eigenvalues --    5.97784   5.98972   6.04149   6.11875   6.19662
  Beta virt. eigenvalues --    6.20251   6.27087   8.90943   9.06015   9.26060
  Beta virt. eigenvalues --   19.36375  22.18234  22.23952  22.26163  22.36110
  Beta virt. eigenvalues --   22.36648  22.43045  22.44384  22.52815  22.53131
  Beta virt. eigenvalues --   22.68839  22.74791  22.77631  22.79671  22.80685
  Beta virt. eigenvalues --   22.82377  22.83112  22.88828  22.90266  22.99022
  Beta virt. eigenvalues --   23.12344  23.16287  23.18531  23.23679  23.29847
  Beta virt. eigenvalues --   23.38418  23.39561  23.44287  23.60353  23.64629
  Beta virt. eigenvalues --   23.66383  23.74692  32.67871  32.72667  32.75465
  Beta virt. eigenvalues --   32.88433
          Condensed to atoms (all electrons):
          Atomic-Atomic Spin Densities.
 Mulliken charges and spin densities:
               1          2
     1  Fe  -0.231511   1.645363
     2  N   -0.097381  -0.124075
     3  N   -0.004026  -0.119236
     4  N   -0.094018  -0.124248
     5  N   -0.011752  -0.141654
     6  C    0.237905   0.038126
     7  C   -0.035208   0.018702
     8  C   -0.036849   0.015547
     9  C    0.236611   0.047442
    10  C    0.244360   0.037455
    11  C   -0.030725   0.001672
    12  C    0.028603   0.002395
    13  C    0.261858   0.042356
    14  C    0.271848   0.042144
    15  C   -0.164177   0.016615
    16  C    0.194726   0.016989
    17  C    0.125802   0.045386
    18  C    0.217672   0.043838
    19  C   -0.036275   0.004284
    20  C   -0.041878   0.004579
    21  C    0.247499   0.047663
    22  C   -0.395720  -0.122875
    23  H    0.174118   0.005581
    24  C   -0.426993  -0.133616
    25  H    0.164940   0.006262
    26  C   -0.414524  -0.126593
    27  H    0.149638   0.005751
    28  C   -0.312364  -0.122123
    29  H    0.201129   0.006005
    30  C   -0.400356  -0.001644
    31  H    0.139744  -0.000087
    32  H    0.155721   0.000950
    33  H    0.145321   0.000971
    34  C   -0.400716  -0.001939
    35  H    0.147867   0.001106
    36  H    0.154328   0.001078
    37  H    0.139461  -0.000063
    38  C   -0.441527  -0.000568
    39  H    0.157654   0.000418
    40  H    0.141488  -0.000016
    41  H    0.175424  -0.000117
    42  C   -0.197590  -0.002960
    43  H    0.124624   0.000096
    44  C   -0.272876   0.004593
    45  H    0.153231  -0.000202
    46  H    0.149431  -0.000210
    47  C   -0.372536  -0.001590
    48  H    0.145894   0.000785
    49  H    0.158135   0.001295
    50  H    0.141513  -0.000046
    51  C   -0.222385  -0.008735
    52  H    0.138276   0.000535
    53  C   -0.296767   0.013108
    54  H    0.154898  -0.000463
    55  H    0.150684  -0.000666
    56  C   -0.398478  -0.000703
    57  H    0.149431   0.000277
    58  H    0.152377   0.000360
    59  H    0.138242  -0.000095
    60  C   -0.398879  -0.000735
    61  H    0.143802   0.000429
    62  H    0.139622  -0.000105
    63  H    0.153169   0.000426
    64  C   -0.343533   0.007348
    65  H    0.162524   0.000080
    66  H    0.175112  -0.000222
    67  H    0.190346  -0.001937
    68  S    0.047216  -0.092903
    69  H    0.196796   0.002414
 Sum of Mulliken charges =   1.00000   1.00000
 Mulliken charges and spin densities with hydrogens summed into heavy atoms:
               1          2
     1  Fe  -0.231511   1.645363
     2  N   -0.097381  -0.124075
     3  N   -0.004026  -0.119236
     4  N   -0.094018  -0.124248
     5  N   -0.011752  -0.141654
     6  C    0.237905   0.038126
     7  C   -0.035208   0.018702
[...]
  1065. RY*(  14) C  51                  0.00000     1.45070   
  1066. RY*(  15) C  51                  0.00000     3.19389   
  1067. RY*(  16) C  51                  0.00000     1.25519   
  1068. RY*(  17) C  51                  0.00001     3.13669   
  1069. RY*(  18) C  51                  0.00001     1.56016   
  1070. RY*(  19) C  51                  0.00000     2.95770   
  1071. RY*(  20) C  51                  0.00000     3.37741   
  1072. RY*(  21) C  51                  0.00000     3.69525   
  1073. RY*(  22) C  51                  0.00000     3.29939   
  1074. RY*(  23) C  51                  0.00000     3.70770   
  1075. RY*(  24) C  51                  0.00000     3.50902   
  1076. RY*(  25) C  51                  0.00000     3.78129   
  1077. RY*(  26) C  51                  0.00000     3.74975   
  1078. RY*(   1) H  52                  0.00068     0.59329   
  1079. RY*(   2) H  52                  0.00010     2.17822   
  1080. RY*(   3) H  52                  0.00007     2.12829   
  1081. RY*(   4) H  52                  0.00005     2.68801   
  1082. RY*(   5) H  52                  0.00000     3.00659   
  1083. RY*(   1) C  53                  0.00112     1.18994   
  1084. RY*(   2) C  53                  0.00066     0.95370   
  1085. RY*(   3) C  53                  0.00033     0.47132   
  1086. RY*(   4) C  53                  0.00009     1.02001   
  1087. RY*(   5) C  53                  0.00006     0.95471   
  1088. RY*(   6) C  53                  0.00002     1.30469   
  1089. RY*(   7) C  53                  0.00001     1.74583   
  1090. RY*(   8) C  53                  0.00001     1.41812   
  1091. RY*(   9) C  53                  0.00000     1.75082   
  1092. RY*(  10) C  53                  0.00000     1.97122   
  1093. RY*(  11) C  53                  0.00000     3.13793   
  1094. RY*(  12) C  53                  0.00000     1.41920   
  1095. RY*(  13) C  53                  0.00001     1.58621   
  1096. RY*(  14) C  53                  0.00000    20.99029   
  1097. RY*(  15) C  53                  0.00000     2.95984   
  1098. RY*(  16) C  53                  0.00000     2.79630   
  1099. RY*(  17) C  53                  0.00000     2.69983   
  1100. RY*(  18) C  53                  0.00001     1.37728   
  1101. RY*(  19) C  53                  0.00000     2.76740   
  1102. RY*(  20) C  53                  0.00000     3.35937   
  1103. RY*(  21) C  53                  0.00000     3.48801   
  1104. RY*(  22) C  53                  0.00000     3.31777   
  1105. RY*(  23) C  53                  0.00000     3.64265   
  1106. RY*(  24) C  53                  0.00000     3.34616   
  1107. RY*(  25) C  53                  0.00000     3.31947   
  1108. RY*(  26) C  53                  0.00000     3.56215   
  1109. RY*(   1) H  54                  0.00033     1.17448   
  1110. RY*(   2) H  54                  0.00013     1.45101   
  1111. RY*(   3) H  54                  0.00009     2.09407   
  1112. RY*(   4) H  54                  0.00003     2.22621   
  1113. RY*(   5) H  54                  0.00000     3.01086   
  1114. RY*(   1) H  55                  0.00017     1.10387   
  1115. RY*(   2) H  55                  0.00014     1.36604   
  1116. RY*(   3) H  55                  0.00008     2.03022   
  1117. RY*(   4) H  55                  0.00002     2.37044   
  1118. RY*(   5) H  55                  0.00000     2.99267   
  1119. RY*(   1) C  56                  0.00061     0.81694   
  1120. RY*(   2) C  56                  0.00059     1.02636   
  1121. RY*(   3) C  56                  0.00040     1.57122   
  1122. RY*(   4) C  56                  0.00012     1.08156   
  1123. RY*(   5) C  56                  0.00006     1.13552   
  1124. RY*(   6) C  56                  0.00005     1.12659   
  1125. RY*(   7) C  56                  0.00001     1.48143   
  1126. RY*(   8) C  56                  0.00002     1.15408   
  1127. RY*(   9) C  56                  0.00001     1.48579   
  1128. RY*(  10) C  56                  0.00000     1.68616   
  1129. RY*(  11) C  56                  0.00000     3.18253   
  1130. RY*(  12) C  56                  0.00000     1.48470   
  1131. RY*(  13) C  56                  0.00000     2.72365   
  1132. RY*(  14) C  56                  0.00001     2.36877   
  1133. RY*(  15) C  56                  0.00000     2.99987   
  1134. RY*(  16) C  56                  0.00000    21.48222   
  1135. RY*(  17) C  56                  0.00000     3.09679   
  1136. RY*(  18) C  56                  0.00001     1.57726   
  1137. RY*(  19) C  56                  0.00000     2.95294   
  1138. RY*(  20) C  56                  0.00000     3.25515   
  1139. RY*(  21) C  56                  0.00000     3.43372   
  1140. RY*(  22) C  56                  0.00000     3.56284   
  1141. RY*(  23) C  56                  0.00000     3.45456   
  1142. RY*(  24) C  56                  0.00000     3.34574   
  1143. RY*(  25) C  56                  0.00000     3.73945   
  1144. RY*(  26) C  56                  0.00000     3.54392   
  1145. RY*(   1) H  57                  0.00029     0.85243   
  1146. RY*(   2) H  57                  0.00011     1.71116   
  1147. RY*(   3) H  57                  0.00005     2.10935   
  1148. RY*(   4) H  57                  0.00003     2.32349   
  1149. RY*(   5) H  57                  0.00001     2.93377   
  1150. RY*(   1) H  58                  0.00035     0.85213   
  1151. RY*(   2) H  58                  0.00010     1.68242   
  1152. RY*(   3) H  58                  0.00005     2.12711   
  1153. RY*(   4) H  58                  0.00003     2.28380   
  1154. RY*(   5) H  58                  0.00001     2.93986   
  1155. RY*(   1) H  59                  0.00031     0.79619   
  1156. RY*(   2) H  59                  0.00008     1.94652   
  1157. RY*(   3) H  59                  0.00005     2.10669   
  1158. RY*(   4) H  59                  0.00003     2.20862   
  1159. RY*(   5) H  59                  0.00000     2.94445   
  1160. RY*(   1) C  60                  0.00060     1.01884   
  1161. RY*(   2) C  60                  0.00061     0.82510   
  1162. RY*(   3) C  60                  0.00040     1.56973   
  1163. RY*(   4) C  60                  0.00012     1.09374   
  1164. RY*(   5) C  60                  0.00005     1.13015   
  1165. RY*(   6) C  60                  0.00005     1.12088   
  1166. RY*(   7) C  60                  0.00002     2.16266   
  1167. RY*(   8) C  60                  0.00001     1.51022   
  1168. RY*(   9) C  60                  0.00001     1.88622   
  1169. RY*(  10) C  60                  0.00000     1.61531   
  1170. RY*(  11) C  60                  0.00000     2.90329   
  1171. RY*(  12) C  60                  0.00001     2.15357   
  1172. RY*(  13) C  60                  0.00000     3.04974   
  1173. RY*(  14) C  60                  0.00000     1.36436   
  1174. RY*(  15) C  60                  0.00000     2.70270   
  1175. RY*(  16) C  60                  0.00000    21.45168   
  1176. RY*(  17) C  60                  0.00001     2.32971   
  1177. RY*(  18) C  60                  0.00001     1.59002   
  1178. RY*(  19) C  60                  0.00000     2.86614   
  1179. RY*(  20) C  60                  0.00000     3.16031   
  1180. RY*(  21) C  60                  0.00000     3.45874   
  1181. RY*(  22) C  60                  0.00000     3.68873   
  1182. RY*(  23) C  60                  0.00000     3.32557   
  1183. RY*(  24) C  60                  0.00000     3.42118   
  1184. RY*(  25) C  60                  0.00000     3.62891   
  1185. RY*(  26) C  60                  0.00000     3.69238   
  1186. RY*(   1) H  61                  0.00031     0.81832   
  1187. RY*(   2) H  61                  0.00011     1.72201   
  1188. RY*(   3) H  61                  0.00005     2.11766   
  1189. RY*(   4) H  61                  0.00003     2.31239   
  1190. RY*(   5) H  61                  0.00001     2.93177   
  1191. RY*(   1) H  62                  0.00031     0.79737   
  1192. RY*(   2) H  62                  0.00008     1.94882   
  1193. RY*(   3) H  62                  0.00005     2.10523   
  1194. RY*(   4) H  62                  0.00004     2.20261   
  1195. RY*(   5) H  62                  0.00000     2.94747   
  1196. RY*(   1) H  63                  0.00034     0.83953   
  1197. RY*(   2) H  63                  0.00011     1.68308   
  1198. RY*(   3) H  63                  0.00005     2.12165   
  1199. RY*(   4) H  63                  0.00003     2.29166   
  1200. RY*(   5) H  63                  0.00001     2.93660   
  1276. BD*(   1) N   2 - C   6          0.01339     0.37407   
  1277. BD*(   2) N   2 - C   6          0.33069    -0.12233  1322(v),1290(v),1295(v)
                                                    283(g),143(r),179(g),142(r)
                                                    697(v),138(r),140(r),139(r)
                                                    1275(r)
  1278. BD*(   1) N   2 - C   9          0.01366     0.36744   
  1279. BD*(   1) N   3 - C  10          0.01394     0.36974   
  1280. BD*(   2) N   3 - C  10          0.32653    -0.12353  1295(v),1299(v),1304(v)
                                                    387(g),143(r),203(g),728(v)
                                                    207(g),138(r),139(r),141(r)
                                                    1275(r)
  1281. BD*(   1) N   3 - C  13          0.01350     0.36679   
  1282. BD*(   1) N   4 - C  14          0.01403     0.36691   
  1283. BD*(   1) N   4 - C  17          0.01311     0.37528   
  1284. BD*(   1) N   5 - C  18          0.01399     0.37386   
  1285. BD*(   2) N   5 - C  18          0.32176    -0.11822  1313(v),1322(v),1317(v)
                                                    595(g),143(r),255(g),1275(r)
                                                    139(r),1359(r),162(r)
  1286. BD*(   1) N   5 - C  21          0.01353     0.37399   
  1287. BD*(   1) C   6 - C   7          0.01746     0.37113   
  1288. BD*(   1) C   6 - C  22          0.01036     0.45325   
  1289. BD*(   1) C   7 - C   8          0.01162     0.49315   
  1290. BD*(   2) C   7 - C   8          0.11826    -0.04415  1295(v),1277(v),1331(v)
                                                    1329(v),1328(v),1330(v)
  1291. BD*(   1) C   7 - C  34          0.00802     0.30921   
  1292. BD*(   1) C   8 - C   9          0.01748     0.37190   
  1293. BD*(   1) C   8 - C  30          0.00804     0.30862   
  1294. BD*(   1) C   9 - C  24          0.01020     0.45371   
  1295. BD*(   2) C   9 - C  24          0.19969    -0.07949  1280(v),1290(v),1277(v)
                                                    1304(r),728(g),1322(r)
                                                    363(g),143(r)
  1296. BD*(   1) C  10 - C  11          0.01694     0.38183   
  1297. BD*(   1) C  10 - C  24          0.01053     0.44741   
  1298. BD*(   1) C  11 - C  12          0.01268     0.47834   
  1299. BD*(   2) C  11 - C  12          0.13485    -0.04681  1338(v),1304(v),1280(v)
                                                    1333(v),1334(v)
  1300. BD*(   1) C  11 - C  38          0.00769     0.31236   
  1301. BD*(   1) C  12 - C  13          0.01706     0.37013   
  1302. BD*(   1) C  12 - C  42          0.01333     0.39018   
  1303. BD*(   1) C  13 - C  26          0.01023     0.45225   
  1304. BD*(   2) C  13 - C  26          0.20098    -0.07908  10(v),1299(v),1280(v)
                                                    1295(r),759(g),1313(r)
                                                    465(g),467(g),143(r)
  1305. BD*(   1) C  14 - C  15          0.01688     0.37992   
  1306. BD*(   1) C  14 - C  26          0.01051     0.44949   
  1307. BD*(   1) C  15 - C  16          0.01121     0.47691   
  1308. BD*(   2) C  15 - C  16          0.13600    -0.04834  1346(v),1313(v),10(v)
                                                    1342(v),1341(v),1344(v)
  1309. BD*(   1) C  15 - C  47          0.00775     0.30937   
  1310. BD*(   1) C  16 - C  17          0.01847     0.36509   
  1311. BD*(   1) C  16 - C  51          0.01314     0.38840   
  1312. BD*(   1) C  17 - C  28          0.01010     0.45049   
  1313. BD*(   2) C  17 - C  28          0.19866    -0.07658  1285(v),1308(v),10(v)
                                                    1322(r),1304(r),791(g)
                                                    1346(r),143(r)
  1314. BD*(   1) C  18 - C  19          0.01750     0.37303   
  1315. BD*(   1) C  18 - C  28          0.01058     0.45764   
  1316. BD*(   1) C  19 - C  20          0.01153     0.50045   
  1317. BD*(   2) C  19 - C  20          0.11162    -0.03821  1322(v),1285(v),1350(v)
                                                    1354(v),1352(v),1349(v)
  1318. BD*(   1) C  19 - C  56          0.00798     0.31483   
  1319. BD*(   1) C  20 - C  21          0.01767     0.37180   
  1320. BD*(   1) C  20 - C  60          0.00804     0.31349   
  1321. BD*(   1) C  21 - C  22          0.01024     0.45521   
  1322. BD*(   2) C  21 - C  22          0.19978    -0.07555  1277(v),1317(v),1285(v)
                                                    1313(r),697(g),1295(r)
                                                    143(r)
  1323. BD*(   1) C  22 - H  23          0.00597     0.31654   
  1324. BD*(   1) C  24 - H  25          0.00610     0.31706   
  1325. BD*(   1) C  26 - H  27          0.00624     0.31659   
  1326. BD*(   1) C  28 - H  29          0.00684     0.32465   
  1327. BD*(   1) C  30 - H  31          0.00298     0.29620   
  1328. BD*(   1) C  30 - H  32          0.00438     0.28359   
  1329. BD*(   1) C  30 - H  33          0.00439     0.28116   
  1330. BD*(   1) C  34 - H  35          0.00432     0.28221   
  1331. BD*(   1) C  34 - H  36          0.00440     0.28399   
  1332. BD*(   1) C  34 - H  37          0.00299     0.29632   
  1333. BD*(   1) C  38 - H  39          0.00539     0.28188   
  1334. BD*(   1) C  38 - H  40          0.00434     0.28957   
  1335. BD*(   1) C  38 - H  41          0.00375     0.29956   
  1336. BD*(   1) C  42 - H  43          0.01030     0.32598   
  1337. BD*(   1) C  42 - C  44          0.00364     0.53489   
  1338. BD*(   2) C  42 - C  44          0.02939    -0.03677   
  1339. BD*(   1) C  44 - H  45          0.00510     0.34168   
  1340. BD*(   1) C  44 - H  46          0.00381     0.34785   
  1341. BD*(   1) C  47 - H  48          0.00395     0.28331   
  1342. BD*(   1) C  47 - H  49          0.00468     0.28376   
  1343. BD*(   1) C  47 - H  50          0.00274     0.29656   
  1344. BD*(   1) C  51 - H  52          0.01029     0.32667   
  1345. BD*(   1) C  51 - C  53          0.00338     0.52646   
  1346. BD*(   2) C  51 - C  53          0.02662    -0.03134   
  1347. BD*(   1) C  53 - H  54          0.00530     0.33839   
  1348. BD*(   1) C  53 - H  55          0.00391     0.34736   
  1349. BD*(   1) C  56 - H  57          0.00420     0.28975   
  1350. BD*(   1) C  56 - H  58          0.00482     0.28781   
  1351. BD*(   1) C  56 - H  59          0.00299     0.30102   
  1352. BD*(   1) C  60 - H  61          0.00436     0.28724   
  1353. BD*(   1) C  60 - H  62          0.00299     0.30064   
  1354. BD*(   1) C  60 - H  63          0.00478     0.28650   
       -------------------------------
              Total Lewis  114.69346  ( 97.0345%)
        Valence non-Lewis    3.27265  (  2.7688%)
        Rydberg non-Lewis    0.23258  (  0.1968%)
       -------------------------------
            Total unit  2  118.19868  (100.0000%)
           Charge unit  2   -0.19868
 Unable to Open any file for archive entry.
 1\1\GINC-BGN1019\SP\UAPFD\def2TZVP\C31H32Fe1N4S1(1+,2)\BECSLEIP\17-Sep
 -2024\0\\# apfd/def2TZVP guess=read scf=maxcycle=999 geom=check pop=nb
 o\\5cp4_III_D\\1,2\Fe,0,5.9114055828,5.8767947035,9.0636469867\N,0,6.6
 989216326,7.7334686247,9.1194405262\N,0,4.1154074637,6.6853831627,9.29
 26540882\N,0,5.192686282,4.0842180566,9.5536601988\N,0,7.7558522068,5.
 120054323,9.0818718265\C,0,8.0159106376,8.0679177225,9.0417732451\C,0,
 8.1889169838,9.5023996,9.0611835694\C,0,6.9427429197,10.035726099,9.16
 8116992\C,0,6.0273475646,8.9187325208,9.2100806637\C,0,3.7621302022,8.
 0020704484,9.3418108144\C,0,2.3330211236,8.1592522611,9.3347428458\C,0
 ,1.8077209951,6.8950306687,9.285731562\C,0,2.9392753923,5.9908810773,9
 .302617798\C,0,3.8768032697,3.7302990644,9.4853613374\C,0,3.7222829511
 ,2.3037649352,9.5615028405\C,0,4.971972983,1.7956716769,9.7964435004\C
 ,0,5.8776080862,2.9270129296,9.7600689584\C,0,8.1091490295,3.821402289
 ,9.2936279169\C,0,9.5420575835,3.6518864698,9.1836417139\C,0,10.057556
 7089,4.8943563187,8.9964846665\C,0,8.9289808182,5.7994909642,8.9508409
 415\C,0,9.0615337512,7.1724645735,8.9328311969\H,0,10.0594014965,7.576
 8369453,8.866419511\C,0,4.6578624509,9.0563458882,9.3044110708\H,0,4.2
 579796337,10.0571431297,9.3513746911\C,0,2.8219300903,4.6167506435,9.3
 701238631\H,0,1.8283293249,4.1978013745,9.335037899\C,0,7.2470434622,2
 .796356581,9.6266261952\H,0,7.6675663045,1.8117453128,9.7539007526\C,0
 ,6.5275386315,11.4643797447,9.2400917263\H,0,7.3927825394,12.120504323
 9,9.1918614568\H,0,5.9990788652,11.6621190867,10.1727664726\H,0,5.8612
 550013,11.7135219235,8.4137209858\C,0,9.5080955825,10.1896800366,8.986
 4576707\H,0,10.027401338,9.9249369924,8.0651956975\H,0,10.1387040893,9
 .8979949403,9.8263563317\H,0,9.3829059132,11.2692143889,9.0111795602\C
 ,0,1.617321263,9.4600918921,9.4338295585\H,0,1.5602107774,9.9503589077
 ,8.4603976222\H,0,2.1334540161,10.1303309002,10.1194314531\H,0,0.60456
 10262,9.3009875587,9.7980417445\C,0,0.420265855,6.4856121509,9.2773540
 196\H,0,0.1992062822,5.5626948916,9.7998331615\C,0,-0.5696392132,7.143
 5880672,8.6834808395\H,0,-0.401546284,8.0399879413,8.1122930187\H,0,-1
 .5860399693,6.7898182095,8.7278018012\C,0,2.4239038903,1.5791476077,9.
 4895448849\H,0,1.86646125,1.8766597979,8.6014890033\H,0,1.8116304576,1
 .8022083267,10.3642603664\H,0,2.5870094763,0.5050981072,9.4563471452\C
 ,0,5.321068025,0.4102390195,10.0268145828\H,0,4.7399398512,-0.31370228
 85,9.466595468\C,0,6.240982473,-0.019200526,10.883358693\H,0,6.8055294
 456,0.6581608888,11.5015947048\H,0,6.4421675585,-1.0691069966,11.01531
 1035\C,0,10.244608556,2.3462325956,9.3210112907\H,0,9.8278191023,1.615
 0116118,8.629178526\H,0,10.1346239468,1.9557232256,10.333084967\H,0,11
 .3055902838,2.4551671843,9.1106305344\C,0,11.4784760979,5.3174745181,8
 .8533591698\H,0,11.6210933206,5.8779789156,7.9296767422\H,0,12.1374819
 266,4.4532244363,8.8372970587\H,0,11.7731069899,5.9557757536,9.6868195
 06\C,0,5.5753454049,7.3253063804,6.0786595842\H,0,6.5917512254,7.70505
 39937,6.085309771\H,0,4.9439942162,7.9537644004,6.6981770662\H,0,5.202
 1641172,7.2674097287,5.0610147356\S,0,5.6502268486,5.6396311582,6.7896
 619473\H,0,4.3300728911,5.4196618399,6.6946819254\\Version=ES64L-G16Re
 vC.02\State=2-A\HF=-3080.5600274\S2=1.199185\S2-1=0.\S2A=0.786809\RMSD
 =4.899e-09\Dipole=0.0807495,0.5516037,-1.1921671\Quadrupole=13.8537785
 ,16.1849666,-30.0387451,0.5434798,2.5526849,-7.5326379\PG=C01 [X(C31H3
 2Fe1N4S1)]\\@
 The archive entry for this job was punched.


 AND HERE I AM, FOR ALL MY LORE,
 THE WRETCHED FOOL I WAS BEFORE.
 CALLED MASTER OF ARTS, AND DOCTOR TO BOOT,
 FOR TEN YEARS ALMOST I CONFUTE
 AND UP AND DOWN, WHEREVER IT GOES
 I DRAG MY STUDENTS BY THE NOSE --
 AND SEE THAT FOR ALL OUR SCIENCE AND ART
 WE CAN KNOW NOTHING.  IT BURNS MY HEART.

                                       -- FAUST
 Job cpu time:       1 days  9 hours 42 minutes 23.3 seconds.
 Elapsed time:       0 days  0 hours 31 minutes  3.8 seconds.
 File lengths (MBytes):  RWF=   1706 Int=      0 D2E=      0 Chk=    156 Scr=      1
 Normal termination of Gaussian 16 at Tue Sep 17 15:21:30 2024.
