 Entering Gaussian System, Link 0=g16
 Input=5d6m16.com
 Output=5d6m16.log
 Initial command:
 /sw/chem/gaussian/g16_C02/a100/g16/l1.exe "/local/becsleip_8023469/Gau-93909.inp" -scrdir="/local/becsleip_8023469/"
 Entering Link 1 = /sw/chem/gaussian/g16_C02/a100/g16/l1.exe PID=     93910.
  
 Copyright (c) 1988-2021, Gaussian, Inc.  All Rights Reserved.
  
 This is part of the Gaussian(R) 16 program.  It is based on
 the Gaussian(R) 09 system (copyright 2009, Gaussian, Inc.),
 the Gaussian(R) 03 system (copyright 2003, Gaussian, Inc.),
 the Gaussian(R) 98 system (copyright 1998, Gaussian, Inc.),
 the Gaussian(R) 94 system (copyright 1995, Gaussian, Inc.),
 the Gaussian 92(TM) system (copyright 1992, Gaussian, Inc.),
 the Gaussian 90(TM) system (copyright 1990, Gaussian, Inc.),
 the Gaussian 88(TM) system (copyright 1988, Gaussian, Inc.),
 the Gaussian 86(TM) system (copyright 1986, Carnegie Mellon
 University), and the Gaussian 82(TM) system (copyright 1983,
 Carnegie Mellon University). Gaussian is a federally registered
 trademark of Gaussian, Inc.
  
 This software contains proprietary and confidential information,
 including trade secrets, belonging to Gaussian, Inc.
  
 This software is provided under written license and may be
 used, copied, transmitted, or stored only in accord with that
 written license.
  
 The following legend is applicable only to US Government
 contracts under FAR:
  
                    RESTRICTED RIGHTS LEGEND
  
 Use, reproduction and disclosure by the US Government is
 subject to restrictions as set forth in subparagraphs (a)
 and (c) of the Commercial Computer Software - Restricted
 Rights clause in FAR 52.227-19.
  
 Gaussian, Inc.
 340 Quinnipiac St., Bldg. 40, Wallingford CT 06492
  
  
 ---------------------------------------------------------------
 Warning -- This program may not be used in any manner that
 competes with the business of Gaussian, Inc. or will provide
 assistance to any competitor of Gaussian, Inc.  The licensee
 of this program is prohibited from giving any competitor of
 Gaussian, Inc. access to this program.  By using this program,
 the user acknowledges that Gaussian, Inc. is engaged in the
 business of creating and licensing software in the field of
 computational chemistry and represents and warrants to the
 licensee that it is not a competitor of Gaussian, Inc. and that
 it will not use this program in any manner prohibited above.
 ---------------------------------------------------------------
  

 Cite this work as:
 Gaussian 16, Revision C.02,
 M. J. Frisch, G. W. Trucks, H. B. Schlegel, G. E. Scuseria, 
 M. A. Robb, J. R. Cheeseman, G. Scalmani, V. Barone, 
 G. A. Petersson, H. Nakatsuji, X. Li, M. Caricato, A. V. Marenich, 
 J. Bloino, B. G. Janesko, R. Gomperts, B. Mennucci, H. P. Hratchian, 
 J. V. Ortiz, A. F. Izmaylov, J. L. Sonnenberg, D. Williams-Young, 
 F. Ding, F. Lipparini, F. Egidi, J. Goings, B. Peng, A. Petrone, 
 T. Henderson, D. Ranasinghe, V. G. Zakrzewski, J. Gao, N. Rega, 
 G. Zheng, W. Liang, M. Hada, M. Ehara, K. Toyota, R. Fukuda, 
 J. Hasegawa, M. Ishida, T. Nakajima, Y. Honda, O. Kitao, H. Nakai, 
 T. Vreven, K. Throssell, J. A. Montgomery, Jr., J. E. Peralta, 
 F. Ogliaro, M. J. Bearpark, J. J. Heyd, E. N. Brothers, K. N. Kudin, 
 V. N. Staroverov, T. A. Keith, R. Kobayashi, J. Normand, 
 K. Raghavachari, A. P. Rendell, J. C. Burant, S. S. Iyengar, 
 J. Tomasi, M. Cossi, J. M. Millam, M. Klene, C. Adamo, R. Cammi, 
 J. W. Ochterski, R. L. Martin, K. Morokuma, O. Farkas, 
 J. B. Foresman, and D. J. Fox, Gaussian, Inc., Wallingford CT, 2019.
 
 ******************************************
 Gaussian 16:  ES64L-G16RevC.02  7-Dec-2021
                20-Sep-2024 
 ******************************************
 %mem=16GB
 %CPU=0-71
 SetSPE:  set environment variable "OMP_PROC_BIND" = "true"
 SetSPE:  set environment variable "OMP_PLACES" = "{0},{1},{2},{3},{4},{5},{6},{7},{8},{9},{10},{11},{12},{13},{14},{15},{16},{17},{18},{19},{20},{21},{22},{23},{24},{25},{26},{27},{28},{29},{30},{31},{32},{33},{34},{35},{36},{37},{38},{39},{40},{41},{42},{43},{44},{45},{46},{47},{48},{49},{50},{51},{52},{53},{54},{55},{56},{57},{58},{59},{60},{61},{62},{63},{64},{65},{66},{67},{68},{69},{70},{71}"
 Will use up to   72 processors via shared memory.
 %gpucpu=0,1,2,3=0,1,2,3
 Will use    4 GPUs:
 Thread  CPU   GPU
      0    0     0
      1    1     1
      2    2     2
      3    3     3
      4    4    -1
      5    5    -1
      6    6    -1
      7    7    -1
      8    8    -1
      9    9    -1
     10   10    -1
     11   11    -1
     12   12    -1
     13   13    -1
     14   14    -1
     15   15    -1
     16   16    -1
     17   17    -1
     18   18    -1
     19   19    -1
     20   20    -1
     21   21    -1
     22   22    -1
     23   23    -1
     24   24    -1
     25   25    -1
     26   26    -1
     27   27    -1
     28   28    -1
     29   29    -1
     30   30    -1
     31   31    -1
     32   32    -1
     33   33    -1
     34   34    -1
     35   35    -1
     36   36    -1
     37   37    -1
     38   38    -1
     39   39    -1
     40   40    -1
     41   41    -1
     42   42    -1
     43   43    -1
     44   44    -1
     45   45    -1
     46   46    -1
     47   47    -1
     48   48    -1
     49   49    -1
     50   50    -1
     51   51    -1
     52   52    -1
     53   53    -1
     54   54    -1
     55   55    -1
     56   56    -1
     57   57    -1
     58   58    -1
     59   59    -1
     60   60    -1
     61   61    -1
     62   62    -1
     63   63    -1
     64   64    -1
     65   65    -1
     66   66    -1
     67   67    -1
     68   68    -1
     69   69    -1
     70   70    -1
     71   71    -1
 SetGPE:  set environment variable "OMP_PROC_BIND" = "true"
 SetGPE:  set environment variable "OMP_PLACES" = "{0},{1},{2},{3},{4},{5},{6},{7},{8},{9},{10},{11},{12},{13},{14},{15},{16},{17},{18},{19},{20},{21},{22},{23},{24},{25},{26},{27},{28},{29},{30},{31},{32},{33},{34},{35},{36},{37},{38},{39},{40},{41},{42},{43},{44},{45},{46},{47},{48},{49},{50},{51},{52},{53},{54},{55},{56},{57},{58},{59},{60},{61},{62},{63},{64},{65},{66},{67},{68},{69},{70},{71}"
 %oldchk=5d6m_III_Dre.chk
 %chk=5d6m_III_Hn.chk
 Properties for Device   0
 Minimum vector length:                              32
 Maximum vector length:                            1024
 Number of SMPs:                                    108
 Maximum number of threads per SMP:                2048
 Number of ASync Engines:                             5
 Memory:                                           9207742464
 Properties for Device   1
 Minimum vector length:                              32
 Maximum vector length:                            1024
 Number of SMPs:                                    108
 Maximum number of threads per SMP:                2048
 Number of ASync Engines:                             5
 Memory:                                           9207742464
 Properties for Device   2
 Minimum vector length:                              32
 Maximum vector length:                            1024
 Number of SMPs:                                    108
 Maximum number of threads per SMP:                2048
 Number of ASync Engines:                             5
 Memory:                                           9207742464
 Properties for Device   3
 Minimum vector length:                              32
 Maximum vector length:                            1024
 Number of SMPs:                                    108
 Maximum number of threads per SMP:                2048
 Number of ASync Engines:                             5
 Memory:                                           9207742464
   8286968217 words of memory will be used on each GPU.
 Copying data from "5d6m_III_Dre.chk" to current chk file "5d6m_III_Hn.chk"
 IOpt=  2 FromEx=T IUOpen= 4 IOptOp= 5 NList=   0 IFRang= 0 IUIn= 4 IUOut= 2.
 --------------------------------------------------------------
 # apfd/def2TZVP guess=read scf=maxcycle=999 geom=check pop=nbo
 --------------------------------------------------------------
 1/29=2,38=1,172=1/1;
 2/12=2,40=1/2;
 3/5=44,7=101,11=2,14=-4,25=1,30=1,74=-44,116=-2/1,2,3;
 4/5=1/1;
 5/5=2,7=999,38=6/2;
 6/7=2,8=2,9=2,10=2,28=1,40=1/1,7;
 99/5=1,9=1/99;
 ----------
 5d6m_III_H
 ----------
 Structure from the checkpoint file:  "5d6m_III_Hn.chk"
 Charge =  1 Multiplicity = 6
 Z-Matrix found in chk file.
 Fe,0,23.9345011522,12.4830866766,54.6217041428
 N,0,25.9026577061,12.6666805004,55.0359833478
 N,0,23.5888841894,12.4513693278,56.6305895957
 N,0,21.9677613972,12.4232637934,54.3109704993
 N,0,24.2964434186,12.6613082611,52.6947869847
 C,0,26.8977475777,12.7701232282,54.1121067183
 C,0,28.1904603153,12.8225103855,54.756517494
 C,0,27.9540741831,12.7510849709,56.0946059605
 C,0,26.5203677574,12.6563372425,56.2479297023
 C,0,24.5085681139,12.4765758564,57.6342995485
 C,0,23.8739079156,12.3644957959,58.9227594811
 C,0,22.5300119554,12.2696313291,58.6803614091
 C,0,22.3793816016,12.3374367555,57.2390305784
 C,0,20.972412581,12.320469683,55.2304889014
 C,0,19.6846050451,12.2496370004,54.588808268
 C,0,19.9208365712,12.3328607503,53.2417099836
 C,0,21.3610511416,12.4327790813,53.0957883218
 C,0,23.3734085306,12.6454852589,51.6983846899
 C,0,24.0197218804,12.7139155398,50.4048717677
 C,0,25.3545182209,12.7978930556,50.6499120483
 C,0,25.507508012,12.7543941576,52.088622611
 C,0,26.7239235982,12.820649712,52.7404118733
 H,0,27.6113052165,12.9023544692,52.1313194486
 C,0,25.879898663,12.564701612,57.4672255761
 H,0,26.4946089076,12.5613433356,58.354312987
 C,0,21.1570283027,12.2823948859,56.6003121397
 H,0,20.2762617596,12.1936504422,57.2175732157
 C,0,22.006119764,12.5433056154,51.8758067785
 H,0,21.3925624857,12.5533246278,50.9874561322
 C,0,28.9210360207,12.7681654013,57.2290247366
 H,0,29.9428878958,12.8440115394,56.8654578767
 H,0,28.835129149,11.8571558143,57.8220949113
 H,0,28.7272821145,13.6169694542,57.8855721796
 C,0,29.4885723787,12.9396635256,54.0336232079
 H,0,29.5136833402,13.8509739639,53.435493856
 H,0,29.6316981121,12.0919941108,53.3629172506
 H,0,30.320467052,12.9670257005,54.733405075
 C,0,24.5773350701,12.42149276,60.2342881247
 H,0,25.3875526074,13.1487814086,60.2063051814
 H,0,25.004275311,11.4505043108,60.4917642896
 H,0,23.8799718202,12.7079048229,61.0188258617
 C,0,21.4391132615,12.1616157416,59.623681375
 H,0,20.5207181933,12.6616232592,59.3384518803
 C,0,21.4821368783,11.5065590107,60.7793716649
 H,0,22.350644016,10.9534251703,61.0922672308
 H,0,20.6348436191,11.4798449573,61.4444296297
 C,0,18.3870432725,12.0550144507,55.2929463637
 H,0,18.003971355,13.0028045278,55.6752014103
 H,0,18.5053052595,11.3749606978,56.1352753906
 H,0,17.6503034756,11.6377048085,54.6095216061
 C,0,18.9795689431,12.3005816069,52.1447103754
 H,0,19.3388676567,11.8400539166,51.2315659194
 C,0,17.7438580941,12.7901568149,52.1719575158
 H,0,17.3480985559,13.3010267333,53.0320362754
 H,0,17.0910104455,12.7183571647,51.3177467129
 C,0,23.2962089769,12.7108816325,49.1017459434
 H,0,22.6057414265,13.5527077274,49.0449093707
 H,0,22.7192787078,11.7929573697,48.9850187735
 H,0,23.9940718242,12.7836535384,48.271214912
 C,0,26.4880417533,12.8987648193,49.6874485075
 H,0,26.126089428,12.9118232964,48.662257733
 H,0,27.1651077892,12.0514939291,49.8018255929
 H,0,27.0578364606,13.8118972072,49.8616738718
 O,0,23.916,14.753,54.747
 H,0,24.828,14.956,54.956
 H,0,23.245,15.334,54.703
 C,0,23.6103649625,7.1114598115,53.1695442492
 H,0,23.0479357783,7.3156456751,52.2636427028
 H,0,23.0209478444,6.4503129483,53.8051352783
 H,0,24.5315811026,6.5940346369,52.9006584847
 N,0,24.6400264782,8.4422094085,55.0247453778
 H,0,25.0400525726,7.6535377345,55.5058903565
 C,0,23.9068730951,8.3876944716,53.8683753749
 C,0,24.723212161,9.7399842754,55.3965252276
 H,0,25.2401177029,10.0830117837,56.2689158964
 N,0,24.0875856303,10.509589826,54.5461861821
 C,0,23.5738847607,9.6824673492,53.590480229
 H,0,23.0041440614,10.0732052294,52.772755554
 Recover connectivity data from disk.
 Stoichiometry    C34H36FeN6O(1+,6)
 Framework group  C1[X(C34H36FeN6O)]
 Deg. of freedom   228
 Full point group                 C1      NOp   1
 Largest Abelian subgroup         C1      NOp   1
 Largest concise Abelian subgroup C1      NOp   1
                         Standard orientation:                         
 ---------------------------------------------------------------------
 Center     Atomic      Atomic             Coordinates (Angstroms)
 Number     Number       Type             X           Y           Z
 ---------------------------------------------------------------------
      1         26           0        0.021754   -0.182213   -0.389390
      2          7           0        1.357968   -1.695053   -0.458819
      3          7           0        1.595714    1.112967   -0.424530
      4          7           0       -1.222380    1.372509   -0.445698
      5          7           0       -1.471233   -1.460592   -0.501252
      6          6           0        1.048992   -3.021167   -0.479031
      7          6           0        2.249329   -3.826218   -0.464956
      8          6           0        3.294088   -2.954872   -0.438561
      9          6           0        2.716579   -1.630304   -0.437125
     10          6           0        2.923275    0.810689   -0.414742
     11          6           0        3.727317    2.005318   -0.371571
     12          6           0        2.850443    3.056339   -0.355503
     13          6           0        1.524381    2.469579   -0.400166
     14          6           0       -0.917311    2.696649   -0.426051
     15          6           0       -2.113059    3.500006   -0.421476
     16          6           0       -3.165588    2.623566   -0.459450
     17          6           0       -2.578367    1.296680   -0.465805
     18          6           0       -2.793997   -1.152410   -0.520777
     19          6           0       -3.597160   -2.356780   -0.519552
     20          6           0       -2.722619   -3.397895   -0.525385
     21          6           0       -1.397388   -2.816067   -0.504769
     22          6           0       -0.228245   -3.552253   -0.509469
     23          1           0       -0.317287   -4.627909   -0.521805
     24          6           0        3.457888   -0.466188   -0.413162
     25          1           0        4.532845   -0.559968   -0.391320
     26          6           0        0.363784    3.216642   -0.407320
     27          1           0        0.463117    4.291065   -0.387730
     28          6           0       -3.317779    0.127002   -0.508314
     29          1           0       -4.393186    0.218722   -0.536702
     30          6           0        4.758523   -3.232945   -0.420647
     31          1           0        4.949294   -4.303322   -0.424250
     32          1           0        5.220861   -2.805531    0.469640
     33          1           0        5.242762   -2.795870   -1.294455
     34          6           0        2.265117   -5.316442   -0.484419
     35          1           0        1.768294   -5.693689   -1.378694
     36          1           0        1.743529   -5.716717    0.385409
     37          1           0        3.285186   -5.693097   -0.475436
     38          6           0        5.215646    2.040623   -0.413948
     39          1           0        5.600685    1.276992   -1.088334
     40          1           0        5.639566    1.861519    0.575802
     41          1           0        5.555385    3.014273   -0.760978
     42          6           0        3.128838    4.475402   -0.337157
     43          1           0        2.432164    5.097534   -0.887075
     44          6           0        4.146746    5.052588    0.293153
     45          1           0        4.842156    4.490853    0.892338
     46          1           0        4.304883    6.117581    0.251869
     47          6           0       -2.145756    4.985548   -0.324258
     48          1           0       -1.992406    5.444556   -1.302504
     49          1           0       -1.363154    5.344180    0.342745
     50          1           0       -3.108976    5.313353    0.061427
     51          6           0       -4.584967    2.898873   -0.461433
     52          1           0       -5.205767    2.166000    0.041079
     53          6           0       -5.167331    3.951240   -1.027812
     54          1           0       -4.610107    4.686171   -1.581642
     55          1           0       -6.233460    4.099252   -0.977786
     56          6           0       -5.087513   -2.374054   -0.532464
     57          1           0       -5.469025   -1.858873   -1.414328
     58          1           0       -5.484992   -1.871696    0.349979
     59          1           0       -5.462857   -3.394398   -0.542759
     60          6           0       -2.996630   -4.862900   -0.533508
     61          1           0       -4.066358   -5.057114   -0.546117
     62          1           0       -2.571822   -5.337651    0.351657
     63          1           0       -2.552782   -5.330322   -1.412908
     64          8           0        0.147423   -0.252802   -2.658260
     65          1           0        0.782743   -0.953114   -2.808481
     66          1           0       -0.216283    0.268931   -3.278946
     67          6           0       -1.461818   -0.267884    4.982750
     68          1           0       -2.524947   -0.241865    4.764217
     69          1           0       -1.208899    0.600575    5.591284
     70          1           0       -1.245382   -1.165380    5.562685
     71          7           0        0.674919   -0.329800    3.677611
     72          1           0        1.281934   -0.386889    4.478734
     73          6           0       -0.693288   -0.262766    3.712163
     74          6           0        1.053954   -0.302970    2.379546
     75          1           0        2.071694   -0.341931    2.049982
     76          7           0        0.009338   -0.223047    1.591016
     77          6           0       -1.084741   -0.196381    2.405678
     78          1           0       -2.072743   -0.132626    1.998565
 ---------------------------------------------------------------------
 Rotational constants (GHZ):           0.0932963           0.0916154           0.0591294
 Standard basis: def2TZVP (5D, 7F)
 There are  1744 symmetry adapted cartesian basis functions of A   symmetry.
 There are  1532 symmetry adapted basis functions of A   symmetry.
  1532 basis functions,  2481 primitive gaussians,  1744 cartesian basis functions
   160 alpha electrons      155 beta electrons
       nuclear repulsion energy      5967.3650469186 Hartrees.
 NAtoms=   78 NActive=   78 NUniq=   78 SFac= 1.00D+00 NAtFMM=   60 NAOKFM=T Big=T
 Integral buffers will be    131072 words long.
 Raffenetti 2 integral format.
 Two-electron integral symmetry is turned on.
 R6APFD:  NTU= -4 IXU= 1 FactS= 1.050
 Nuclear repulsion after empirical dispersion term =     5967.2116441474 Hartrees.
 One-electron integrals computed using PRISM.
   1 Symmetry operations used in ECPInt.
 ECPInt:  NShTT=  186355 NPrTT=  576197 LenC2=  147245 LenP2D=  301280.
 LDataN:  DoStor=T MaxTD1= 6 Len=  172
 Number of processors reduced to  23 by ecpmxn.
 NBasis=  1532 RedAO= T EigKep=  3.05D-06  NBF=  1532
 NBsUse=  1532 1.00D-06 EigRej= -1.00D+00 NBFU=  1532
 Initial guess from the checkpoint file:  "5d6m_III_Hn.chk"
 B after Tr=     0.000000   -0.000000   -0.000000
         Rot=    1.000000   -0.000000   -0.000000   -0.000000 Ang=   0.00 deg.
 Initial guess <Sx>= 0.0000 <Sy>= 0.0000 <Sz>= 2.5000 <S**2>= 8.8258 S= 2.5126
 Requested convergence on RMS density matrix=1.00D-08 within 999 cycles.
 Requested convergence on MAX density matrix=1.00D-06.
 Requested convergence on             energy=1.00D-06.
 No special actions if energy rises.
 Rare condition: small coef for last iteration:  0.000D+00
 Rare condition: small coef for last iteration:  0.000D+00
 Restarting incremental Fock formation.
 Restarting incremental Fock formation.
 Restarting incremental Fock formation.
 SCF Done:  E(UAPFD) =  -2983.77102952     A.U. after   65 cycles
            NFock= 65  Conv=0.70D-08     -V/T= 2.0033
 <Sx>= 0.0000 <Sy>= 0.0000 <Sz>= 2.5000 <S**2>= 8.8318 S= 2.5136
 <L.S>=  0.00000000000    
 Annihilation of the first spin contaminant:
 S**2 before annihilation     8.8318,   after     8.7518

 **********************************************************************

            Population analysis using the SCF Density.

 **********************************************************************

 Orbital symmetries:
 Alpha Orbitals:
       Occupied  (A) (A) (A) (A) (A) (A) (A) (A) (A) (A) (A) (A)
                 (A) (A) (A) (A) (A) (A) (A) (A) (A) (A) (A) (A)
                 (A) (A) (A) (A) (A) (A) (A) (A) (A) (A) (A) (A)
                 (A) (A) (A) (A) (A) (A) (A) (A) (A) (A) (A) (A)
                 (A) (A) (A) (A) (A) (A) (A) (A) (A) (A) (A) (A)
                 (A) (A) (A) (A) (A) (A) (A) (A) (A) (A) (A) (A)
                 (A) (A) (A) (A) (A) (A) (A) (A) (A) (A) (A) (A)
                 (A) (A) (A) (A) (A) (A) (A) (A) (A) (A) (A) (A)
                 (A) (A) (A) (A) (A) (A) (A) (A) (A) (A) (A) (A)
                 (A) (A) (A) (A) (A) (A) (A) (A) (A) (A) (A) (A)
                 (A) (A) (A) (A) (A) (A) (A) (A) (A) (A) (A) (A)
                 (A) (A) (A) (A) (A) (A) (A) (A) (A) (A) (A) (A)
                 (A) (A) (A) (A) (A) (A) (A) (A) (A) (A) (A) (A)
                 (A) (A) (A) (A)
       Virtual   (A) (A) (A) (A) (A) (A) (A) (A) (A) (A) (A) (A)
                 (A) (A) (A) (A) (A) (A) (A) (A) (A) (A) (A) (A)
                 (A) (A) (A) (A) (A) (A) (A) (A) (A) (A) (A) (A)
                 (A) (A) (A) (A) (A) (A) (A) (A) (A) (A) (A) (A)
                 (A) (A) (A) (A) (A) (A) (A) (A) (A) (A) (A) (A)
                 (A) (A) (A) (A) (A) (A) (A) (A) (A) (A) (A) (A)
                 (A) (A) (A) (A) (A) (A) (A) (A) (A) (A) (A) (A)
                 (A) (A) (A) (A) (A) (A) (A) (A) (A) (A) (A) (A)
                 (A) (A) (A) (A) (A) (A) (A) (A) (A) (A) (A) (A)
                 (A) (A) (A) (A) (A) (A) (A) (A) (A) (A) (A) (A)
                 (A) (A) (A) (A) (A) (A) (A) (A) (A) (A) (A) (A)
                 (A) (A) (A) (A) (A) (A) (A) (A) (A) (A) (A) (A)
                 (A) (A) (A) (A) (A) (A) (A) (A) (A) (A) (A) (A)
                 (A) (A) (A) (A) (A) (A) (A) (A) (A) (A) (A) (A)
                 (A) (A) (A) (A) (A) (A) (A) (A) (A) (A) (A) (A)
                 (A) (A) (A) (A) (A) (A) (A) (A) (A) (A) (A) (A)
                 (A) (A) (A) (A) (A) (A) (A) (A) (A) (A) (A) (A)
                 (A) (A) (A) (A) (A) (A) (A) (A) (A) (A) (A) (A)
                 (A) (A) (A) (A) (A) (A) (A) (A) (A) (A) (A) (A)
                 (A) (A) (A) (A) (A) (A) (A) (A) (A) (A) (A) (A)
                 (A) (A) (A) (A) (A) (A) (A) (A) (A) (A) (A) (A)
                 (A) (A) (A) (A) (A) (A) (A) (A) (A) (A) (A) (A)
                 (A) (A) (A) (A) (A) (A) (A) (A) (A) (A) (A) (A)
                 (A) (A) (A) (A) (A) (A) (A) (A) (A) (A) (A) (A)
                 (A) (A) (A) (A) (A) (A) (A) (A) (A) (A) (A) (A)
                 (A) (A) (A) (A) (A) (A) (A) (A) (A) (A) (A) (A)
                 (A) (A) (A) (A) (A) (A) (A) (A) (A) (A) (A) (A)
                 (A) (A) (A) (A) (A) (A) (A) (A) (A) (A) (A) (A)
                 (A) (A) (A) (A) (A) (A) (A) (A) (A) (A) (A) (A)
                 (A) (A) (A) (A) (A) (A) (A) (A) (A) (A) (A) (A)
                 (A) (A) (A) (A) (A) (A) (A) (A) (A) (A) (A) (A)
                 (A) (A) (A) (A) (A) (A) (A) (A) (A) (A) (A) (A)
                 (A) (A) (A) (A) (A) (A) (A) (A) (A) (A) (A) (A)
                 (A) (A) (A) (A) (A) (A) (A) (A) (A) (A) (A) (A)
                 (A) (A) (A) (A) (A) (A) (A) (A) (A) (A) (A) (A)
                 (A) (A) (A) (A) (A) (A) (A) (A) (A) (A) (A) (A)
                 (A) (A) (A) (A) (A) (A) (A) (A) (A) (A) (A) (A)
                 (A) (A) (A) (A) (A) (A) (A) (A) (A) (A) (A) (A)
                 (A) (A) (A) (A) (A) (A) (A) (A) (A) (A) (A) (A)
                 (A) (A) (A) (A) (A) (A) (A) (A) (A) (A) (A) (A)
                 (A) (A) (A) (A) (A) (A) (A) (A) (A) (A) (A) (A)
                 (A) (A) (A) (A) (A) (A) (A) (A) (A) (A) (A) (A)
                 (A) (A) (A) (A) (A) (A) (A) (A) (A) (A) (A) (A)
                 (A) (A) (A) (A) (A) (A) (A) (A) (A) (A) (A) (A)
                 (A) (A) (A) (A) (A) (A) (A) (A) (A) (A) (A) (A)
                 (A) (A) (A) (A) (A) (A) (A) (A) (A) (A) (A) (A)
                 (A) (A) (A) (A) (A) (A) (A) (A) (A) (A) (A) (A)
                 (A) (A) (A) (A) (A) (A) (A) (A) (A) (A) (A) (A)
                 (A) (A) (A) (A) (A) (A) (A) (A) (A) (A) (A) (A)
                 (A) (A) (A) (A) (A) (A) (A) (A) (A) (A) (A) (A)
                 (A) (A) (A) (A) (A) (A) (A) (A) (A) (A) (A) (A)
                 (A) (A) (A) (A) (A) (A) (A) (A) (A) (A) (A) (A)
                 (A) (A) (A) (A) (A) (A) (A) (A) (A) (A) (A) (A)
                 (A) (A) (A) (A) (A) (A) (A) (A) (A) (A) (A) (A)
                 (A) (A) (A) (A) (A) (A) (A) (A) (A) (A) (A) (A)
                 (A) (A) (A) (A) (A) (A) (A) (A) (A) (A) (A) (A)
                 (A) (A) (A) (A) (A) (A) (A) (A) (A) (A) (A) (A)
                 (A) (A) (A) (A) (A) (A) (A) (A) (A) (A) (A) (A)
                 (A) (A) (A) (A) (A) (A) (A) (A) (A) (A) (A) (A)
                 (A) (A) (A) (A) (A) (A) (A) (A) (A) (A) (A) (A)
                 (A) (A) (A) (A) (A) (A) (A) (A) (A) (A) (A) (A)
                 (A) (A) (A) (A) (A) (A) (A) (A) (A) (A) (A) (A)
                 (A) (A) (A) (A) (A) (A) (A) (A) (A) (A) (A) (A)
                 (A) (A) (A) (A) (A) (A) (A) (A) (A) (A) (A) (A)
                 (A) (A) (A) (A) (A) (A) (A) (A) (A) (A) (A) (A)
                 (A) (A) (A) (A) (A) (A) (A) (A) (A) (A) (A) (A)
                 (A) (A) (A) (A) (A) (A) (A) (A) (A) (A) (A) (A)
                 (A) (A) (A) (A) (A) (A) (A) (A) (A) (A) (A) (A)
                 (A) (A) (A) (A) (A) (A) (A) (A) (A) (A) (A) (A)
                 (A) (A) (A) (A) (A) (A) (A) (A) (A) (A) (A) (A)
                 (A) (A) (A) (A) (A) (A) (A) (A) (A) (A) (A) (A)
                 (A) (A) (A) (A) (A) (A) (A) (A) (A) (A) (A) (A)
                 (A) (A) (A) (A) (A) (A) (A) (A) (A) (A) (A) (A)
                 (A) (A) (A) (A) (A) (A) (A) (A) (A) (A) (A) (A)
                 (A) (A) (A) (A) (A) (A) (A) (A) (A) (A) (A) (A)
                 (A) (A) (A) (A) (A) (A) (A) (A) (A) (A) (A) (A)
                 (A) (A) (A) (A) (A) (A) (A) (A) (A) (A) (A) (A)
                 (A) (A) (A) (A) (A) (A) (A) (A) (A) (A) (A) (A)
                 (A) (A) (A) (A) (A) (A) (A) (A) (A) (A) (A) (A)
                 (A) (A) (A) (A) (A) (A) (A) (A) (A) (A) (A) (A)
                 (A) (A) (A) (A) (A) (A) (A) (A) (A) (A) (A) (A)
                 (A) (A) (A) (A) (A) (A) (A) (A) (A) (A) (A) (A)
                 (A) (A) (A) (A) (A) (A) (A) (A) (A) (A) (A) (A)
                 (A) (A) (A) (A) (A) (A) (A) (A) (A) (A) (A) (A)
                 (A) (A) (A) (A) (A) (A) (A) (A) (A) (A) (A) (A)
                 (A) (A) (A) (A) (A) (A) (A) (A) (A) (A) (A) (A)
                 (A) (A) (A) (A) (A) (A) (A) (A) (A) (A) (A) (A)
                 (A) (A) (A) (A) (A) (A) (A) (A) (A) (A) (A) (A)
                 (A) (A) (A) (A) (A) (A) (A) (A) (A) (A) (A) (A)
                 (A) (A) (A) (A) (A) (A) (A) (A) (A) (A) (A) (A)
                 (A) (A) (A) (A) (A) (A) (A) (A) (A) (A) (A) (A)
                 (A) (A) (A) (A) (A) (A) (A) (A) (A) (A) (A) (A)
                 (A) (A) (A) (A) (A) (A) (A) (A) (A) (A) (A) (A)
                 (A) (A) (A) (A) (A) (A) (A) (A) (A) (A) (A) (A)
                 (A) (A) (A) (A) (A) (A) (A) (A) (A) (A) (A) (A)
                 (A) (A) (A) (A) (A) (A) (A) (A) (A) (A) (A) (A)
                 (A) (A) (A) (A) (A) (A) (A) (A) (A) (A) (A) (A)
                 (A) (A) (A) (A) (A) (A) (A) (A) (A) (A) (A) (A)
                 (A) (A) (A) (A) (A) (A) (A) (A) (A) (A) (A) (A)
                 (A) (A) (A) (A) (A) (A) (A) (A) (A) (A) (A) (A)
                 (A) (A) (A) (A) (A) (A) (A) (A) (A) (A) (A) (A)
                 (A) (A) (A) (A) (A) (A) (A) (A) (A) (A) (A) (A)
                 (A) (A) (A) (A) (A) (A) (A) (A) (A) (A) (A) (A)
                 (A) (A) (A) (A) (A) (A) (A) (A) (A) (A) (A) (A)
                 (A) (A) (A) (A) (A) (A) (A) (A) (A) (A) (A) (A)
                 (A) (A) (A) (A) (A) (A) (A) (A) (A) (A) (A) (A)
                 (A) (A) (A) (A) (A) (A) (A) (A) (A) (A) (A) (A)
                 (A) (A) (A) (A) (A) (A) (A) (A) (A) (A) (A) (A)
                 (A) (A) (A) (A) (A) (A) (A) (A) (A) (A) (A) (A)
                 (A) (A) (A) (A) (A) (A) (A) (A) (A) (A) (A) (A)
                 (A) (A) (A) (A) (A) (A) (A) (A) (A) (A) (A) (A)
                 (A) (A) (A) (A) (A) (A) (A) (A) (A) (A) (A) (A)
                 (A) (A) (A) (A) (A) (A) (A) (A) (A) (A) (A) (A)
                 (A) (A) (A) (A) (A) (A) (A) (A) (A) (A) (A) (A)
                 (A) (A) (A) (A)
 Beta  Orbitals:
       Occupied  (A) (A) (A) (A) (A) (A) (A) (A) (A) (A) (A) (A)
                 (A) (A) (A) (A) (A) (A) (A) (A) (A) (A) (A) (A)
                 (A) (A) (A) (A) (A) (A) (A) (A) (A) (A) (A) (A)
                 (A) (A) (A) (A) (A) (A) (A) (A) (A) (A) (A) (A)
                 (A) (A) (A) (A) (A) (A) (A) (A) (A) (A) (A) (A)
                 (A) (A) (A) (A) (A) (A) (A) (A) (A) (A) (A) (A)
                 (A) (A) (A) (A) (A) (A) (A) (A) (A) (A) (A) (A)
                 (A) (A) (A) (A) (A) (A) (A) (A) (A) (A) (A) (A)
                 (A) (A) (A) (A) (A) (A) (A) (A) (A) (A) (A) (A)
                 (A) (A) (A) (A) (A) (A) (A) (A) (A) (A) (A) (A)
                 (A) (A) (A) (A) (A) (A) (A) (A) (A) (A) (A) (A)
                 (A) (A) (A) (A) (A) (A) (A) (A) (A) (A) (A) (A)
                 (A) (A) (A) (A) (A) (A) (A) (A) (A) (A) (A)
       Virtual   (A) (A) (A) (A) (A) (A) (A) (A) (A) (A) (A) (A)
                 (A) (A) (A) (A) (A) (A) (A) (A) (A) (A) (A) (A)
                 (A) (A) (A) (A) (A) (A) (A) (A) (A) (A) (A) (A)
                 (A) (A) (A) (A) (A) (A) (A) (A) (A) (A) (A) (A)
                 (A) (A) (A) (A) (A) (A) (A) (A) (A) (A) (A) (A)
                 (A) (A) (A) (A) (A) (A) (A) (A) (A) (A) (A) (A)
                 (A) (A) (A) (A) (A) (A) (A) (A) (A) (A) (A) (A)
                 (A) (A) (A) (A) (A) (A) (A) (A) (A) (A) (A) (A)
                 (A) (A) (A) (A) (A) (A) (A) (A) (A) (A) (A) (A)
                 (A) (A) (A) (A) (A) (A) (A) (A) (A) (A) (A) (A)
                 (A) (A) (A) (A) (A) (A) (A) (A) (A) (A) (A) (A)
                 (A) (A) (A) (A) (A) (A) (A) (A) (A) (A) (A) (A)
                 (A) (A) (A) (A) (A) (A) (A) (A) (A) (A) (A) (A)
                 (A) (A) (A) (A) (A) (A) (A) (A) (A) (A) (A) (A)
                 (A) (A) (A) (A) (A) (A) (A) (A) (A) (A) (A) (A)
                 (A) (A) (A) (A) (A) (A) (A) (A) (A) (A) (A) (A)
                 (A) (A) (A) (A) (A) (A) (A) (A) (A) (A) (A) (A)
                 (A) (A) (A) (A) (A) (A) (A) (A) (A) (A) (A) (A)
                 (A) (A) (A) (A) (A) (A) (A) (A) (A) (A) (A) (A)
                 (A) (A) (A) (A) (A) (A) (A) (A) (A) (A) (A) (A)
                 (A) (A) (A) (A) (A) (A) (A) (A) (A) (A) (A) (A)
                 (A) (A) (A) (A) (A) (A) (A) (A) (A) (A) (A) (A)
                 (A) (A) (A) (A) (A) (A) (A) (A) (A) (A) (A) (A)
                 (A) (A) (A) (A) (A) (A) (A) (A) (A) (A) (A) (A)
                 (A) (A) (A) (A) (A) (A) (A) (A) (A) (A) (A) (A)
                 (A) (A) (A) (A) (A) (A) (A) (A) (A) (A) (A) (A)
                 (A) (A) (A) (A) (A) (A) (A) (A) (A) (A) (A) (A)
                 (A) (A) (A) (A) (A) (A) (A) (A) (A) (A) (A) (A)
                 (A) (A) (A) (A) (A) (A) (A) (A) (A) (A) (A) (A)
                 (A) (A) (A) (A) (A) (A) (A) (A) (A) (A) (A) (A)
                 (A) (A) (A) (A) (A) (A) (A) (A) (A) (A) (A) (A)
                 (A) (A) (A) (A) (A) (A) (A) (A) (A) (A) (A) (A)
                 (A) (A) (A) (A) (A) (A) (A) (A) (A) (A) (A) (A)
                 (A) (A) (A) (A) (A) (A) (A) (A) (A) (A) (A) (A)
                 (A) (A) (A) (A) (A) (A) (A) (A) (A) (A) (A) (A)
                 (A) (A) (A) (A) (A) (A) (A) (A) (A) (A) (A) (A)
                 (A) (A) (A) (A) (A) (A) (A) (A) (A) (A) (A) (A)
                 (A) (A) (A) (A) (A) (A) (A) (A) (A) (A) (A) (A)
                 (A) (A) (A) (A) (A) (A) (A) (A) (A) (A) (A) (A)
                 (A) (A) (A) (A) (A) (A) (A) (A) (A) (A) (A) (A)
                 (A) (A) (A) (A) (A) (A) (A) (A) (A) (A) (A) (A)
                 (A) (A) (A) (A) (A) (A) (A) (A) (A) (A) (A) (A)
                 (A) (A) (A) (A) (A) (A) (A) (A) (A) (A) (A) (A)
                 (A) (A) (A) (A) (A) (A) (A) (A) (A) (A) (A) (A)
                 (A) (A) (A) (A) (A) (A) (A) (A) (A) (A) (A) (A)
                 (A) (A) (A) (A) (A) (A) (A) (A) (A) (A) (A) (A)
                 (A) (A) (A) (A) (A) (A) (A) (A) (A) (A) (A) (A)
                 (A) (A) (A) (A) (A) (A) (A) (A) (A) (A) (A) (A)
                 (A) (A) (A) (A) (A) (A) (A) (A) (A) (A) (A) (A)
                 (A) (A) (A) (A) (A) (A) (A) (A) (A) (A) (A) (A)
                 (A) (A) (A) (A) (A) (A) (A) (A) (A) (A) (A) (A)
                 (A) (A) (A) (A) (A) (A) (A) (A) (A) (A) (A) (A)
                 (A) (A) (A) (A) (A) (A) (A) (A) (A) (A) (A) (A)
                 (A) (A) (A) (A) (A) (A) (A) (A) (A) (A) (A) (A)
                 (A) (A) (A) (A) (A) (A) (A) (A) (A) (A) (A) (A)
                 (A) (A) (A) (A) (A) (A) (A) (A) (A) (A) (A) (A)
                 (A) (A) (A) (A) (A) (A) (A) (A) (A) (A) (A) (A)
                 (A) (A) (A) (A) (A) (A) (A) (A) (A) (A) (A) (A)
                 (A) (A) (A) (A) (A) (A) (A) (A) (A) (A) (A) (A)
                 (A) (A) (A) (A) (A) (A) (A) (A) (A) (A) (A) (A)
                 (A) (A) (A) (A) (A) (A) (A) (A) (A) (A) (A) (A)
                 (A) (A) (A) (A) (A) (A) (A) (A) (A) (A) (A) (A)
                 (A) (A) (A) (A) (A) (A) (A) (A) (A) (A) (A) (A)
                 (A) (A) (A) (A) (A) (A) (A) (A) (A) (A) (A) (A)
                 (A) (A) (A) (A) (A) (A) (A) (A) (A) (A) (A) (A)
                 (A) (A) (A) (A) (A) (A) (A) (A) (A) (A) (A) (A)
                 (A) (A) (A) (A) (A) (A) (A) (A) (A) (A) (A) (A)
                 (A) (A) (A) (A) (A) (A) (A) (A) (A) (A) (A) (A)
                 (A) (A) (A) (A) (A) (A) (A) (A) (A) (A) (A) (A)
                 (A) (A) (A) (A) (A) (A) (A) (A) (A) (A) (A) (A)
                 (A) (A) (A) (A) (A) (A) (A) (A) (A) (A) (A) (A)
                 (A) (A) (A) (A) (A) (A) (A) (A) (A) (A) (A) (A)
                 (A) (A) (A) (A) (A) (A) (A) (A) (A) (A) (A) (A)
                 (A) (A) (A) (A) (A) (A) (A) (A) (A) (A) (A) (A)
                 (A) (A) (A) (A) (A) (A) (A) (A) (A) (A) (A) (A)
                 (A) (A) (A) (A) (A) (A) (A) (A) (A) (A) (A) (A)
                 (A) (A) (A) (A) (A) (A) (A) (A) (A) (A) (A) (A)
                 (A) (A) (A) (A) (A) (A) (A) (A) (A) (A) (A) (A)
                 (A) (A) (A) (A) (A) (A) (A) (A) (A) (A) (A) (A)
                 (A) (A) (A) (A) (A) (A) (A) (A) (A) (A) (A) (A)
                 (A) (A) (A) (A) (A) (A) (A) (A) (A) (A) (A) (A)
                 (A) (A) (A) (A) (A) (A) (A) (A) (A) (A) (A) (A)
                 (A) (A) (A) (A) (A) (A) (A) (A) (A) (A) (A) (A)
                 (A) (A) (A) (A) (A) (A) (A) (A) (A) (A) (A) (A)
                 (A) (A) (A) (A) (A) (A) (A) (A) (A) (A) (A) (A)
                 (A) (A) (A) (A) (A) (A) (A) (A) (A) (A) (A) (A)
                 (A) (A) (A) (A) (A) (A) (A) (A) (A) (A) (A) (A)
                 (A) (A) (A) (A) (A) (A) (A) (A) (A) (A) (A) (A)
                 (A) (A) (A) (A) (A) (A) (A) (A) (A) (A) (A) (A)
                 (A) (A) (A) (A) (A) (A) (A) (A) (A) (A) (A) (A)
                 (A) (A) (A) (A) (A) (A) (A) (A) (A) (A) (A) (A)
                 (A) (A) (A) (A) (A) (A) (A) (A) (A) (A) (A) (A)
                 (A) (A) (A) (A) (A) (A) (A) (A) (A) (A) (A) (A)
                 (A) (A) (A) (A) (A) (A) (A) (A) (A) (A) (A) (A)
                 (A) (A) (A) (A) (A) (A) (A) (A) (A) (A) (A) (A)
                 (A) (A) (A) (A) (A) (A) (A) (A) (A) (A) (A) (A)
                 (A) (A) (A) (A) (A) (A) (A) (A) (A) (A) (A) (A)
                 (A) (A) (A) (A) (A) (A) (A) (A) (A) (A) (A) (A)
                 (A) (A) (A) (A) (A) (A) (A) (A) (A) (A) (A) (A)
                 (A) (A) (A) (A) (A) (A) (A) (A) (A) (A) (A) (A)
                 (A) (A) (A) (A) (A) (A) (A) (A) (A) (A) (A) (A)
                 (A) (A) (A) (A) (A) (A) (A) (A) (A) (A) (A) (A)
                 (A) (A) (A) (A) (A) (A) (A) (A) (A) (A) (A) (A)
                 (A) (A) (A) (A) (A) (A) (A) (A) (A) (A) (A) (A)
                 (A) (A) (A) (A) (A) (A) (A) (A) (A) (A) (A) (A)
                 (A) (A) (A) (A) (A) (A) (A) (A) (A) (A) (A) (A)
                 (A) (A) (A) (A) (A) (A) (A) (A) (A) (A) (A) (A)
                 (A) (A) (A) (A) (A) (A) (A) (A) (A) (A) (A) (A)
                 (A) (A) (A) (A) (A) (A) (A) (A) (A) (A) (A) (A)
                 (A) (A) (A) (A) (A) (A) (A) (A) (A) (A) (A) (A)
                 (A) (A) (A) (A) (A) (A) (A) (A) (A) (A) (A) (A)
                 (A) (A) (A) (A) (A) (A) (A) (A) (A) (A) (A) (A)
                 (A) (A) (A) (A) (A) (A) (A) (A) (A) (A) (A) (A)
                 (A) (A) (A) (A) (A) (A) (A) (A) (A) (A) (A) (A)
                 (A) (A) (A) (A) (A) (A) (A) (A) (A)
 The electronic state is 6-A.
 Alpha  occ. eigenvalues -- -256.39414 -30.28260 -26.12993 -26.10815 -26.10793
 Alpha  occ. eigenvalues --  -19.28797 -14.52626 -14.47671 -14.46827 -14.46671
 Alpha  occ. eigenvalues --  -14.46607 -14.46605 -10.37143 -10.34465 -10.33364
 Alpha  occ. eigenvalues --  -10.33279 -10.32786 -10.32741 -10.32207 -10.32132
 Alpha  occ. eigenvalues --  -10.32120 -10.31906 -10.31883 -10.31570 -10.31412
 Alpha  occ. eigenvalues --  -10.30797 -10.30561 -10.30345 -10.30142 -10.30049
 Alpha  occ. eigenvalues --  -10.29844 -10.29626 -10.29183 -10.29082 -10.29079
 Alpha  occ. eigenvalues --  -10.28939 -10.28825 -10.28381 -10.28218 -10.28127
 Alpha  occ. eigenvalues --  -10.28090 -10.27938 -10.27753 -10.27584 -10.27186
 Alpha  occ. eigenvalues --  -10.26922  -3.70511  -2.50800  -2.44941  -2.44877
 Alpha  occ. eigenvalues --   -1.16845  -1.16572  -1.09564  -1.08745  -1.08216
 Alpha  occ. eigenvalues --   -1.07419  -1.02466  -0.94490  -0.92575  -0.91996
 Alpha  occ. eigenvalues --   -0.91849  -0.91729  -0.91382  -0.91193  -0.90539
 Alpha  occ. eigenvalues --   -0.86919  -0.86574  -0.85614  -0.84552  -0.83217
 Alpha  occ. eigenvalues --   -0.82108  -0.81466  -0.80283  -0.78877  -0.78638
 Alpha  occ. eigenvalues --   -0.78284  -0.75895  -0.75751  -0.75664  -0.72362
 Alpha  occ. eigenvalues --   -0.72324  -0.70877  -0.70078  -0.69449  -0.69158
 Alpha  occ. eigenvalues --   -0.66943  -0.65567  -0.64907  -0.63835  -0.63792
 Alpha  occ. eigenvalues --   -0.62386  -0.62118  -0.61739  -0.59836  -0.59338
 Alpha  occ. eigenvalues --   -0.58824  -0.58721  -0.58330  -0.57037  -0.56762
 Alpha  occ. eigenvalues --   -0.55835  -0.55682  -0.55344  -0.54996  -0.54184
 Alpha  occ. eigenvalues --   -0.54090  -0.54042  -0.53761  -0.53645  -0.53310
 Alpha  occ. eigenvalues --   -0.53044  -0.52618  -0.52359  -0.52221  -0.51755
 Alpha  occ. eigenvalues --   -0.51408  -0.51243  -0.51031  -0.50879  -0.50781
 Alpha  occ. eigenvalues --   -0.50688  -0.50668  -0.50444  -0.50162  -0.49662
 Alpha  occ. eigenvalues --   -0.49382  -0.48955  -0.48886  -0.48715  -0.48446
 Alpha  occ. eigenvalues --   -0.48267  -0.48134  -0.48005  -0.47510  -0.47092
 Alpha  occ. eigenvalues --   -0.46685  -0.46131  -0.45493  -0.45137  -0.44770
 Alpha  occ. eigenvalues --   -0.44486  -0.43859  -0.43665  -0.42973  -0.42832
 Alpha  occ. eigenvalues --   -0.42112  -0.41120  -0.40426  -0.40284  -0.38932
 Alpha  occ. eigenvalues --   -0.38439  -0.36235  -0.34940  -0.34487  -0.34133
 Alpha  occ. eigenvalues --   -0.33199  -0.32547  -0.32397  -0.29773  -0.22465
 Alpha virt. eigenvalues --   -0.19501  -0.18710  -0.13542  -0.09785  -0.09130
 Alpha virt. eigenvalues --   -0.08369  -0.07570  -0.06559  -0.05942  -0.05824
 Alpha virt. eigenvalues --   -0.04460  -0.04209  -0.03393  -0.03243  -0.02801
 Alpha virt. eigenvalues --   -0.02583  -0.02090  -0.01595  -0.00901  -0.00458
 Alpha virt. eigenvalues --   -0.00246   0.00016   0.00242   0.00643   0.00765
 Alpha virt. eigenvalues --    0.01236   0.01614   0.01859   0.02239   0.02380
 Alpha virt. eigenvalues --    0.02637   0.02786   0.02909   0.03106   0.03453
 Alpha virt. eigenvalues --    0.03599   0.03875   0.04063   0.04191   0.04383
 Alpha virt. eigenvalues --    0.04524   0.04679   0.05023   0.05217   0.05561
 Alpha virt. eigenvalues --    0.05672   0.05995   0.06425   0.06745   0.07095
 Alpha virt. eigenvalues --    0.07158   0.07432   0.07496   0.07725   0.08005
 Alpha virt. eigenvalues --    0.08108   0.08461   0.08571   0.08683   0.09107
 Alpha virt. eigenvalues --    0.09419   0.09756   0.09960   0.10261   0.10688
 Alpha virt. eigenvalues --    0.10815   0.11030   0.11096   0.11250   0.11606
 Alpha virt. eigenvalues --    0.11954   0.12184   0.12535   0.12739   0.12922
 Alpha virt. eigenvalues --    0.13142   0.13542   0.13749   0.14043   0.14350
 Alpha virt. eigenvalues --    0.14365   0.15016   0.15330   0.15436   0.15865
 Alpha virt. eigenvalues --    0.16221   0.16507   0.16572   0.16914   0.17236
 Alpha virt. eigenvalues --    0.17278   0.17478   0.17587   0.17857   0.18242
 Alpha virt. eigenvalues --    0.18672   0.19242   0.19341   0.19805   0.19846
 Alpha virt. eigenvalues --    0.20183   0.20303   0.20500   0.20832   0.21115
 Alpha virt. eigenvalues --    0.21541   0.21688   0.21733   0.21772   0.22273
 Alpha virt. eigenvalues --    0.22367   0.23073   0.23209   0.23471   0.23588
 Alpha virt. eigenvalues --    0.23889   0.24153   0.24351   0.24482   0.24653
 Alpha virt. eigenvalues --    0.25290   0.25564   0.25636   0.25828   0.26188
 Alpha virt. eigenvalues --    0.26697   0.26909   0.27116   0.27459   0.27588
 Alpha virt. eigenvalues --    0.28131   0.28493   0.28748   0.28816   0.29039
 Alpha virt. eigenvalues --    0.29482   0.29705   0.29880   0.29982   0.30412
 Alpha virt. eigenvalues --    0.30547   0.30687   0.30906   0.31061   0.31410
 Alpha virt. eigenvalues --    0.31603   0.31836   0.31939   0.32293   0.32537
 Alpha virt. eigenvalues --    0.32823   0.32925   0.33144   0.33335   0.33371
 Alpha virt. eigenvalues --    0.33845   0.33954   0.34303   0.34669   0.34996
 Alpha virt. eigenvalues --    0.35228   0.35423   0.35628   0.35691   0.36038
 Alpha virt. eigenvalues --    0.36412   0.36599   0.36856   0.37172   0.37218
 Alpha virt. eigenvalues --    0.37563   0.37669   0.38043   0.38254   0.38309
 Alpha virt. eigenvalues --    0.38718   0.38933   0.39061   0.39301   0.39385
 Alpha virt. eigenvalues --    0.39576   0.39755   0.40194   0.40398   0.40624
 Alpha virt. eigenvalues --    0.40861   0.41147   0.41497   0.41596   0.41821
 Alpha virt. eigenvalues --    0.42132   0.42229   0.42579   0.42740   0.42860
 Alpha virt. eigenvalues --    0.42984   0.43196   0.43578   0.43595   0.43729
 Alpha virt. eigenvalues --    0.44081   0.44238   0.44683   0.44839   0.45137
 Alpha virt. eigenvalues --    0.45246   0.45426   0.45722   0.45956   0.46415
 Alpha virt. eigenvalues --    0.46635   0.46740   0.47014   0.47386   0.47523
 Alpha virt. eigenvalues --    0.47704   0.48108   0.48307   0.48366   0.48372
 Alpha virt. eigenvalues --    0.48823   0.49129   0.49442   0.49904   0.50366
 Alpha virt. eigenvalues --    0.50586   0.50867   0.51000   0.51531   0.51956
 Alpha virt. eigenvalues --    0.52133   0.52680   0.52943   0.53153   0.53442
 Alpha virt. eigenvalues --    0.53867   0.54135   0.54184   0.54478   0.54779
 Alpha virt. eigenvalues --    0.54964   0.55282   0.55664   0.55765   0.55944
 Alpha virt. eigenvalues --    0.56387   0.56505   0.56665   0.57088   0.57438
 Alpha virt. eigenvalues --    0.57525   0.58366   0.58800   0.58943   0.59230
 Alpha virt. eigenvalues --    0.59543   0.60048   0.60355   0.60870   0.61117
 Alpha virt. eigenvalues --    0.61308   0.61528   0.62023   0.62413   0.62439
 Alpha virt. eigenvalues --    0.63109   0.63310   0.63489   0.63824   0.63910
 Alpha virt. eigenvalues --    0.64515   0.64666   0.64886   0.65218   0.65956
 Alpha virt. eigenvalues --    0.66312   0.66532   0.67003   0.67072   0.67736
 Alpha virt. eigenvalues --    0.67864   0.68053   0.68373   0.68796   0.69275
 Alpha virt. eigenvalues --    0.69610   0.69974   0.70280   0.70915   0.71047
 Alpha virt. eigenvalues --    0.71335   0.71796   0.72380   0.72810   0.72927
 Alpha virt. eigenvalues --    0.73388   0.74078   0.74413   0.74536   0.74826
 Alpha virt. eigenvalues --    0.75009   0.75633   0.76000   0.76410   0.76692
 Alpha virt. eigenvalues --    0.77318   0.77346   0.78039   0.78300   0.78821
 Alpha virt. eigenvalues --    0.79058   0.79604   0.79947   0.80461   0.80591
 Alpha virt. eigenvalues --    0.80778   0.81342   0.81607   0.82251   0.82564
 Alpha virt. eigenvalues --    0.82878   0.83236   0.83537   0.84254   0.84784
 Alpha virt. eigenvalues --    0.85185   0.85339   0.85584   0.86116   0.86205
 Alpha virt. eigenvalues --    0.86814   0.87143   0.87402   0.87465   0.88002
 Alpha virt. eigenvalues --    0.88642   0.89099   0.89189   0.89257   0.89878
 Alpha virt. eigenvalues --    0.90066   0.90587   0.90919   0.91021   0.91464
 Alpha virt. eigenvalues --    0.91865   0.92028   0.92311   0.92523   0.93110
 Alpha virt. eigenvalues --    0.93198   0.93406   0.93839   0.94019   0.94165
 Alpha virt. eigenvalues --    0.94423   0.94571   0.95177   0.95504   0.96026
 Alpha virt. eigenvalues --    0.96405   0.96775   0.96912   0.97243   0.97802
 Alpha virt. eigenvalues --    0.98363   0.98614   0.99131   0.99524   0.99688
 Alpha virt. eigenvalues --    1.00188   1.00708   1.00891   1.01617   1.01834
 Alpha virt. eigenvalues --    1.02536   1.02734   1.03426   1.04116   1.04596
 Alpha virt. eigenvalues --    1.05516   1.05749   1.06401   1.06758   1.06856
 Alpha virt. eigenvalues --    1.07408   1.07757   1.08037   1.08381   1.08692
 Alpha virt. eigenvalues --    1.09163   1.09464   1.09635   1.10109   1.10629
 Alpha virt. eigenvalues --    1.10853   1.10985   1.11448   1.11815   1.12444
 Alpha virt. eigenvalues --    1.12762   1.13149   1.13320   1.13918   1.14355
 Alpha virt. eigenvalues --    1.15170   1.15726   1.15995   1.16375   1.16756
 Alpha virt. eigenvalues --    1.17077   1.17897   1.18078   1.18453   1.18664
 Alpha virt. eigenvalues --    1.18785   1.19348   1.19454   1.19654   1.20021
 Alpha virt. eigenvalues --    1.20517   1.20808   1.21084   1.21547   1.22047
 Alpha virt. eigenvalues --    1.22294   1.22721   1.23324   1.24320   1.25247
 Alpha virt. eigenvalues --    1.25691   1.26328   1.26714   1.26863   1.27645
 Alpha virt. eigenvalues --    1.28043   1.28726   1.29052   1.29698   1.30141
 Alpha virt. eigenvalues --    1.30768   1.31822   1.32475   1.33108   1.33489
 Alpha virt. eigenvalues --    1.33875   1.34225   1.34734   1.35158   1.35758
 Alpha virt. eigenvalues --    1.36108   1.36293   1.36822   1.36989   1.37052
 Alpha virt. eigenvalues --    1.37756   1.38125   1.38297   1.38742   1.39059
 Alpha virt. eigenvalues --    1.39220   1.39719   1.40218   1.40482   1.40666
 Alpha virt. eigenvalues --    1.41141   1.41359   1.41478   1.41676   1.42497
 Alpha virt. eigenvalues --    1.42769   1.43053   1.43285   1.43554   1.43810
 Alpha virt. eigenvalues --    1.43936   1.43997   1.44349   1.44597   1.44814
 Alpha virt. eigenvalues --    1.45206   1.45319   1.45774   1.45833   1.46340
 Alpha virt. eigenvalues --    1.46463   1.46716   1.46926   1.47032   1.47714
 Alpha virt. eigenvalues --    1.47815   1.47924   1.48264   1.48489   1.48592
 Alpha virt. eigenvalues --    1.48872   1.49181   1.49333   1.49672   1.50455
 Alpha virt. eigenvalues --    1.50675   1.51201   1.51339   1.51392   1.52137
 Alpha virt. eigenvalues --    1.52382   1.52597   1.52837   1.52988   1.53180
 Alpha virt. eigenvalues --    1.53731   1.54331   1.54405   1.54639   1.55017
 Alpha virt. eigenvalues --    1.55250   1.55511   1.55990   1.56366   1.56560
 Alpha virt. eigenvalues --    1.57205   1.57522   1.57947   1.58345   1.58600
 Alpha virt. eigenvalues --    1.58761   1.59174   1.59471   1.59646   1.60084
 Alpha virt. eigenvalues --    1.60626   1.61107   1.61344   1.61405   1.61973
 Alpha virt. eigenvalues --    1.62496   1.62818   1.63214   1.64051   1.64282
 Alpha virt. eigenvalues --    1.64615   1.65107   1.65509   1.65879   1.66915
 Alpha virt. eigenvalues --    1.67605   1.68252   1.68835   1.69742   1.70115
 Alpha virt. eigenvalues --    1.70405   1.70822   1.71340   1.71436   1.72212
 Alpha virt. eigenvalues --    1.72642   1.72973   1.73241   1.73709   1.74215
 Alpha virt. eigenvalues --    1.74813   1.75105   1.75415   1.76084   1.76369
 Alpha virt. eigenvalues --    1.76878   1.76942   1.77226   1.77765   1.78223
 Alpha virt. eigenvalues --    1.78531   1.78862   1.79125   1.79287   1.80637
 Alpha virt. eigenvalues --    1.80968   1.81451   1.82276   1.82348   1.82678
 Alpha virt. eigenvalues --    1.83021   1.83126   1.84765   1.85339   1.85518
 Alpha virt. eigenvalues --    1.86395   1.86867   1.87320   1.87740   1.87813
 Alpha virt. eigenvalues --    1.87881   1.88591   1.89226   1.89366   1.90015
 Alpha virt. eigenvalues --    1.90236   1.90710   1.91377   1.91714   1.91847
 Alpha virt. eigenvalues --    1.92105   1.92482   1.93133   1.93621   1.94272
 Alpha virt. eigenvalues --    1.94711   1.95279   1.95628   1.96620   1.97116
 Alpha virt. eigenvalues --    1.97773   1.98124   1.98297   1.98873   1.99130
 Alpha virt. eigenvalues --    1.99546   1.99945   2.00602   2.01239   2.01407
 Alpha virt. eigenvalues --    2.01615   2.02710   2.02813   2.03356   2.03521
 Alpha virt. eigenvalues --    2.04250   2.04466   2.05022   2.05096   2.05458
 Alpha virt. eigenvalues --    2.06269   2.06556   2.07327   2.08155   2.08233
 Alpha virt. eigenvalues --    2.08845   2.09168   2.09321   2.09806   2.10060
 Alpha virt. eigenvalues --    2.10760   2.11061   2.11919   2.12321   2.12960
 Alpha virt. eigenvalues --    2.13306   2.13900   2.14736   2.15322   2.15908
 Alpha virt. eigenvalues --    2.16246   2.16574   2.17100   2.17611   2.17812
 Alpha virt. eigenvalues --    2.18359   2.18773   2.19021   2.19831   2.20013
 Alpha virt. eigenvalues --    2.20214   2.20688   2.21018   2.21346   2.21830
 Alpha virt. eigenvalues --    2.23014   2.23143   2.23557   2.23732   2.25077
 Alpha virt. eigenvalues --    2.25133   2.25490   2.26234   2.26670   2.26979
 Alpha virt. eigenvalues --    2.27077   2.27902   2.28134   2.28391   2.28575
 Alpha virt. eigenvalues --    2.29247   2.29530   2.29895   2.30002   2.30131
 Alpha virt. eigenvalues --    2.30967   2.31647   2.31870   2.32015   2.32882
 Alpha virt. eigenvalues --    2.33645   2.34350   2.34535   2.34690   2.35107
 Alpha virt. eigenvalues --    2.35349   2.35655   2.35810   2.36323   2.36783
 Alpha virt. eigenvalues --    2.37403   2.37553   2.37882   2.38277   2.39106
 Alpha virt. eigenvalues --    2.39632   2.40160   2.40597   2.41197   2.41528
 Alpha virt. eigenvalues --    2.41767   2.42708   2.43227   2.43600   2.43753
 Alpha virt. eigenvalues --    2.43917   2.44468   2.44724   2.45319   2.45797
 Alpha virt. eigenvalues --    2.45950   2.46510   2.46726   2.46993   2.47469
 Alpha virt. eigenvalues --    2.47571   2.47894   2.48365   2.49040   2.49268
 Alpha virt. eigenvalues --    2.49454   2.49839   2.50249   2.50737   2.50797
 Alpha virt. eigenvalues --    2.51189   2.51741   2.52177   2.52703   2.53113
 Alpha virt. eigenvalues --    2.53625   2.54132   2.54697   2.55028   2.55376
 Alpha virt. eigenvalues --    2.55935   2.56262   2.56338   2.56514   2.56911
 Alpha virt. eigenvalues --    2.57513   2.57730   2.58154   2.58301   2.58813
 Alpha virt. eigenvalues --    2.59225   2.59706   2.60341   2.60592   2.60886
 Alpha virt. eigenvalues --    2.61236   2.61360   2.62353   2.62621   2.62763
 Alpha virt. eigenvalues --    2.63309   2.63894   2.64489   2.64817   2.65393
 Alpha virt. eigenvalues --    2.65752   2.65961   2.66474   2.66909   2.67181
 Alpha virt. eigenvalues --    2.67913   2.68031   2.68145   2.68457   2.68535
 Alpha virt. eigenvalues --    2.69620   2.69682   2.70366   2.70959   2.72246
 Alpha virt. eigenvalues --    2.72488   2.72521   2.73017   2.73553   2.73784
 Alpha virt. eigenvalues --    2.74033   2.74453   2.74767   2.75085   2.75959
 Alpha virt. eigenvalues --    2.76228   2.76662   2.76881   2.77255   2.77687
 Alpha virt. eigenvalues --    2.78106   2.78504   2.78677   2.79068   2.79147
 Alpha virt. eigenvalues --    2.79758   2.80306   2.80487   2.81239   2.81608
 Alpha virt. eigenvalues --    2.81902   2.82545   2.82598   2.83196   2.83503
 Alpha virt. eigenvalues --    2.83821   2.84165   2.84473   2.85039   2.85655
 Alpha virt. eigenvalues --    2.85797   2.86205   2.86282   2.86931   2.87090
 Alpha virt. eigenvalues --    2.87207   2.87827   2.88077   2.88353   2.88667
 Alpha virt. eigenvalues --    2.89116   2.89311   2.89984   2.90189   2.90402
 Alpha virt. eigenvalues --    2.90743   2.91389   2.91730   2.92226   2.92525
 Alpha virt. eigenvalues --    2.92800   2.93183   2.93573   2.94006   2.94675
 Alpha virt. eigenvalues --    2.94931   2.95595   2.96028   2.96178   2.96743
 Alpha virt. eigenvalues --    2.96861   2.97323   2.97529   2.98014   2.98313
 Alpha virt. eigenvalues --    2.98810   2.99245   2.99474   2.99735   2.99794
 Alpha virt. eigenvalues --    3.00292   3.00589   3.00962   3.01133   3.01336
 Alpha virt. eigenvalues --    3.02098   3.02462   3.02795   3.03033   3.03310
 Alpha virt. eigenvalues --    3.03605   3.03988   3.04105   3.04403   3.05045
 Alpha virt. eigenvalues --    3.05631   3.05790   3.06346   3.06585   3.06880
 Alpha virt. eigenvalues --    3.07384   3.07523   3.07811   3.08229   3.08556
 Alpha virt. eigenvalues --    3.08846   3.09146   3.09663   3.10051   3.10289
 Alpha virt. eigenvalues --    3.10626   3.10801   3.11326   3.11640   3.11984
 Alpha virt. eigenvalues --    3.12420   3.12700   3.13148   3.13311   3.13411
 Alpha virt. eigenvalues --    3.13918   3.14168   3.14647   3.15028   3.15112
 Alpha virt. eigenvalues --    3.15345   3.15452   3.15637   3.15913   3.16557
 Alpha virt. eigenvalues --    3.16684   3.16952   3.17188   3.17430   3.18067
 Alpha virt. eigenvalues --    3.18136   3.18236   3.18425   3.18757   3.19205
 Alpha virt. eigenvalues --    3.19583   3.19936   3.20102   3.20287   3.20718
 Alpha virt. eigenvalues --    3.20764   3.21047   3.21255   3.22009   3.22221
 Alpha virt. eigenvalues --    3.22404   3.22769   3.22990   3.23334   3.23417
 Alpha virt. eigenvalues --    3.23970   3.24071   3.24510   3.24693   3.24835
 Alpha virt. eigenvalues --    3.25152   3.25336   3.25812   3.26020   3.26275
 Alpha virt. eigenvalues --    3.26445   3.26825   3.27228   3.27445   3.27638
 Alpha virt. eigenvalues --    3.28142   3.28178   3.28670   3.28918   3.29188
 Alpha virt. eigenvalues --    3.29499   3.29538   3.29873   3.30381   3.30642
 Alpha virt. eigenvalues --    3.30903   3.31559   3.32043   3.32221   3.33088
 Alpha virt. eigenvalues --    3.33256   3.33406   3.34021   3.34227   3.34415
 Alpha virt. eigenvalues --    3.34572   3.35601   3.36151   3.36285   3.36557
 Alpha virt. eigenvalues --    3.36806   3.37756   3.38144   3.38490   3.39412
 Alpha virt. eigenvalues --    3.39698   3.40112   3.40369   3.41193   3.41378
 Alpha virt. eigenvalues --    3.41981   3.42208   3.42778   3.43471   3.43689
 Alpha virt. eigenvalues --    3.43944   3.44642   3.44717   3.45048   3.45636
 Alpha virt. eigenvalues --    3.46282   3.46724   3.47197   3.47560   3.48013
 Alpha virt. eigenvalues --    3.48520   3.48613   3.49027   3.49499   3.50196
 Alpha virt. eigenvalues --    3.50612   3.50931   3.51900   3.52250   3.52885
 Alpha virt. eigenvalues --    3.53456   3.54012   3.54688   3.55196   3.55308
 Alpha virt. eigenvalues --    3.55517   3.55872   3.56175   3.56608   3.57593
 Alpha virt. eigenvalues --    3.58680   3.58931   3.59050   3.59151   3.59807
 Alpha virt. eigenvalues --    3.60147   3.60297   3.61313   3.61418   3.61844
 Alpha virt. eigenvalues --    3.62431   3.62703   3.63276   3.63558   3.63723
 Alpha virt. eigenvalues --    3.64267   3.64322   3.64572   3.65167   3.65225
 Alpha virt. eigenvalues --    3.65868   3.67111   3.67165   3.67962   3.68484
 Alpha virt. eigenvalues --    3.68965   3.69708   3.69938   3.70190   3.70824
 Alpha virt. eigenvalues --    3.71661   3.72173   3.72480   3.73556   3.73861
 Alpha virt. eigenvalues --    3.74020   3.75188   3.75936   3.76497   3.76865
 Alpha virt. eigenvalues --    3.76999   3.78331   3.79058   3.79281   3.79491
 Alpha virt. eigenvalues --    3.79936   3.80632   3.81134   3.81222   3.81821
 Alpha virt. eigenvalues --    3.81992   3.82730   3.83240   3.84602   3.85489
 Alpha virt. eigenvalues --    3.86093   3.86783   3.87196   3.87945   3.88376
 Alpha virt. eigenvalues --    3.88955   3.89600   3.89791   3.90128   3.90311
 Alpha virt. eigenvalues --    3.90627   3.91442   3.91911   3.92743   3.92966
 Alpha virt. eigenvalues --    3.93533   3.93745   3.95087   3.95399   3.95552
 Alpha virt. eigenvalues --    3.97281   3.97706   3.98063   3.98999   3.99197
 Alpha virt. eigenvalues --    3.99681   4.00046   4.01190   4.01513   4.01975
 Alpha virt. eigenvalues --    4.02959   4.03136   4.04082   4.04611   4.05299
 Alpha virt. eigenvalues --    4.05963   4.06835   4.07073   4.08033   4.08246
 Alpha virt. eigenvalues --    4.08989   4.09288   4.09906   4.10492   4.11161
 Alpha virt. eigenvalues --    4.11360   4.11755   4.12493   4.13497   4.13578
 Alpha virt. eigenvalues --    4.13934   4.14369   4.15271   4.15672   4.15989
 Alpha virt. eigenvalues --    4.16549   4.17229   4.18598   4.19235   4.19830
 Alpha virt. eigenvalues --    4.20909   4.21269   4.22004   4.22897   4.23007
 Alpha virt. eigenvalues --    4.23633   4.24201   4.24818   4.25158   4.25586
 Alpha virt. eigenvalues --    4.26677   4.27288   4.28573   4.29692   4.30219
 Alpha virt. eigenvalues --    4.30457   4.30554   4.30808   4.31953   4.32091
 Alpha virt. eigenvalues --    4.32514   4.32895   4.33129   4.33530   4.33889
 Alpha virt. eigenvalues --    4.34617   4.34833   4.35445   4.35704   4.36474
 Alpha virt. eigenvalues --    4.36681   4.37364   4.37781   4.39355   4.41085
 Alpha virt. eigenvalues --    4.41262   4.42121   4.42732   4.43747   4.44478
 Alpha virt. eigenvalues --    4.45964   4.46351   4.46867   4.47554   4.48300
 Alpha virt. eigenvalues --    4.49268   4.51405   4.52080   4.52673   4.53664
 Alpha virt. eigenvalues --    4.55026   4.55314   4.57519   4.57926   4.58248
 Alpha virt. eigenvalues --    4.58706   4.59146   4.60374   4.60934   4.61327
 Alpha virt. eigenvalues --    4.61886   4.63556   4.64049   4.64772   4.64995
 Alpha virt. eigenvalues --    4.66377   4.66838   4.68598   4.69344   4.70197
 Alpha virt. eigenvalues --    4.71086   4.72161   4.72462   4.72968   4.73430
 Alpha virt. eigenvalues --    4.73769   4.73937   4.74206   4.74605   4.75567
 Alpha virt. eigenvalues --    4.76871   4.77754   4.78615   4.79179   4.80620
 Alpha virt. eigenvalues --    4.80876   4.82142   4.82466   4.82673   4.83050
 Alpha virt. eigenvalues --    4.83932   4.84533   4.84943   4.86681   4.88380
 Alpha virt. eigenvalues --    4.88854   4.90192   4.90449   4.91307   4.91828
 Alpha virt. eigenvalues --    4.92974   4.93939   4.94913   4.95625   4.96271
 Alpha virt. eigenvalues --    4.97247   4.97953   4.98844   4.99497   4.99856
 Alpha virt. eigenvalues --    5.03261   5.03425   5.04492   5.06658   5.07413
 Alpha virt. eigenvalues --    5.07978   5.08749   5.09411   5.10193   5.11823
 Alpha virt. eigenvalues --    5.12353   5.13150   5.13762   5.14389   5.15801
 Alpha virt. eigenvalues --    5.17222   5.17690   5.18862   5.21796   5.23366
 Alpha virt. eigenvalues --    5.25181   5.25751   5.25835   5.26320   5.26881
 Alpha virt. eigenvalues --    5.27561   5.28021   5.29591   5.29855   5.31634
 Alpha virt. eigenvalues --    5.31970   5.33346   5.35545   5.36766   5.38177
 Alpha virt. eigenvalues --    5.38964   5.39503   5.40553   5.40677   5.41525
 Alpha virt. eigenvalues --    5.44431   5.45601   5.48402   5.50652   5.50906
 Alpha virt. eigenvalues --    5.51443   5.52091   5.53633   5.54536   5.54886
 Alpha virt. eigenvalues --    5.56070   5.56611   5.57600   5.58961   5.62635
 Alpha virt. eigenvalues --    5.65718   5.65862   5.66984   5.69196   5.70296
 Alpha virt. eigenvalues --    5.78004   5.79994   5.80830   5.82474   5.86129
 Alpha virt. eigenvalues --    5.90349   5.90976   5.91489   5.97782   5.99330
 Alpha virt. eigenvalues --    6.00911   6.01306   6.02311   6.05957   6.07072
 Alpha virt. eigenvalues --    6.12624   6.15657   6.23051   6.23736   6.30199
 Alpha virt. eigenvalues --    6.35740   6.40878   6.42989   6.53936   6.85486
 Alpha virt. eigenvalues --    7.16836  22.26840  22.28127  22.34950  22.36749
 Alpha virt. eigenvalues --   22.37574  22.43438  22.44578  22.53238  22.54036
 Alpha virt. eigenvalues --   22.66979  22.76099  22.77934  22.81577  22.83895
 Alpha virt. eigenvalues --   22.84987  22.85345  22.87103  22.92602  22.93455
 Alpha virt. eigenvalues --   22.97656  23.04439  23.17116  23.17935  23.20267
 Alpha virt. eigenvalues --   23.21629  23.30758  23.31480  23.40537  23.40972
 Alpha virt. eigenvalues --   23.45625  23.64105  23.68750  23.70115  23.78981
 Alpha virt. eigenvalues --   32.30027  32.63051  32.77716  32.84421  32.88561
 Alpha virt. eigenvalues --   32.98767  43.94332
  Beta  occ. eigenvalues -- -256.39310 -30.22004 -26.06655 -26.06624 -26.05648
  Beta  occ. eigenvalues --  -19.28627 -14.52608 -14.47347 -14.46762 -14.46566
  Beta  occ. eigenvalues --  -14.46332 -14.46268 -10.37114 -10.34453 -10.33473
  Beta  occ. eigenvalues --  -10.33400 -10.32852 -10.32813 -10.32117 -10.32071
  Beta  occ. eigenvalues --  -10.31975 -10.31898 -10.31886 -10.31159 -10.30993
  Beta  occ. eigenvalues --  -10.30339 -10.30251 -10.30136 -10.30047 -10.29994
  Beta  occ. eigenvalues --  -10.29809 -10.29593 -10.29119 -10.28944 -10.28909
  Beta  occ. eigenvalues --  -10.28850 -10.28744 -10.28412 -10.28219 -10.28130
  Beta  occ. eigenvalues --  -10.28092 -10.27944 -10.27767 -10.27579 -10.27202
  Beta  occ. eigenvalues --  -10.26862  -3.55608  -2.32246  -2.32170  -2.28486
  Beta  occ. eigenvalues --   -1.16567  -1.16384  -1.09150  -1.08335  -1.07857
  Beta  occ. eigenvalues --   -1.07062  -1.02138  -0.93723  -0.92384  -0.91700
  Beta  occ. eigenvalues --   -0.91512  -0.91162  -0.90888  -0.90635  -0.90478
  Beta  occ. eigenvalues --   -0.86788  -0.85453  -0.85323  -0.84372  -0.83037
  Beta  occ. eigenvalues --   -0.82015  -0.81302  -0.80116  -0.78773  -0.78520
  Beta  occ. eigenvalues --   -0.78160  -0.75579  -0.75465  -0.75167  -0.72227
  Beta  occ. eigenvalues --   -0.72184  -0.70786  -0.69929  -0.69136  -0.68570
  Beta  occ. eigenvalues --   -0.66772  -0.65421  -0.64729  -0.63677  -0.63525
  Beta  occ. eigenvalues --   -0.62185  -0.61871  -0.61621  -0.59440  -0.58776
  Beta  occ. eigenvalues --   -0.58630  -0.58415  -0.58013  -0.56477  -0.55290
  Beta  occ. eigenvalues --   -0.55085  -0.54584  -0.54365  -0.53972  -0.53792
  Beta  occ. eigenvalues --   -0.53705  -0.53470  -0.53360  -0.53194  -0.52969
  Beta  occ. eigenvalues --   -0.52562  -0.52085  -0.52020  -0.51943  -0.51278
  Beta  occ. eigenvalues --   -0.50907  -0.50699  -0.50580  -0.50537  -0.50364
  Beta  occ. eigenvalues --   -0.50022  -0.49747  -0.49610  -0.49356  -0.49110
  Beta  occ. eigenvalues --   -0.48721  -0.48450  -0.48161  -0.47980  -0.47708
  Beta  occ. eigenvalues --   -0.47289  -0.47104  -0.46718  -0.46114  -0.45910
  Beta  occ. eigenvalues --   -0.45489  -0.45067  -0.44296  -0.43801  -0.43049
  Beta  occ. eigenvalues --   -0.42674  -0.42199  -0.42085  -0.41479  -0.39574
  Beta  occ. eigenvalues --   -0.39061  -0.37243  -0.36998  -0.36581  -0.34923
  Beta  occ. eigenvalues --   -0.34101  -0.33681  -0.32592  -0.31798  -0.29041
  Beta virt. eigenvalues --   -0.25517  -0.19801  -0.19484  -0.15874  -0.15074
  Beta virt. eigenvalues --   -0.13168  -0.11468  -0.11165  -0.09178  -0.08636
  Beta virt. eigenvalues --   -0.07399  -0.07152  -0.05871  -0.05593  -0.05205
  Beta virt. eigenvalues --   -0.04350  -0.04073  -0.03272  -0.02671  -0.02193
  Beta virt. eigenvalues --   -0.02023  -0.01765  -0.01453  -0.00557  -0.00277
  Beta virt. eigenvalues --   -0.00086   0.00187   0.00364   0.00860   0.00985
  Beta virt. eigenvalues --    0.01588   0.02113   0.02292   0.02551   0.02798
  Beta virt. eigenvalues --    0.02870   0.03343   0.03475   0.03536   0.03865
  Beta virt. eigenvalues --    0.03921   0.04092   0.04226   0.04460   0.04606
  Beta virt. eigenvalues --    0.04838   0.04960   0.05254   0.05403   0.05836
  Beta virt. eigenvalues --    0.06041   0.06134   0.06604   0.06917   0.07196
  Beta virt. eigenvalues --    0.07256   0.07531   0.07617   0.07786   0.08117
  Beta virt. eigenvalues --    0.08272   0.08603   0.08658   0.08874   0.09241
  Beta virt. eigenvalues --    0.09654   0.09989   0.10141   0.10406   0.10863
  Beta virt. eigenvalues --    0.10964   0.11208   0.11248   0.11429   0.11715
  Beta virt. eigenvalues --    0.12117   0.12287   0.12766   0.12929   0.13113
  Beta virt. eigenvalues --    0.13371   0.13772   0.14026   0.14352   0.14509
  Beta virt. eigenvalues --    0.14730   0.15252   0.15542   0.15728   0.16259
  Beta virt. eigenvalues --    0.16585   0.16694   0.16763   0.17166   0.17438
  Beta virt. eigenvalues --    0.17571   0.17649   0.17847   0.18079   0.18473
  Beta virt. eigenvalues --    0.18967   0.19525   0.19677   0.20067   0.20253
  Beta virt. eigenvalues --    0.20534   0.20572   0.20725   0.21064   0.21310
  Beta virt. eigenvalues --    0.21744   0.21947   0.22025   0.22151   0.22484
  Beta virt. eigenvalues --    0.22597   0.23343   0.23684   0.23877   0.24005
  Beta virt. eigenvalues --    0.24107   0.24461   0.24642   0.24824   0.24953
  Beta virt. eigenvalues --    0.25562   0.25909   0.26016   0.26181   0.26463
  Beta virt. eigenvalues --    0.27063   0.27269   0.27600   0.27892   0.27921
  Beta virt. eigenvalues --    0.28479   0.28885   0.29109   0.29215   0.29420
  Beta virt. eigenvalues --    0.29727   0.30176   0.30221   0.30271   0.30718
  Beta virt. eigenvalues --    0.30880   0.31028   0.31323   0.31483   0.31732
  Beta virt. eigenvalues --    0.31987   0.32121   0.32256   0.32566   0.32755
  Beta virt. eigenvalues --    0.33051   0.33137   0.33302   0.33635   0.33910
  Beta virt. eigenvalues --    0.34108   0.34323   0.34548   0.34969   0.35171
  Beta virt. eigenvalues --    0.35499   0.35664   0.35857   0.35970   0.36182
  Beta virt. eigenvalues --    0.36570   0.36828   0.37047   0.37348   0.37413
  Beta virt. eigenvalues --    0.37736   0.37786   0.38202   0.38408   0.38480
  Beta virt. eigenvalues --    0.38946   0.39082   0.39267   0.39456   0.39575
  Beta virt. eigenvalues --    0.39862   0.39933   0.40356   0.40583   0.40757
  Beta virt. eigenvalues --    0.41007   0.41337   0.41621   0.41744   0.42015
  Beta virt. eigenvalues --    0.42307   0.42465   0.42710   0.42901   0.43017
  Beta virt. eigenvalues --    0.43147   0.43412   0.43737   0.43901   0.44026
  Beta virt. eigenvalues --    0.44306   0.44410   0.44883   0.45036   0.45389
  Beta virt. eigenvalues --    0.45532   0.45660   0.45984   0.46145   0.46605
  Beta virt. eigenvalues --    0.46820   0.46997   0.47274   0.47602   0.47690
  Beta virt. eigenvalues --    0.47915   0.48351   0.48504   0.48566   0.48613
  Beta virt. eigenvalues --    0.49026   0.49370   0.49613   0.50103   0.50574
  Beta virt. eigenvalues --    0.50891   0.51137   0.51210   0.51847   0.52205
  Beta virt. eigenvalues --    0.52321   0.52887   0.53167   0.53429   0.53700
  Beta virt. eigenvalues --    0.54139   0.54349   0.54414   0.54681   0.55005
  Beta virt. eigenvalues --    0.55197   0.55598   0.55865   0.55984   0.56279
  Beta virt. eigenvalues --    0.56584   0.56787   0.56955   0.57374   0.57724
  Beta virt. eigenvalues --    0.57828   0.58688   0.59042   0.59290   0.59575
  Beta virt. eigenvalues --    0.59759   0.60423   0.60671   0.61185   0.61397
  Beta virt. eigenvalues --    0.61608   0.61900   0.62345   0.62661   0.62734
  Beta virt. eigenvalues --    0.63424   0.63571   0.63732   0.64115   0.64237
  Beta virt. eigenvalues --    0.64850   0.64883   0.65097   0.65543   0.66278
  Beta virt. eigenvalues --    0.66575   0.66687   0.67307   0.67441   0.67997
  Beta virt. eigenvalues --    0.68079   0.68239   0.68608   0.69034   0.69582
  Beta virt. eigenvalues --    0.69862   0.70291   0.70536   0.71151   0.71277
  Beta virt. eigenvalues --    0.71558   0.72026   0.72698   0.73089   0.73179
  Beta virt. eigenvalues --    0.73716   0.74319   0.74711   0.74973   0.75137
  Beta virt. eigenvalues --    0.75387   0.75954   0.76307   0.76627   0.76997
  Beta virt. eigenvalues --    0.77511   0.77623   0.78347   0.78881   0.79116
  Beta virt. eigenvalues --    0.79308   0.79874   0.80256   0.80771   0.80882
  Beta virt. eigenvalues --    0.81134   0.81714   0.81893   0.82593   0.82849
  Beta virt. eigenvalues --    0.83127   0.83572   0.83918   0.84696   0.85141
  Beta virt. eigenvalues --    0.85409   0.85557   0.85858   0.86299   0.86556
  Beta virt. eigenvalues --    0.87114   0.87372   0.87603   0.87857   0.88281
  Beta virt. eigenvalues --    0.89131   0.89311   0.89462   0.89654   0.90069
  Beta virt. eigenvalues --    0.90383   0.90814   0.91209   0.91387   0.91730
  Beta virt. eigenvalues --    0.92102   0.92367   0.92587   0.92831   0.93381
  Beta virt. eigenvalues --    0.93398   0.93625   0.94078   0.94218   0.94513
  Beta virt. eigenvalues --    0.94707   0.94820   0.95462   0.96083   0.96503
  Beta virt. eigenvalues --    0.96952   0.97121   0.97175   0.97755   0.98238
  Beta virt. eigenvalues --    0.98711   0.99153   0.99394   0.99944   1.00032
  Beta virt. eigenvalues --    1.00664   1.01008   1.01252   1.02028   1.02172
  Beta virt. eigenvalues --    1.02727   1.03279   1.03890   1.04302   1.04862
  Beta virt. eigenvalues --    1.05887   1.06055   1.06605   1.06962   1.07002
  Beta virt. eigenvalues --    1.07636   1.08032   1.08220   1.08621   1.09093
  Beta virt. eigenvalues --    1.09380   1.09716   1.09886   1.10367   1.10874
  Beta virt. eigenvalues --    1.11058   1.11232   1.11721   1.12183   1.12722
  Beta virt. eigenvalues --    1.12998   1.13634   1.13846   1.14257   1.14780
  Beta virt. eigenvalues --    1.15805   1.15963   1.16615   1.16659   1.17165
  Beta virt. eigenvalues --    1.17407   1.18152   1.18492   1.18811   1.19007
  Beta virt. eigenvalues --    1.19026   1.19604   1.19737   1.20170   1.20242
  Beta virt. eigenvalues --    1.20795   1.21132   1.21391   1.21975   1.22334
  Beta virt. eigenvalues --    1.22484   1.23108   1.23729   1.24609   1.25615
  Beta virt. eigenvalues --    1.26138   1.26585   1.27041   1.27285   1.28062
  Beta virt. eigenvalues --    1.28398   1.28910   1.29404   1.30026   1.30751
  Beta virt. eigenvalues --    1.31180   1.32180   1.32915   1.33468   1.33886
  Beta virt. eigenvalues --    1.34285   1.34769   1.35201   1.35534   1.36141
  Beta virt. eigenvalues --    1.36702   1.36766   1.37147   1.37369   1.37666
  Beta virt. eigenvalues --    1.38111   1.38492   1.38661   1.39141   1.39418
  Beta virt. eigenvalues --    1.39661   1.39987   1.40451   1.40773   1.41058
  Beta virt. eigenvalues --    1.41438   1.41703   1.41811   1.42055   1.42704
  Beta virt. eigenvalues --    1.43033   1.43291   1.43465   1.43769   1.44099
  Beta virt. eigenvalues --    1.44162   1.44410   1.44600   1.44877   1.45133
  Beta virt. eigenvalues --    1.45460   1.45524   1.45931   1.45990   1.46517
  Beta virt. eigenvalues --    1.46640   1.46936   1.47170   1.47196   1.47858
  Beta virt. eigenvalues --    1.47983   1.48152   1.48519   1.48720   1.48791
  Beta virt. eigenvalues --    1.49115   1.49384   1.49469   1.49971   1.50774
  Beta virt. eigenvalues --    1.50933   1.51401   1.51559   1.51632   1.52370
  Beta virt. eigenvalues --    1.52641   1.52787   1.53098   1.53195   1.53456
  Beta virt. eigenvalues --    1.53948   1.54540   1.54604   1.54898   1.55272
  Beta virt. eigenvalues --    1.55505   1.55763   1.56213   1.56608   1.56839
  Beta virt. eigenvalues --    1.57475   1.57752   1.58135   1.58574   1.58791
  Beta virt. eigenvalues --    1.59039   1.59372   1.59795   1.59994   1.60507
  Beta virt. eigenvalues --    1.60794   1.61362   1.61506   1.61618   1.62179
  Beta virt. eigenvalues --    1.62621   1.63032   1.63518   1.64296   1.64402
  Beta virt. eigenvalues --    1.64844   1.65283   1.65889   1.66284   1.67099
  Beta virt. eigenvalues --    1.67866   1.68527   1.69146   1.70012   1.70438
  Beta virt. eigenvalues --    1.70690   1.71341   1.71602   1.71930   1.72551
  Beta virt. eigenvalues --    1.72872   1.73338   1.73469   1.74371   1.74614
  Beta virt. eigenvalues --    1.75050   1.75623   1.75846   1.76602   1.76733
  Beta virt. eigenvalues --    1.77085   1.77284   1.77783   1.78142   1.78585
  Beta virt. eigenvalues --    1.78728   1.79187   1.79429   1.79676   1.80984
  Beta virt. eigenvalues --    1.81283   1.81735   1.82562   1.82774   1.83221
  Beta virt. eigenvalues --    1.83440   1.83598   1.85001   1.85461   1.85790
  Beta virt. eigenvalues --    1.86608   1.87117   1.87684   1.88073   1.88093
  Beta virt. eigenvalues --    1.88160   1.88823   1.89388   1.89650   1.90202
  Beta virt. eigenvalues --    1.90600   1.90903   1.91560   1.91949   1.92063
  Beta virt. eigenvalues --    1.92226   1.92810   1.93500   1.94023   1.94617
  Beta virt. eigenvalues --    1.95302   1.95632   1.96084   1.97037   1.97405
  Beta virt. eigenvalues --    1.98046   1.98455   1.98599   1.99113   1.99403
  Beta virt. eigenvalues --    1.99875   2.00148   2.00842   2.01412   2.01677
  Beta virt. eigenvalues --    2.01925   2.03012   2.03221   2.03608   2.03886
  Beta virt. eigenvalues --    2.04590   2.04738   2.05333   2.05495   2.05745
  Beta virt. eigenvalues --    2.06533   2.06909   2.07641   2.08453   2.08602
  Beta virt. eigenvalues --    2.09123   2.09351   2.09505   2.10044   2.10369
  Beta virt. eigenvalues --    2.11005   2.11258   2.12156   2.12559   2.13197
  Beta virt. eigenvalues --    2.13699   2.14176   2.14948   2.15592   2.16152
  Beta virt. eigenvalues --    2.16461   2.16834   2.17326   2.17852   2.18135
  Beta virt. eigenvalues --    2.18613   2.19067   2.19236   2.20088   2.20271
  Beta virt. eigenvalues --    2.20481   2.21069   2.21395   2.21511   2.22218
  Beta virt. eigenvalues --    2.23208   2.23393   2.23753   2.23907   2.25253
  Beta virt. eigenvalues --    2.25309   2.25677   2.26381   2.26835   2.27187
  Beta virt. eigenvalues --    2.27339   2.28071   2.28285   2.28495   2.28789
  Beta virt. eigenvalues --    2.29473   2.29704   2.30195   2.30284   2.30391
  Beta virt. eigenvalues --    2.31256   2.31962   2.32185   2.32380   2.33068
  Beta virt. eigenvalues --    2.34137   2.34729   2.35006   2.35025   2.35451
  Beta virt. eigenvalues --    2.35729   2.35864   2.36185   2.36654   2.37065
  Beta virt. eigenvalues --    2.37726   2.37865   2.38417   2.38524   2.39338
  Beta virt. eigenvalues --    2.39861   2.40484   2.40962   2.41514   2.41982
  Beta virt. eigenvalues --    2.42459   2.43025   2.43437   2.43724   2.43988
  Beta virt. eigenvalues --    2.44048   2.44829   2.45075   2.45561   2.46031
  Beta virt. eigenvalues --    2.46275   2.46829   2.47039   2.47254   2.47693
  Beta virt. eigenvalues --    2.47865   2.48378   2.48805   2.49405   2.49711
  Beta virt. eigenvalues --    2.49881   2.50113   2.50507   2.51032   2.51046
  Beta virt. eigenvalues --    2.51551   2.51977   2.52529   2.52888   2.53384
  Beta virt. eigenvalues --    2.53853   2.54450   2.54992   2.55273   2.55576
  Beta virt. eigenvalues --    2.56247   2.56515   2.56594   2.56837   2.57238
  Beta virt. eigenvalues --    2.57908   2.58070   2.58362   2.58485   2.59066
  Beta virt. eigenvalues --    2.59419   2.60098   2.60578   2.61032   2.61163
  Beta virt. eigenvalues --    2.61447   2.61583   2.62571   2.62943   2.62998
  Beta virt. eigenvalues --    2.63629   2.64319   2.64882   2.65127   2.65718
  Beta virt. eigenvalues --    2.66094   2.66368   2.66839   2.67169   2.67656
  Beta virt. eigenvalues --    2.68238   2.68513   2.68620   2.68919   2.69108
  Beta virt. eigenvalues --    2.70009   2.70100   2.70782   2.71351   2.72666
  Beta virt. eigenvalues --    2.72733   2.72938   2.73312   2.73771   2.74077
  Beta virt. eigenvalues --    2.74402   2.74875   2.75151   2.75395   2.76356
  Beta virt. eigenvalues --    2.76649   2.76928   2.77260   2.77561   2.78138
  Beta virt. eigenvalues --    2.78484   2.78892   2.79123   2.79395   2.79550
  Beta virt. eigenvalues --    2.80213   2.80738   2.80842   2.81518   2.81859
  Beta virt. eigenvalues --    2.82236   2.82805   2.83156   2.83427   2.83968
  Beta virt. eigenvalues --    2.84141   2.84516   2.84808   2.85323   2.85949
  Beta virt. eigenvalues --    2.86211   2.86513   2.86688   2.87149   2.87413
  Beta virt. eigenvalues --    2.87596   2.88110   2.88406   2.88702   2.88992
  Beta virt. eigenvalues --    2.89442   2.89629   2.90258   2.90526   2.90909
  Beta virt. eigenvalues --    2.91020   2.91690   2.92142   2.92472   2.92884
  Beta virt. eigenvalues --    2.93148   2.93462   2.93841   2.94356   2.95060
  Beta virt. eigenvalues --    2.95312   2.95904   2.96417   2.96438   2.97087
  Beta virt. eigenvalues --    2.97165   2.97515   2.97776   2.98331   2.98586
  Beta virt. eigenvalues --    2.99119   2.99564   2.99831   2.99968   3.00063
  Beta virt. eigenvalues --    3.00560   3.00903   3.01287   3.01456   3.01664
  Beta virt. eigenvalues --    3.02380   3.02944   3.03053   3.03399   3.03640
  Beta virt. eigenvalues --    3.03832   3.04339   3.04358   3.04717   3.05287
  Beta virt. eigenvalues --    3.05895   3.06215   3.06621   3.06918   3.07190
  Beta virt. eigenvalues --    3.07745   3.07863   3.08167   3.08507   3.08814
  Beta virt. eigenvalues --    3.09177   3.09418   3.09898   3.10284   3.10631
  Beta virt. eigenvalues --    3.10955   3.11111   3.11593   3.12047   3.12341
  Beta virt. eigenvalues --    3.12752   3.13137   3.13449   3.13510   3.13810
  Beta virt. eigenvalues --    3.14249   3.14636   3.14946   3.15313   3.15395
  Beta virt. eigenvalues --    3.15676   3.15777   3.15952   3.16330   3.16814
  Beta virt. eigenvalues --    3.17027   3.17326   3.17577   3.17743   3.18332
  Beta virt. eigenvalues --    3.18455   3.18501   3.18721   3.19022   3.19462
  Beta virt. eigenvalues --    3.19836   3.20224   3.20278   3.20642   3.20920
  Beta virt. eigenvalues --    3.21053   3.21221   3.21510   3.22287   3.22430
  Beta virt. eigenvalues --    3.22671   3.23029   3.23286   3.23547   3.23687
  Beta virt. eigenvalues --    3.24258   3.24340   3.24834   3.25016   3.25077
  Beta virt. eigenvalues --    3.25484   3.25739   3.25993   3.26263   3.26467
  Beta virt. eigenvalues --    3.26675   3.27045   3.27479   3.27677   3.27930
  Beta virt. eigenvalues --    3.28371   3.28441   3.28858   3.29239   3.29452
  Beta virt. eigenvalues --    3.29735   3.29791   3.30232   3.30765   3.31008
  Beta virt. eigenvalues --    3.31272   3.31860   3.32386   3.32584   3.33343
  Beta virt. eigenvalues --    3.33668   3.33685   3.34352   3.34653   3.34698
  Beta virt. eigenvalues --    3.34915   3.35898   3.36458   3.36551   3.36842
  Beta virt. eigenvalues --    3.37172   3.38071   3.38535   3.38930   3.39695
  Beta virt. eigenvalues --    3.39980   3.40398   3.40690   3.41489   3.41630
  Beta virt. eigenvalues --    3.42217   3.42612   3.43030   3.43735   3.43992
  Beta virt. eigenvalues --    3.44399   3.44914   3.45169   3.45375   3.45939
  Beta virt. eigenvalues --    3.46540   3.47006   3.47793   3.47890   3.48393
  Beta virt. eigenvalues --    3.48877   3.49072   3.49493   3.49991   3.50688
[...]
  1389. RY*(   9) N  76                  0.00005     2.35697   
  1390. RY*(  10) N  76                  0.00004     3.23772   
  1391. RY*(  11) N  76                  0.00002     2.87836   
  1392. RY*(  12) N  76                  0.00003     3.24275   
  1393. RY*(  13) N  76                  0.00002     3.15903   
  1394. RY*(  14) N  76                  0.00001     4.31691   
  1395. RY*(  15) N  76                  0.00001     4.73578   
  1396. RY*(  16) N  76                  0.00001     3.48034   
  1397. RY*(  17) N  76                  0.00000     4.70577   
  1398. RY*(  18) N  76                  0.00000    31.47018   
  1399. RY*(  19) N  76                  0.00000     4.47481   
  1400. RY*(  20) N  76                  0.00000     4.28212   
  1401. RY*(  21) N  76                  0.00001     4.95332   
  1402. RY*(  22) N  76                  0.00000     3.94984   
  1403. RY*(  23) N  76                  0.00000     4.53096   
  1404. RY*(  24) N  76                  0.00000     4.64347   
  1405. RY*(  25) N  76                  0.00000     4.36532   
  1406. RY*(  26) N  76                  0.00000     4.41957   
  1407. RY*(   1) C  77                  0.00189     1.38224   
  1408. RY*(   2) C  77                  0.00121     0.61704   
  1409. RY*(   3) C  77                  0.00080     1.73089   
  1410. RY*(   4) C  77                  0.00031     1.71936   
  1411. RY*(   5) C  77                  0.00025     1.76635   
  1412. RY*(   6) C  77                  0.00019     1.80359   
  1413. RY*(   7) C  77                  0.00017     1.82402   
  1414. RY*(   8) C  77                  0.00013     1.86438   
  1415. RY*(   9) C  77                  0.00009     1.95007   
  1416. RY*(  10) C  77                  0.00007     1.66264   
  1417. RY*(  11) C  77                  0.00006     1.27296   
  1418. RY*(  12) C  77                  0.00003     1.87071   
  1419. RY*(  13) C  77                  0.00001     3.19081   
  1420. RY*(  14) C  77                  0.00002     2.70695   
  1421. RY*(  15) C  77                  0.00001     1.20458   
  1422. RY*(  16) C  77                  0.00002     2.78627   
  1423. RY*(  17) C  77                  0.00001     3.47900   
  1424. RY*(  18) C  77                  0.00000     3.12362   
  1425. RY*(  19) C  77                  0.00000    20.92792   
  1426. RY*(  20) C  77                  0.00000     3.88377   
  1427. RY*(  21) C  77                  0.00000     3.68728   
  1428. RY*(  22) C  77                  0.00000     3.33934   
  1429. RY*(  23) C  77                  0.00000     3.74465   
  1430. RY*(  24) C  77                  0.00000     3.32399   
  1431. RY*(  25) C  77                  0.00000     3.59633   
  1432. RY*(  26) C  77                  0.00000     3.26514   
  1433. RY*(   1) H  78                  0.00026     0.97077   
  1434. RY*(   2) H  78                  0.00016     1.90747   
  1435. RY*(   3) H  78                  0.00011     2.20025   
  1436. RY*(   4) H  78                  0.00003     2.63401   
  1437. RY*(   5) H  78                  0.00000     2.98838   
  1438. BD*(   1)Fe   1 - N   4          0.05936     0.17177   
  1439. BD*(   1)Fe   1 - N   5          0.06113     0.17712   
  1440. BD*(   1)Fe   1 - N  76          0.03673     0.14233   
  1441. BD*(   1) N   2 - C   6          0.01382     0.39130   
  1442. BD*(   2) N   2 - C   6          0.33030    -0.10350  158(v),149(r),154(v),1456(v)
                                                    150(r),298(g),194(g),151(r)
  1443. BD*(   1) N   2 - C   9          0.01383     0.39330   
  1444. BD*(   1) N   3 - C  10          0.01369     0.38940   
  1445. BD*(   2) N   3 - C  10          0.31789    -0.10241  159(v),150(r),1464(v),155(v)
                                                    149(r),402(g),220(g),1451(r)
                                                    151(r)
  1446. BD*(   1) N   3 - C  13          0.01321     0.39345   
  1447. BD*(   1) N   4 - C  14          0.01410     0.39924   
  1448. BD*(   2) N   4 - C  14          0.33600    -0.09863  149(v),160(v),150(v),1472(v)
                                                    156(v),506(g),246(g),151(v)
                                                    779(v)
  1449. BD*(   1) N   4 - C  17          0.01387     0.39902   
  1450. BD*(   1) N   5 - C  18          0.01462     0.39402   
  1451. BD*(   2) N   5 - C  18          0.31378    -0.10176  150(v),161(v),149(v),157(v)
                                                    1480(v),610(g),272(g)
                                                    1445(r),151(v),689(v),807(v)
  1452. BD*(   1) N   5 - C  21          0.01437     0.39476   
  1453. BD*(   1) C   6 - C   7          0.01708     0.38934   
  1454. BD*(   1) C   6 - C  22          0.01011     0.46723   
  1455. BD*(   1) C   7 - C   8          0.01142     0.50905   
  1456. BD*(   2) C   7 - C   8          0.11701    -0.02264  1442(v),154(v),1493(v)
                                                    1492(v),1491(v),1490(v)
  1457. BD*(   1) C   7 - C  34          0.00809     0.32353   
  1458. BD*(   1) C   8 - C   9          0.01735     0.38993   
  1459. BD*(   1) C   8 - C  30          0.00810     0.32120   
  1460. BD*(   1) C   9 - C  24          0.01026     0.46774   
  1461. BD*(   1) C  10 - C  11          0.01732     0.38636   
  1462. BD*(   1) C  10 - C  24          0.01055     0.46043   
  1463. BD*(   1) C  11 - C  12          0.01265     0.48848   
  1464. BD*(   2) C  11 - C  12          0.14315    -0.03921  1500(v),1445(v),155(v)
                                                    1496(v),1495(v)
  1465. BD*(   1) C  11 - C  38          0.00771     0.31754   
  1466. BD*(   1) C  12 - C  13          0.01713     0.37503   
  1467. BD*(   1) C  12 - C  42          0.01331     0.39900   
  1468. BD*(   1) C  13 - C  26          0.01004     0.47185   
  1469. BD*(   1) C  14 - C  15          0.01664     0.39857   
  1470. BD*(   1) C  14 - C  26          0.01027     0.47113   
  1471. BD*(   1) C  15 - C  16          0.01244     0.49833   
  1472. BD*(   2) C  15 - C  16          0.13022    -0.02132  1508(v),1448(v),156(v)
                                                    1503(v),1504(v)
  1473. BD*(   1) C  15 - C  47          0.00767     0.32928   
  1474. BD*(   1) C  16 - C  17          0.01693     0.38647   
  1475. BD*(   1) C  16 - C  51          0.01326     0.40758   
  1476. BD*(   1) C  17 - C  28          0.01006     0.46341   
  1477. BD*(   1) C  18 - C  19          0.01759     0.37803   
  1478. BD*(   1) C  18 - C  28          0.01031     0.46460   
  1479. BD*(   1) C  19 - C  20          0.01144     0.50260   
  1480. BD*(   2) C  19 - C  20          0.12716    -0.03604  1451(v),157(v),1512(v)
                                                    1515(v),1511(v),1516(v)
  1481. BD*(   1) C  19 - C  56          0.00799     0.31617   
  1482. BD*(   1) C  20 - C  21          0.01738     0.37667   
  1483. BD*(   1) C  20 - C  60          0.00807     0.31663   
  1484. BD*(   1) C  21 - C  22          0.01005     0.46812   
  1485. BD*(   1) C  22 - H  23          0.00614     0.32970   
  1486. BD*(   1) C  24 - H  25          0.00633     0.32958   
  1487. BD*(   1) C  26 - H  27          0.00657     0.33191   
  1488. BD*(   1) C  28 - H  29          0.00643     0.33091   
  1489. BD*(   1) C  30 - H  31          0.00307     0.30535   
  1490. BD*(   1) C  30 - H  32          0.00451     0.29053   
  1491. BD*(   1) C  30 - H  33          0.00454     0.29199   
  1492. BD*(   1) C  34 - H  35          0.00411     0.29478   
  1493. BD*(   1) C  34 - H  36          0.00412     0.29434   
  1494. BD*(   1) C  34 - H  37          0.00305     0.30662   
  1495. BD*(   1) C  38 - H  39          0.00429     0.29404   
  1496. BD*(   1) C  38 - H  40          0.00537     0.28670   
  1497. BD*(   1) C  38 - H  41          0.00379     0.30452   
  1498. BD*(   1) C  42 - H  43          0.01024     0.33335   
  1499. BD*(   1) C  42 - C  44          0.00365     0.54231   
  1500. BD*(   2) C  42 - C  44          0.02974    -0.02987   
  1501. BD*(   1) C  44 - H  45          0.00517     0.34816   
  1502. BD*(   1) C  44 - H  46          0.00386     0.35384   
  1503. BD*(   1) C  47 - H  48          0.00483     0.29791   
  1504. BD*(   1) C  47 - H  49          0.00390     0.30336   
  1505. BD*(   1) C  47 - H  50          0.00368     0.31217   
  1506. BD*(   1) C  51 - H  52          0.01024     0.33631   
  1507. BD*(   1) C  51 - C  53          0.00370     0.54944   
  1508. BD*(   2) C  51 - C  53          0.02978    -0.02457   
  1509. BD*(   1) C  53 - H  54          0.00514     0.35577   
  1510. BD*(   1) C  53 - H  55          0.00387     0.35892   
  1511. BD*(   1) C  56 - H  57          0.00441     0.29080   
  1512. BD*(   1) C  56 - H  58          0.00444     0.28854   
  1513. BD*(   1) C  56 - H  59          0.00301     0.30275   
  1514. BD*(   1) C  60 - H  61          0.00297     0.30360   
  1515. BD*(   1) C  60 - H  62          0.00444     0.29036   
  1516. BD*(   1) C  60 - H  63          0.00442     0.29117   
  1519. BD*(   1) C  67 - H  68          0.00156     0.28462   
  1520. BD*(   1) C  67 - H  69          0.00513     0.27352   
  1521. BD*(   1) C  67 - H  70          0.00491     0.27277   
  1522. BD*(   1) C  67 - C  73          0.00619     0.29264   
  1523. BD*(   1) N  71 - H  72          0.00652     0.26912   
  1524. BD*(   1) N  71 - C  73          0.01360     0.32342   
  1525. BD*(   2) N  71 - C  73          0.37169    -0.15033  1530(v),1520(v),1521(v)
                                                    1293(g),1325(g),1254(v)
                                                    1330(g)
  1526. BD*(   1) N  71 - C  74          0.01052     0.33584   
  1527. BD*(   1) C  73 - C  77          0.01045     0.45739   
  1528. BD*(   1) C  74 - H  75          0.00841     0.27685   
  1529. BD*(   1) C  74 - N  76          0.00829     0.41736   
  1530. BD*(   2) C  74 - N  76          0.21793    -0.12264  1525(v),149(v),1351(g)
                                                    150(v)
  1531. BD*(   1) N  76 - C  77          0.00793     0.36569   
  1532. BD*(   1) C  77 - H  78          0.00690     0.31826   
       -------------------------------
              Total Lewis  144.54292  ( 96.2914%)
        Valence non-Lewis    5.28853  (  3.5231%)
        Rydberg non-Lewis    0.27845  (  0.1855%)
       -------------------------------
            Total unit  1  150.10990  (100.0000%)
           Charge unit  1    2.89010
 
 Molecular unit  2  (H2O)
    80. BD (   1) O  64 - H  65          0.99348    -0.92818  151(r),1248(v),149(r),166(r)
                                                    1440(r),147(r),148(r),150(r)
                                                    1382(r),246(r),251(r),171(r)
                                                    167(r),169(r),198(r),247(r)
                                                    1438(r),245(r)
    81. BD (   1) O  64 - H  66          0.99705    -0.98997  151(r),1440(r),166(r)
                                                    1244(v),167(r),169(r),198(r)
                                                    1384(r),149(r),194(r),195(r)
                                                    148(r),193(r),1382(r),170(r)
   139. CR (   1) O  64                  0.99991   -19.07645  151(r),1248(v),1440(r)
                                                    1244(v),169(r),1438(r)
   162. LP (   1) O  64                  0.98539    -0.44790  147(r),148(r),1247(v)
                                                    1242(v),150(r),1439(r)
                                                    149(r),1383(r),225(r),220(r)
                                                    1451(r),151(r),1445(r)
   163. LP (   2) O  64                  0.90881    -0.60880  151(r),1440(r),1517(g)
                                                    1248(v),1243(v),1518(g)
                                                    171(r),169(r),1384(r),219(r)
                                                    271(r),193(r),273(r),221(r)
                                                    220(r),195(r),272(r),245(r)
                                                    194(r),148(r),247(r),166(r)
                                                    1450(r),167(r),246(r)
                                                    1452(r)
  1216. RY*(   1) O  64                  0.00025     1.38086   
  1217. RY*(   2) O  64                  0.00020     0.54014   
  1218. RY*(   3) O  64                  0.00016     1.07724   
  1219. RY*(   4) O  64                  0.00008     0.76177   
  1220. RY*(   5) O  64                  0.00002     2.11436   
  1221. RY*(   6) O  64                  0.00002     2.22376   
  1222. RY*(   7) O  64                  0.00000     3.10247   
  1223. RY*(   8) O  64                  0.00000     4.38372   
  1224. RY*(   9) O  64                  0.00001     3.11187   
  1225. RY*(  10) O  64                  0.00001     2.67919   
  1226. RY*(  11) O  64                  0.00000     6.28671   
  1227. RY*(  12) O  64                  0.00000     2.87628   
  1228. RY*(  13) O  64                  0.00000     6.34390   
  1229. RY*(  14) O  64                  0.00000    42.75826   
  1230. RY*(  15) O  64                  0.00000     6.38463   
  1231. RY*(  16) O  64                  0.00000     2.04908   
  1232. RY*(  17) O  64                  0.00000     6.07898   
  1233. RY*(  18) O  64                  0.00000     2.34331   
  1234. RY*(  19) O  64                  0.00000     6.37978   
  1235. RY*(  20) O  64                  0.00000     5.23694   
  1236. RY*(  21) O  64                  0.00000     5.25434   
  1237. RY*(  22) O  64                  0.00000     5.42851   
  1238. RY*(  23) O  64                  0.00000     5.19367   
  1239. RY*(  24) O  64                  0.00000     5.54951   
  1240. RY*(  25) O  64                  0.00000     5.43642   
  1241. RY*(  26) O  64                  0.00000     5.32181   
  1242. RY*(   1) H  65                  0.00040     1.84816   
  1243. RY*(   2) H  65                  0.00037     1.38229   
  1244. RY*(   3) H  65                  0.00022     1.72569   
  1245. RY*(   4) H  65                  0.00008     1.79826   
  1246. RY*(   5) H  65                  0.00001     2.77735   
  1247. RY*(   1) H  66                  0.00045     1.89986   
  1248. RY*(   2) H  66                  0.00039     2.01754   
  1249. RY*(   3) H  66                  0.00020     1.60863   
  1250. RY*(   4) H  66                  0.00011     1.09040   
  1251. RY*(   5) H  66                  0.00000     2.90982   
  1517. BD*(   1) O  64 - H  65          0.00144     0.31710   
  1518. BD*(   1) O  64 - H  66          0.00093     0.49464   
       -------------------------------
              Total Lewis    4.88464  ( 99.8903%)
        Valence non-Lewis    0.00237  (  0.0484%)
        Rydberg non-Lewis    0.00300  (  0.0614%)
       -------------------------------
            Total unit  2    4.89000  (100.0000%)
           Charge unit  2    0.11000
 Unable to Open any file for archive entry.
 1\1\GINC-BGN1011\SP\UAPFD\def2TZVP\C34H36Fe1N6O1(1+,6)\BECSLEIP\20-Sep
 -2024\0\\# apfd/def2TZVP guess=read scf=maxcycle=999 geom=check pop=nb
 o\\5d6m_III_H\\1,6\Fe,0,23.9345011522,12.4830866766,54.6217041428\N,0,
 25.9026577061,12.6666805004,55.0359833478\N,0,23.5888841894,12.4513693
 278,56.6305895957\N,0,21.9677613972,12.4232637934,54.3109704993\N,0,24
 .2964434186,12.6613082611,52.6947869847\C,0,26.8977475777,12.770123228
 2,54.1121067183\C,0,28.1904603153,12.8225103855,54.756517494\C,0,27.95
 40741831,12.7510849709,56.0946059605\C,0,26.5203677574,12.6563372425,5
 6.2479297023\C,0,24.5085681139,12.4765758564,57.6342995485\C,0,23.8739
 079156,12.3644957959,58.9227594811\C,0,22.5300119554,12.2696313291,58.
 6803614091\C,0,22.3793816016,12.3374367555,57.2390305784\C,0,20.972412
 581,12.320469683,55.2304889014\C,0,19.6846050451,12.2496370004,54.5888
 08268\C,0,19.9208365712,12.3328607503,53.2417099836\C,0,21.3610511416,
 12.4327790813,53.0957883218\C,0,23.3734085306,12.6454852589,51.6983846
 899\C,0,24.0197218804,12.7139155398,50.4048717677\C,0,25.3545182209,12
 .7978930556,50.6499120483\C,0,25.507508012,12.7543941576,52.088622611\
 C,0,26.7239235982,12.820649712,52.7404118733\H,0,27.6113052165,12.9023
 544692,52.1313194486\C,0,25.879898663,12.564701612,57.4672255761\H,0,2
 6.4946089076,12.5613433356,58.354312987\C,0,21.1570283027,12.282394885
 9,56.6003121397\H,0,20.2762617596,12.1936504422,57.2175732157\C,0,22.0
 06119764,12.5433056154,51.8758067785\H,0,21.3925624857,12.5533246278,5
 0.9874561322\C,0,28.9210360207,12.7681654013,57.2290247366\H,0,29.9428
 878958,12.8440115394,56.8654578767\H,0,28.835129149,11.8571558143,57.8
 220949113\H,0,28.7272821145,13.6169694542,57.8855721796\C,0,29.4885723
 787,12.9396635256,54.0336232079\H,0,29.5136833402,13.8509739639,53.435
 493856\H,0,29.6316981121,12.0919941108,53.3629172506\H,0,30.320467052,
 12.9670257005,54.733405075\C,0,24.5773350701,12.42149276,60.2342881247
 \H,0,25.3875526074,13.1487814086,60.2063051814\H,0,25.004275311,11.450
 5043108,60.4917642896\H,0,23.8799718202,12.7079048229,61.0188258617\C,
 0,21.4391132615,12.1616157416,59.623681375\H,0,20.5207181933,12.661623
 2592,59.3384518803\C,0,21.4821368783,11.5065590107,60.7793716649\H,0,2
 2.350644016,10.9534251703,61.0922672308\H,0,20.6348436191,11.479844957
 3,61.4444296297\C,0,18.3870432725,12.0550144507,55.2929463637\H,0,18.0
 03971355,13.0028045278,55.6752014103\H,0,18.5053052595,11.3749606978,5
 6.1352753906\H,0,17.6503034756,11.6377048085,54.6095216061\C,0,18.9795
 689431,12.3005816069,52.1447103754\H,0,19.3388676567,11.8400539166,51.
 2315659194\C,0,17.7438580941,12.7901568149,52.1719575158\H,0,17.348098
 5559,13.3010267333,53.0320362754\H,0,17.0910104455,12.7183571647,51.31
 77467129\C,0,23.2962089769,12.7108816325,49.1017459434\H,0,22.60574142
 65,13.5527077274,49.0449093707\H,0,22.7192787078,11.7929573697,48.9850
 187735\H,0,23.9940718242,12.7836535384,48.271214912\C,0,26.4880417533,
 12.8987648193,49.6874485075\H,0,26.126089428,12.9118232964,48.66225773
 3\H,0,27.1651077892,12.0514939291,49.8018255929\H,0,27.0578364606,13.8
 118972072,49.8616738718\O,0,23.916,14.753,54.747\H,0,24.828,14.956,54.
 956\H,0,23.245,15.334,54.703\C,0,23.6103649625,7.1114598115,53.1695442
 492\H,0,23.0479357783,7.3156456751,52.2636427028\H,0,23.0209478444,6.4
 503129483,53.8051352783\H,0,24.5315811026,6.5940346369,52.9006584847\N
 ,0,24.6400264782,8.4422094085,55.0247453778\H,0,25.0400525726,7.653537
 7345,55.5058903565\C,0,23.9068730951,8.3876944716,53.8683753749\C,0,24
 .723212161,9.7399842754,55.3965252276\H,0,25.2401177029,10.0830117837,
 56.2689158964\N,0,24.0875856303,10.509589826,54.5461861821\C,0,23.5738
 847607,9.6824673492,53.590480229\H,0,23.0041440614,10.0732052294,52.77
 2755554\\Version=ES64L-G16RevC.02\State=6-A\HF=-2983.7710295\S2=8.8317
 57\S2-1=0.\S2A=8.751833\RMSD=7.031e-09\Dipole=0.9817851,-1.2141868,0.0
 096248\Quadrupole=0.714462,-8.0762222,7.3617603,-2.2089955,1.9235907,-
 2.0824197\PG=C01 [X(C34H36Fe1N6O1)]\\@
 The archive entry for this job was punched.


 ADAM SMITH SAID, "THE REAL PRICE OF ANYTHING IS THE TOIL AND TROUBLE
 OF ACQUIRING IT."  BUT IN ALL UNDERTAKINGS WITH NATURE WE SHOULD FIRST
 READ CAREFULLY THE SMALL PRINT IN THE CONTRACT. THIS MIGHT DISCLOSE
 THAT THE REAL PRICE IS TO BE PAID BY THOSE WHO INHERIT THE DEPLETION
 AND DESPOILATION THAT FOLLOWS.
                               -- E. R. HARRISON IN "COSMOLOGY" (1980)
 Job cpu time:       1 days 23 hours  6 minutes 47.6 seconds.
 Elapsed time:       0 days  0 hours 43 minutes 42.3 seconds.
 File lengths (MBytes):  RWF=   2166 Int=      0 D2E=      0 Chk=    197 Scr=      1
 Normal termination of Gaussian 16 at Fri Sep 20 08:53:33 2024.
