 Entering Gaussian System, Link 0=g16
 Input=5d6m16re.com
 Output=5d6m16re.log
 Initial command:
 /sw/chem/gaussian/g16_C02/a100/g16/l1.exe "/local/becsleip_8023269/Gau-615112.inp" -scrdir="/local/becsleip_8023269/"
 Entering Link 1 = /sw/chem/gaussian/g16_C02/a100/g16/l1.exe PID=    615113.
  
 Copyright (c) 1988-2021, Gaussian, Inc.  All Rights Reserved.
  
 This is part of the Gaussian(R) 16 program.  It is based on
 the Gaussian(R) 09 system (copyright 2009, Gaussian, Inc.),
 the Gaussian(R) 03 system (copyright 2003, Gaussian, Inc.),
 the Gaussian(R) 98 system (copyright 1998, Gaussian, Inc.),
 the Gaussian(R) 94 system (copyright 1995, Gaussian, Inc.),
 the Gaussian 92(TM) system (copyright 1992, Gaussian, Inc.),
 the Gaussian 90(TM) system (copyright 1990, Gaussian, Inc.),
 the Gaussian 88(TM) system (copyright 1988, Gaussian, Inc.),
 the Gaussian 86(TM) system (copyright 1986, Carnegie Mellon
 University), and the Gaussian 82(TM) system (copyright 1983,
 Carnegie Mellon University). Gaussian is a federally registered
 trademark of Gaussian, Inc.
  
 This software contains proprietary and confidential information,
 including trade secrets, belonging to Gaussian, Inc.
  
 This software is provided under written license and may be
 used, copied, transmitted, or stored only in accord with that
 written license.
  
 The following legend is applicable only to US Government
 contracts under FAR:
  
                    RESTRICTED RIGHTS LEGEND
  
 Use, reproduction and disclosure by the US Government is
 subject to restrictions as set forth in subparagraphs (a)
 and (c) of the Commercial Computer Software - Restricted
 Rights clause in FAR 52.227-19.
  
 Gaussian, Inc.
 340 Quinnipiac St., Bldg. 40, Wallingford CT 06492
  
  
 ---------------------------------------------------------------
 Warning -- This program may not be used in any manner that
 competes with the business of Gaussian, Inc. or will provide
 assistance to any competitor of Gaussian, Inc.  The licensee
 of this program is prohibited from giving any competitor of
 Gaussian, Inc. access to this program.  By using this program,
 the user acknowledges that Gaussian, Inc. is engaged in the
 business of creating and licensing software in the field of
 computational chemistry and represents and warrants to the
 licensee that it is not a competitor of Gaussian, Inc. and that
 it will not use this program in any manner prohibited above.
 ---------------------------------------------------------------
  

 Cite this work as:
 Gaussian 16, Revision C.02,
 M. J. Frisch, G. W. Trucks, H. B. Schlegel, G. E. Scuseria, 
 M. A. Robb, J. R. Cheeseman, G. Scalmani, V. Barone, 
 G. A. Petersson, H. Nakatsuji, X. Li, M. Caricato, A. V. Marenich, 
 J. Bloino, B. G. Janesko, R. Gomperts, B. Mennucci, H. P. Hratchian, 
 J. V. Ortiz, A. F. Izmaylov, J. L. Sonnenberg, D. Williams-Young, 
 F. Ding, F. Lipparini, F. Egidi, J. Goings, B. Peng, A. Petrone, 
 T. Henderson, D. Ranasinghe, V. G. Zakrzewski, J. Gao, N. Rega, 
 G. Zheng, W. Liang, M. Hada, M. Ehara, K. Toyota, R. Fukuda, 
 J. Hasegawa, M. Ishida, T. Nakajima, Y. Honda, O. Kitao, H. Nakai, 
 T. Vreven, K. Throssell, J. A. Montgomery, Jr., J. E. Peralta, 
 F. Ogliaro, M. J. Bearpark, J. J. Heyd, E. N. Brothers, K. N. Kudin, 
 V. N. Staroverov, T. A. Keith, R. Kobayashi, J. Normand, 
 K. Raghavachari, A. P. Rendell, J. C. Burant, S. S. Iyengar, 
 J. Tomasi, M. Cossi, J. M. Millam, M. Klene, C. Adamo, R. Cammi, 
 J. W. Ochterski, R. L. Martin, K. Morokuma, O. Farkas, 
 J. B. Foresman, and D. J. Fox, Gaussian, Inc., Wallingford CT, 2019.
 
 ******************************************
 Gaussian 16:  ES64L-G16RevC.02  7-Dec-2021
                19-Sep-2024 
 ******************************************
 %mem=16GB
 %CPU=0-71
 SetSPE:  set environment variable "OMP_PROC_BIND" = "true"
 SetSPE:  set environment variable "OMP_PLACES" = "{0},{1},{2},{3},{4},{5},{6},{7},{8},{9},{10},{11},{12},{13},{14},{15},{16},{17},{18},{19},{20},{21},{22},{23},{24},{25},{26},{27},{28},{29},{30},{31},{32},{33},{34},{35},{36},{37},{38},{39},{40},{41},{42},{43},{44},{45},{46},{47},{48},{49},{50},{51},{52},{53},{54},{55},{56},{57},{58},{59},{60},{61},{62},{63},{64},{65},{66},{67},{68},{69},{70},{71}"
 Will use up to   72 processors via shared memory.
 %gpucpu=0,1,2,3=0,1,2,3
 Will use    4 GPUs:
 Thread  CPU   GPU
      0    0     0
      1    1     1
      2    2     2
      3    3     3
      4    4    -1
      5    5    -1
      6    6    -1
      7    7    -1
      8    8    -1
      9    9    -1
     10   10    -1
     11   11    -1
     12   12    -1
     13   13    -1
     14   14    -1
     15   15    -1
     16   16    -1
     17   17    -1
     18   18    -1
     19   19    -1
     20   20    -1
     21   21    -1
     22   22    -1
     23   23    -1
     24   24    -1
     25   25    -1
     26   26    -1
     27   27    -1
     28   28    -1
     29   29    -1
     30   30    -1
     31   31    -1
     32   32    -1
     33   33    -1
     34   34    -1
     35   35    -1
     36   36    -1
     37   37    -1
     38   38    -1
     39   39    -1
     40   40    -1
     41   41    -1
     42   42    -1
     43   43    -1
     44   44    -1
     45   45    -1
     46   46    -1
     47   47    -1
     48   48    -1
     49   49    -1
     50   50    -1
     51   51    -1
     52   52    -1
     53   53    -1
     54   54    -1
     55   55    -1
     56   56    -1
     57   57    -1
     58   58    -1
     59   59    -1
     60   60    -1
     61   61    -1
     62   62    -1
     63   63    -1
     64   64    -1
     65   65    -1
     66   66    -1
     67   67    -1
     68   68    -1
     69   69    -1
     70   70    -1
     71   71    -1
 SetGPE:  set environment variable "OMP_PROC_BIND" = "true"
 SetGPE:  set environment variable "OMP_PLACES" = "{0},{1},{2},{3},{4},{5},{6},{7},{8},{9},{10},{11},{12},{13},{14},{15},{16},{17},{18},{19},{20},{21},{22},{23},{24},{25},{26},{27},{28},{29},{30},{31},{32},{33},{34},{35},{36},{37},{38},{39},{40},{41},{42},{43},{44},{45},{46},{47},{48},{49},{50},{51},{52},{53},{54},{55},{56},{57},{58},{59},{60},{61},{62},{63},{64},{65},{66},{67},{68},{69},{70},{71}"
 %oldchk=5d6m_III_D.chk
 %chk=5d6m_III_Dre.chk
 Properties for Device   0
 Minimum vector length:                              32
 Maximum vector length:                            1024
 Number of SMPs:                                    108
 Maximum number of threads per SMP:                2048
 Number of ASync Engines:                             5
 Memory:                                           9207742464
 Properties for Device   1
 Minimum vector length:                              32
 Maximum vector length:                            1024
 Number of SMPs:                                    108
 Maximum number of threads per SMP:                2048
 Number of ASync Engines:                             5
 Memory:                                           9207742464
 Properties for Device   2
 Minimum vector length:                              32
 Maximum vector length:                            1024
 Number of SMPs:                                    108
 Maximum number of threads per SMP:                2048
 Number of ASync Engines:                             5
 Memory:                                           9207742464
 Properties for Device   3
 Minimum vector length:                              32
 Maximum vector length:                            1024
 Number of SMPs:                                    108
 Maximum number of threads per SMP:                2048
 Number of ASync Engines:                             5
 Memory:                                           9207742464
   8286968217 words of memory will be used on each GPU.
 Copying data from "5d6m_III_D.chk" to current chk file "5d6m_III_Dre.chk"
 IOpt=  2 FromEx=T IUOpen= 4 IOptOp= 5 NList=   0 IFRang= 0 IUIn= 4 IUOut= 2.
 --------------------------------------
 # apfd/gen scf=maxcycle=999 geom=check
 --------------------------------------
 1/29=2,38=1,172=1/1;
 2/12=2,40=1/2;
 3/5=7,11=2,14=-4,25=1,30=1,74=-44/1,2,3;
 4//1;
 5/5=2,7=999,38=5/2;
 6/7=2,8=2,9=2,10=2,28=1/1;
 99/5=1,9=1/99;
 ----------
 5d6m_III_H
 ----------
 Structure from the checkpoint file:  "5d6m_III_Dre.chk"
 Charge =  1 Multiplicity = 6
 Z-Matrix found in chk file.
 Fe,0,23.9345011522,12.4830866766,54.6217041428
 N,0,25.9026577061,12.6666805004,55.0359833478
 N,0,23.5888841894,12.4513693278,56.6305895957
 N,0,21.9677613972,12.4232637934,54.3109704993
 N,0,24.2964434186,12.6613082611,52.6947869847
 C,0,26.8977475777,12.7701232282,54.1121067183
 C,0,28.1904603153,12.8225103855,54.756517494
 C,0,27.9540741831,12.7510849709,56.0946059605
 C,0,26.5203677574,12.6563372425,56.2479297023
 C,0,24.5085681139,12.4765758564,57.6342995485
 C,0,23.8739079156,12.3644957959,58.9227594811
 C,0,22.5300119554,12.2696313291,58.6803614091
 C,0,22.3793816016,12.3374367555,57.2390305784
 C,0,20.972412581,12.320469683,55.2304889014
 C,0,19.6846050451,12.2496370004,54.588808268
 C,0,19.9208365712,12.3328607503,53.2417099836
 C,0,21.3610511416,12.4327790813,53.0957883218
 C,0,23.3734085306,12.6454852589,51.6983846899
 C,0,24.0197218804,12.7139155398,50.4048717677
 C,0,25.3545182209,12.7978930556,50.6499120483
 C,0,25.507508012,12.7543941576,52.088622611
 C,0,26.7239235982,12.820649712,52.7404118733
 H,0,27.6113052165,12.9023544692,52.1313194486
 C,0,25.879898663,12.564701612,57.4672255761
 H,0,26.4946089076,12.5613433356,58.354312987
 C,0,21.1570283027,12.2823948859,56.6003121397
 H,0,20.2762617596,12.1936504422,57.2175732157
 C,0,22.006119764,12.5433056154,51.8758067785
 H,0,21.3925624857,12.5533246278,50.9874561322
 C,0,28.9210360207,12.7681654013,57.2290247366
 H,0,29.9428878958,12.8440115394,56.8654578767
 H,0,28.835129149,11.8571558143,57.8220949113
 H,0,28.7272821145,13.6169694542,57.8855721796
 C,0,29.4885723787,12.9396635256,54.0336232079
 H,0,29.5136833402,13.8509739639,53.435493856
 H,0,29.6316981121,12.0919941108,53.3629172506
 H,0,30.320467052,12.9670257005,54.733405075
 C,0,24.5773350701,12.42149276,60.2342881247
 H,0,25.3875526074,13.1487814086,60.2063051814
 H,0,25.004275311,11.4505043108,60.4917642896
 H,0,23.8799718202,12.7079048229,61.0188258617
 C,0,21.4391132615,12.1616157416,59.623681375
 H,0,20.5207181933,12.6616232592,59.3384518803
 C,0,21.4821368783,11.5065590107,60.7793716649
 H,0,22.350644016,10.9534251703,61.0922672308
 H,0,20.6348436191,11.4798449573,61.4444296297
 C,0,18.3870432725,12.0550144507,55.2929463637
 H,0,18.003971355,13.0028045278,55.6752014103
 H,0,18.5053052595,11.3749606978,56.1352753906
 H,0,17.6503034756,11.6377048085,54.6095216061
 C,0,18.9795689431,12.3005816069,52.1447103754
 H,0,19.3388676567,11.8400539166,51.2315659194
 C,0,17.7438580941,12.7901568149,52.1719575158
 H,0,17.3480985559,13.3010267333,53.0320362754
 H,0,17.0910104455,12.7183571647,51.3177467129
 C,0,23.2962089769,12.7108816325,49.1017459434
 H,0,22.6057414265,13.5527077274,49.0449093707
 H,0,22.7192787078,11.7929573697,48.9850187735
 H,0,23.9940718242,12.7836535384,48.271214912
 C,0,26.4880417533,12.8987648193,49.6874485075
 H,0,26.126089428,12.9118232964,48.662257733
 H,0,27.1651077892,12.0514939291,49.8018255929
 H,0,27.0578364606,13.8118972072,49.8616738718
 O,0,23.916,14.753,54.747
 H,0,24.828,14.956,54.956
 H,0,23.245,15.334,54.703
 C,0,23.6103649625,7.1114598115,53.1695442492
 H,0,23.0479357783,7.3156456751,52.2636427028
 H,0,23.0209478444,6.4503129483,53.8051352783
 H,0,24.5315811026,6.5940346369,52.9006584847
 N,0,24.6400264782,8.4422094085,55.0247453778
 H,0,25.0400525726,7.6535377345,55.5058903565
 C,0,23.9068730951,8.3876944716,53.8683753749
 C,0,24.723212161,9.7399842754,55.3965252276
 H,0,25.2401177029,10.0830117837,56.2689158964
 N,0,24.0875856303,10.509589826,54.5461861821
 C,0,23.5738847607,9.6824673492,53.590480229
 H,0,23.0041440614,10.0732052294,52.772755554
 Recover connectivity data from disk.
 Stoichiometry    C34H36FeN6O(1+,6)
 Framework group  C1[X(C34H36FeN6O)]
 Deg. of freedom   228
 Full point group                 C1      NOp   1
 Largest Abelian subgroup         C1      NOp   1
 Largest concise Abelian subgroup C1      NOp   1
                         Standard orientation:                         
 ---------------------------------------------------------------------
 Center     Atomic      Atomic             Coordinates (Angstroms)
 Number     Number       Type             X           Y           Z
 ---------------------------------------------------------------------
      1         26           0        0.021754   -0.182213   -0.389390
      2          7           0        1.357968   -1.695053   -0.458819
      3          7           0        1.595714    1.112967   -0.424530
      4          7           0       -1.222380    1.372509   -0.445698
      5          7           0       -1.471233   -1.460592   -0.501252
      6          6           0        1.048992   -3.021167   -0.479031
      7          6           0        2.249329   -3.826218   -0.464956
      8          6           0        3.294088   -2.954872   -0.438561
      9          6           0        2.716579   -1.630304   -0.437125
     10          6           0        2.923275    0.810689   -0.414742
     11          6           0        3.727317    2.005318   -0.371571
     12          6           0        2.850443    3.056339   -0.355503
     13          6           0        1.524381    2.469579   -0.400166
     14          6           0       -0.917311    2.696649   -0.426051
     15          6           0       -2.113059    3.500006   -0.421476
     16          6           0       -3.165588    2.623566   -0.459450
     17          6           0       -2.578367    1.296680   -0.465805
     18          6           0       -2.793997   -1.152410   -0.520777
     19          6           0       -3.597160   -2.356780   -0.519552
     20          6           0       -2.722619   -3.397895   -0.525385
     21          6           0       -1.397388   -2.816067   -0.504769
     22          6           0       -0.228245   -3.552253   -0.509469
     23          1           0       -0.317287   -4.627909   -0.521805
     24          6           0        3.457888   -0.466188   -0.413162
     25          1           0        4.532845   -0.559968   -0.391320
     26          6           0        0.363784    3.216642   -0.407320
     27          1           0        0.463117    4.291065   -0.387730
     28          6           0       -3.317779    0.127002   -0.508314
     29          1           0       -4.393186    0.218722   -0.536702
     30          6           0        4.758523   -3.232945   -0.420647
     31          1           0        4.949294   -4.303322   -0.424250
     32          1           0        5.220861   -2.805531    0.469640
     33          1           0        5.242762   -2.795870   -1.294455
     34          6           0        2.265117   -5.316442   -0.484419
     35          1           0        1.768294   -5.693689   -1.378694
     36          1           0        1.743529   -5.716717    0.385409
     37          1           0        3.285186   -5.693097   -0.475436
     38          6           0        5.215646    2.040623   -0.413948
     39          1           0        5.600685    1.276992   -1.088334
     40          1           0        5.639566    1.861519    0.575802
     41          1           0        5.555385    3.014273   -0.760978
     42          6           0        3.128838    4.475402   -0.337157
     43          1           0        2.432164    5.097534   -0.887075
     44          6           0        4.146746    5.052588    0.293153
     45          1           0        4.842156    4.490853    0.892338
     46          1           0        4.304883    6.117581    0.251869
     47          6           0       -2.145756    4.985548   -0.324258
     48          1           0       -1.992406    5.444556   -1.302504
     49          1           0       -1.363154    5.344180    0.342745
     50          1           0       -3.108976    5.313353    0.061427
     51          6           0       -4.584967    2.898873   -0.461433
     52          1           0       -5.205767    2.166000    0.041079
     53          6           0       -5.167331    3.951240   -1.027812
     54          1           0       -4.610107    4.686171   -1.581642
     55          1           0       -6.233460    4.099252   -0.977786
     56          6           0       -5.087513   -2.374054   -0.532464
     57          1           0       -5.469025   -1.858873   -1.414328
     58          1           0       -5.484992   -1.871696    0.349979
     59          1           0       -5.462857   -3.394398   -0.542759
     60          6           0       -2.996630   -4.862900   -0.533508
     61          1           0       -4.066358   -5.057114   -0.546117
     62          1           0       -2.571822   -5.337651    0.351657
     63          1           0       -2.552782   -5.330322   -1.412908
     64          8           0        0.147423   -0.252802   -2.658260
     65          1           0        0.782743   -0.953114   -2.808481
     66          1           0       -0.216283    0.268931   -3.278946
     67          6           0       -1.461818   -0.267884    4.982750
     68          1           0       -2.524947   -0.241865    4.764217
     69          1           0       -1.208899    0.600575    5.591284
     70          1           0       -1.245382   -1.165380    5.562685
     71          7           0        0.674919   -0.329800    3.677611
     72          1           0        1.281934   -0.386889    4.478734
     73          6           0       -0.693288   -0.262766    3.712163
     74          6           0        1.053954   -0.302970    2.379546
     75          1           0        2.071694   -0.341931    2.049982
     76          7           0        0.009338   -0.223047    1.591016
     77          6           0       -1.084741   -0.196381    2.405678
     78          1           0       -2.072743   -0.132626    1.998565
 ---------------------------------------------------------------------
 Rotational constants (GHZ):           0.0932963           0.0916154           0.0591294
 General basis read from cards:  (5D, 7F)
 There are   723 symmetry adapted cartesian basis functions of A   symmetry.
 There are   679 symmetry adapted basis functions of A   symmetry.
   679 basis functions,  1378 primitive gaussians,   723 cartesian basis functions
   160 alpha electrons      155 beta electrons
       nuclear repulsion energy      5967.3650469186 Hartrees.
 NAtoms=   78 NActive=   78 NUniq=   78 SFac= 1.00D+00 NAtFMM=   60 NAOKFM=T Big=T
 Integral buffers will be    131072 words long.
 Raffenetti 2 integral format.
 Two-electron integral symmetry is turned on.
 R6APFD:  NTU= -4 IXU= 1 FactS= 1.050
 Nuclear repulsion after empirical dispersion term =     5967.2116441474 Hartrees.
 One-electron integrals computed using PRISM.
 NBasis=   679 RedAO= T EigKep=  2.50D-04  NBF=   679
 NBsUse=   679 1.00D-06 EigRej= -1.00D+00 NBFU=   679
 ExpMin= 4.20D-02 ExpMax= 3.01D+05 ExpMxC= 2.91D+03 IAcc=3 IRadAn=         5 AccDes= 0.00D+00
 Harris functional with IExCor= 3731 and IRadAn=       5 diagonalized for initial guess.
 HarFok:  IExCor= 3731 AccDes= 0.00D+00 IRadAn=         5 IDoV= 1 UseB2=F ITyADJ=14
 ICtDFT=  3500011 ScaDFX=  1.000000  1.000000  1.000000  1.000000
 FoFCou: FMM=F IPFlag=           0 FMFlag=      100000 FMFlg1=        2001
         NFxFlg=           0 DoJE=T BraDBF=F KetDBF=T FulRan=T
         wScrn=  0.000000 ICntrl=       500 IOpCl=  0 I1Cent=   200000004 NGrid=           0
         NMat0=    1 NMatS0=      1 NMatT0=    0 NMatD0=    1 NMtDS0=    0 NMtDT0=    0
 Petite list used in FoFCou.
 Initial guess <Sx>= 0.0000 <Sy>= 0.0000 <Sz>= 2.5000 <S**2>= 8.7500 S= 2.5000
 Requested convergence on RMS density matrix=1.00D-08 within 999 cycles.
 Requested convergence on MAX density matrix=1.00D-06.
 Requested convergence on             energy=1.00D-06.
 No special actions if energy rises.
 EnCoef did   100 forward-backward iterations
 EnCoef did   100 forward-backward iterations
 EnCoef did   100 forward-backward iterations
 EnCoef did   100 forward-backward iterations
 Restarting incremental Fock formation.
 Rare condition: small coef for last iteration:  0.000D+00
 Rare condition: small coef for last iteration:  0.000D+00
 Rare condition: small coef for last iteration:  0.000D+00
 Rare condition: small coef for last iteration:  0.000D+00
 Rare condition: small coef for last iteration:  0.000D+00
 Rare condition: small coef for last iteration:  0.000D+00
 Rare condition: small coef for last iteration:  0.000D+00
 Rare condition: small coef for last iteration:  0.000D+00
 Restarting incremental Fock formation.
 Restarting incremental Fock formation.
 Restarting incremental Fock formation.
 Restarting incremental Fock formation.
 Density matrix is not changing but DIIS error= 1.18D-04 CofLast=-3.33D-01.
 Restarting incremental Fock formation.
 Restarting incremental Fock formation.
 SCF Done:  E(UAPFD) =  -2983.14500082     A.U. after  161 cycles
            NFock=161  Conv=0.41D-08     -V/T= 2.0036
 <Sx>= 0.0000 <Sy>= 0.0000 <Sz>= 2.5000 <S**2>= 8.8258 S= 2.5126
 <L.S>=  0.00000000000    
 Annihilation of the first spin contaminant:
 S**2 before annihilation     8.8258,   after     8.7515

 **********************************************************************

            Population analysis using the SCF Density.

 **********************************************************************

 Orbital symmetries:
 Alpha Orbitals:
       Occupied  (A) (A) (A) (A) (A) (A) (A) (A) (A) (A) (A) (A)
                 (A) (A) (A) (A) (A) (A) (A) (A) (A) (A) (A) (A)
                 (A) (A) (A) (A) (A) (A) (A) (A) (A) (A) (A) (A)
                 (A) (A) (A) (A) (A) (A) (A) (A) (A) (A) (A) (A)
                 (A) (A) (A) (A) (A) (A) (A) (A) (A) (A) (A) (A)
                 (A) (A) (A) (A) (A) (A) (A) (A) (A) (A) (A) (A)
                 (A) (A) (A) (A) (A) (A) (A) (A) (A) (A) (A) (A)
                 (A) (A) (A) (A) (A) (A) (A) (A) (A) (A) (A) (A)
                 (A) (A) (A) (A) (A) (A) (A) (A) (A) (A) (A) (A)
                 (A) (A) (A) (A) (A) (A) (A) (A) (A) (A) (A) (A)
                 (A) (A) (A) (A) (A) (A) (A) (A) (A) (A) (A) (A)
                 (A) (A) (A) (A) (A) (A) (A) (A) (A) (A) (A) (A)
                 (A) (A) (A) (A) (A) (A) (A) (A) (A) (A) (A) (A)
                 (A) (A) (A) (A)
       Virtual   (A) (A) (A) (A) (A) (A) (A) (A) (A) (A) (A) (A)
                 (A) (A) (A) (A) (A) (A) (A) (A) (A) (A) (A) (A)
                 (A) (A) (A) (A) (A) (A) (A) (A) (A) (A) (A) (A)
                 (A) (A) (A) (A) (A) (A) (A) (A) (A) (A) (A) (A)
                 (A) (A) (A) (A) (A) (A) (A) (A) (A) (A) (A) (A)
                 (A) (A) (A) (A) (A) (A) (A) (A) (A) (A) (A) (A)
                 (A) (A) (A) (A) (A) (A) (A) (A) (A) (A) (A) (A)
                 (A) (A) (A) (A) (A) (A) (A) (A) (A) (A) (A) (A)
                 (A) (A) (A) (A) (A) (A) (A) (A) (A) (A) (A) (A)
                 (A) (A) (A) (A) (A) (A) (A) (A) (A) (A) (A) (A)
                 (A) (A) (A) (A) (A) (A) (A) (A) (A) (A) (A) (A)
                 (A) (A) (A) (A) (A) (A) (A) (A) (A) (A) (A) (A)
                 (A) (A) (A) (A) (A) (A) (A) (A) (A) (A) (A) (A)
                 (A) (A) (A) (A) (A) (A) (A) (A) (A) (A) (A) (A)
                 (A) (A) (A) (A) (A) (A) (A) (A) (A) (A) (A) (A)
                 (A) (A) (A) (A) (A) (A) (A) (A) (A) (A) (A) (A)
                 (A) (A) (A) (A) (A) (A) (A) (A) (A) (A) (A) (A)
                 (A) (A) (A) (A) (A) (A) (A) (A) (A) (A) (A) (A)
                 (A) (A) (A) (A) (A) (A) (A) (A) (A) (A) (A) (A)
                 (A) (A) (A) (A) (A) (A) (A) (A) (A) (A) (A) (A)
                 (A) (A) (A) (A) (A) (A) (A) (A) (A) (A) (A) (A)
                 (A) (A) (A) (A) (A) (A) (A) (A) (A) (A) (A) (A)
                 (A) (A) (A) (A) (A) (A) (A) (A) (A) (A) (A) (A)
                 (A) (A) (A) (A) (A) (A) (A) (A) (A) (A) (A) (A)
                 (A) (A) (A) (A) (A) (A) (A) (A) (A) (A) (A) (A)
                 (A) (A) (A) (A) (A) (A) (A) (A) (A) (A) (A) (A)
                 (A) (A) (A) (A) (A) (A) (A) (A) (A) (A) (A) (A)
                 (A) (A) (A) (A) (A) (A) (A) (A) (A) (A) (A) (A)
                 (A) (A) (A) (A) (A) (A) (A) (A) (A) (A) (A) (A)
                 (A) (A) (A) (A) (A) (A) (A) (A) (A) (A) (A) (A)
                 (A) (A) (A) (A) (A) (A) (A) (A) (A) (A) (A) (A)
                 (A) (A) (A) (A) (A) (A) (A) (A) (A) (A) (A) (A)
                 (A) (A) (A) (A) (A) (A) (A) (A) (A) (A) (A) (A)
                 (A) (A) (A) (A) (A) (A) (A) (A) (A) (A) (A) (A)
                 (A) (A) (A) (A) (A) (A) (A) (A) (A) (A) (A) (A)
                 (A) (A) (A) (A) (A) (A) (A) (A) (A) (A) (A) (A)
                 (A) (A) (A) (A) (A) (A) (A) (A) (A) (A) (A) (A)
                 (A) (A) (A) (A) (A) (A) (A) (A) (A) (A) (A) (A)
                 (A) (A) (A) (A) (A) (A) (A) (A) (A) (A) (A) (A)
                 (A) (A) (A) (A) (A) (A) (A) (A) (A) (A) (A) (A)
                 (A) (A) (A) (A) (A) (A) (A) (A) (A) (A) (A) (A)
                 (A) (A) (A) (A) (A) (A) (A) (A) (A) (A) (A) (A)
                 (A) (A) (A) (A) (A) (A) (A) (A) (A) (A) (A) (A)
                 (A) (A) (A)
 Beta  Orbitals:
       Occupied  (A) (A) (A) (A) (A) (A) (A) (A) (A) (A) (A) (A)
                 (A) (A) (A) (A) (A) (A) (A) (A) (A) (A) (A) (A)
                 (A) (A) (A) (A) (A) (A) (A) (A) (A) (A) (A) (A)
                 (A) (A) (A) (A) (A) (A) (A) (A) (A) (A) (A) (A)
                 (A) (A) (A) (A) (A) (A) (A) (A) (A) (A) (A) (A)
                 (A) (A) (A) (A) (A) (A) (A) (A) (A) (A) (A) (A)
                 (A) (A) (A) (A) (A) (A) (A) (A) (A) (A) (A) (A)
                 (A) (A) (A) (A) (A) (A) (A) (A) (A) (A) (A) (A)
                 (A) (A) (A) (A) (A) (A) (A) (A) (A) (A) (A) (A)
                 (A) (A) (A) (A) (A) (A) (A) (A) (A) (A) (A) (A)
                 (A) (A) (A) (A) (A) (A) (A) (A) (A) (A) (A) (A)
                 (A) (A) (A) (A) (A) (A) (A) (A) (A) (A) (A) (A)
                 (A) (A) (A) (A) (A) (A) (A) (A) (A) (A) (A)
       Virtual   (A) (A) (A) (A) (A) (A) (A) (A) (A) (A) (A) (A)
                 (A) (A) (A) (A) (A) (A) (A) (A) (A) (A) (A) (A)
                 (A) (A) (A) (A) (A) (A) (A) (A) (A) (A) (A) (A)
                 (A) (A) (A) (A) (A) (A) (A) (A) (A) (A) (A) (A)
                 (A) (A) (A) (A) (A) (A) (A) (A) (A) (A) (A) (A)
                 (A) (A) (A) (A) (A) (A) (A) (A) (A) (A) (A) (A)
                 (A) (A) (A) (A) (A) (A) (A) (A) (A) (A) (A) (A)
                 (A) (A) (A) (A) (A) (A) (A) (A) (A) (A) (A) (A)
                 (A) (A) (A) (A) (A) (A) (A) (A) (A) (A) (A) (A)
                 (A) (A) (A) (A) (A) (A) (A) (A) (A) (A) (A) (A)
                 (A) (A) (A) (A) (A) (A) (A) (A) (A) (A) (A) (A)
                 (A) (A) (A) (A) (A) (A) (A) (A) (A) (A) (A) (A)
                 (A) (A) (A) (A) (A) (A) (A) (A) (A) (A) (A) (A)
                 (A) (A) (A) (A) (A) (A) (A) (A) (A) (A) (A) (A)
                 (A) (A) (A) (A) (A) (A) (A) (A) (A) (A) (A) (A)
                 (A) (A) (A) (A) (A) (A) (A) (A) (A) (A) (A) (A)
                 (A) (A) (A) (A) (A) (A) (A) (A) (A) (A) (A) (A)
                 (A) (A) (A) (A) (A) (A) (A) (A) (A) (A) (A) (A)
                 (A) (A) (A) (A) (A) (A) (A) (A) (A) (A) (A) (A)
                 (A) (A) (A) (A) (A) (A) (A) (A) (A) (A) (A) (A)
                 (A) (A) (A) (A) (A) (A) (A) (A) (A) (A) (A) (A)
                 (A) (A) (A) (A) (A) (A) (A) (A) (A) (A) (A) (A)
                 (A) (A) (A) (A) (A) (A) (A) (A) (A) (A) (A) (A)
                 (A) (A) (A) (A) (A) (A) (A) (A) (A) (A) (A) (A)
                 (A) (A) (A) (A) (A) (A) (A) (A) (A) (A) (A) (A)
                 (A) (A) (A) (A) (A) (A) (A) (A) (A) (A) (A) (A)
                 (A) (A) (A) (A) (A) (A) (A) (A) (A) (A) (A) (A)
                 (A) (A) (A) (A) (A) (A) (A) (A) (A) (A) (A) (A)
                 (A) (A) (A) (A) (A) (A) (A) (A) (A) (A) (A) (A)
                 (A) (A) (A) (A) (A) (A) (A) (A) (A) (A) (A) (A)
                 (A) (A) (A) (A) (A) (A) (A) (A) (A) (A) (A) (A)
                 (A) (A) (A) (A) (A) (A) (A) (A) (A) (A) (A) (A)
                 (A) (A) (A) (A) (A) (A) (A) (A) (A) (A) (A) (A)
                 (A) (A) (A) (A) (A) (A) (A) (A) (A) (A) (A) (A)
                 (A) (A) (A) (A) (A) (A) (A) (A) (A) (A) (A) (A)
                 (A) (A) (A) (A) (A) (A) (A) (A) (A) (A) (A) (A)
                 (A) (A) (A) (A) (A) (A) (A) (A) (A) (A) (A) (A)
                 (A) (A) (A) (A) (A) (A) (A) (A) (A) (A) (A) (A)
                 (A) (A) (A) (A) (A) (A) (A) (A) (A) (A) (A) (A)
                 (A) (A) (A) (A) (A) (A) (A) (A) (A) (A) (A) (A)
                 (A) (A) (A) (A) (A) (A) (A) (A) (A) (A) (A) (A)
                 (A) (A) (A) (A) (A) (A) (A) (A) (A) (A) (A) (A)
                 (A) (A) (A) (A) (A) (A) (A) (A) (A) (A) (A) (A)
                 (A) (A) (A) (A) (A) (A) (A) (A)
 The electronic state is 6-A.
 Alpha  occ. eigenvalues -- -256.38526 -30.27562 -26.12274 -26.10096 -26.10074
 Alpha  occ. eigenvalues --  -19.29412 -14.53620 -14.48690 -14.47904 -14.47678
 Alpha  occ. eigenvalues --  -14.47645 -14.47643 -10.37631 -10.34901 -10.34007
 Alpha  occ. eigenvalues --  -10.33926 -10.33294 -10.33195 -10.32804 -10.32797
 Alpha  occ. eigenvalues --  -10.32564 -10.32318 -10.32285 -10.31897 -10.31749
 Alpha  occ. eigenvalues --  -10.30993 -10.30804 -10.30747 -10.30650 -10.30254
 Alpha  occ. eigenvalues --  -10.30225 -10.30011 -10.29580 -10.29498 -10.29479
 Alpha  occ. eigenvalues --  -10.29341 -10.29081 -10.28708 -10.28475 -10.28348
 Alpha  occ. eigenvalues --  -10.28322 -10.28146 -10.27990 -10.27972 -10.27366
 Alpha  occ. eigenvalues --  -10.27235  -3.70010  -2.50240  -2.44473  -2.44405
 Alpha  occ. eigenvalues --   -1.16341  -1.16068  -1.09306  -1.08512  -1.07933
 Alpha  occ. eigenvalues --   -1.07167  -1.02185  -0.94134  -0.92231  -0.91655
 Alpha  occ. eigenvalues --   -0.91514  -0.91375  -0.91020  -0.90871  -0.90239
 Alpha  occ. eigenvalues --   -0.86597  -0.86192  -0.85238  -0.84237  -0.82973
 Alpha  occ. eigenvalues --   -0.81815  -0.81169  -0.79973  -0.78635  -0.78374
 Alpha  occ. eigenvalues --   -0.78017  -0.75617  -0.75420  -0.75328  -0.71951
 Alpha  occ. eigenvalues --   -0.71812  -0.70540  -0.69694  -0.68988  -0.68799
 Alpha  occ. eigenvalues --   -0.66574  -0.65217  -0.64527  -0.63478  -0.63372
 Alpha  occ. eigenvalues --   -0.61988  -0.61693  -0.61344  -0.59373  -0.58954
 Alpha  occ. eigenvalues --   -0.58392  -0.58290  -0.57688  -0.56632  -0.56039
 Alpha  occ. eigenvalues --   -0.55316  -0.55145  -0.54779  -0.54538  -0.53779
 Alpha  occ. eigenvalues --   -0.53704  -0.53656  -0.53291  -0.53219  -0.52787
 Alpha  occ. eigenvalues --   -0.52543  -0.52202  -0.51956  -0.51788  -0.51250
 Alpha  occ. eigenvalues --   -0.50958  -0.50842  -0.50730  -0.50518  -0.50397
 Alpha  occ. eigenvalues --   -0.50374  -0.50246  -0.50046  -0.49759  -0.49261
 Alpha  occ. eigenvalues --   -0.48978  -0.48514  -0.48461  -0.48400  -0.48041
 Alpha  occ. eigenvalues --   -0.47847  -0.47715  -0.47514  -0.47131  -0.46720
 Alpha  occ. eigenvalues --   -0.46273  -0.45728  -0.44766  -0.44509  -0.43997
 Alpha  occ. eigenvalues --   -0.43772  -0.43426  -0.43217  -0.42558  -0.42199
 Alpha  occ. eigenvalues --   -0.41530  -0.40456  -0.39767  -0.39564  -0.38255
 Alpha  occ. eigenvalues --   -0.37701  -0.35595  -0.34269  -0.33886  -0.33487
 Alpha  occ. eigenvalues --   -0.32517  -0.31798  -0.31567  -0.29189  -0.21642
 Alpha virt. eigenvalues --   -0.19027  -0.17940  -0.12726  -0.08489  -0.07811
 Alpha virt. eigenvalues --   -0.07068  -0.05394  -0.04180  -0.03423  -0.02137
 Alpha virt. eigenvalues --   -0.01322  -0.01178   0.00793   0.00956   0.01669
 Alpha virt. eigenvalues --    0.02760   0.02990   0.03431   0.03581   0.03878
 Alpha virt. eigenvalues --    0.04151   0.04559   0.04739   0.05172   0.05443
 Alpha virt. eigenvalues --    0.05810   0.06089   0.06475   0.06774   0.07042
 Alpha virt. eigenvalues --    0.07412   0.07752   0.08136   0.08193   0.08387
 Alpha virt. eigenvalues --    0.08594   0.09105   0.09391   0.09486   0.09731
 Alpha virt. eigenvalues --    0.09782   0.09981   0.10436   0.10735   0.11136
 Alpha virt. eigenvalues --    0.11732   0.11988   0.12280   0.12481   0.12892
 Alpha virt. eigenvalues --    0.13162   0.13324   0.13475   0.13989   0.14594
 Alpha virt. eigenvalues --    0.15017   0.15612   0.16030   0.16446   0.16757
 Alpha virt. eigenvalues --    0.17003   0.17416   0.17975   0.18017   0.18859
 Alpha virt. eigenvalues --    0.19520   0.20390   0.20603   0.21734   0.21904
 Alpha virt. eigenvalues --    0.22831   0.23342   0.23578   0.25081   0.25396
 Alpha virt. eigenvalues --    0.25750   0.25889   0.27142   0.27369   0.28665
 Alpha virt. eigenvalues --    0.29091   0.30629   0.30775   0.31520   0.32758
 Alpha virt. eigenvalues --    0.33149   0.33793   0.33877   0.34582   0.35751
 Alpha virt. eigenvalues --    0.37712   0.38113   0.38416   0.38932   0.39237
 Alpha virt. eigenvalues --    0.39743   0.39963   0.40558   0.40967   0.41554
 Alpha virt. eigenvalues --    0.41774   0.42023   0.42685   0.42827   0.43330
 Alpha virt. eigenvalues --    0.43677   0.44010   0.44333   0.44731   0.45091
 Alpha virt. eigenvalues --    0.45143   0.45569   0.46305   0.46504   0.47275
 Alpha virt. eigenvalues --    0.47938   0.48026   0.48321   0.48626   0.49090
 Alpha virt. eigenvalues --    0.49872   0.49969   0.50437   0.50774   0.50936
 Alpha virt. eigenvalues --    0.51935   0.52413   0.52570   0.52845   0.52927
 Alpha virt. eigenvalues --    0.54035   0.54336   0.54933   0.55394   0.55503
 Alpha virt. eigenvalues --    0.55931   0.56272   0.56418   0.56742   0.56948
 Alpha virt. eigenvalues --    0.57032   0.57549   0.57746   0.57958   0.58580
 Alpha virt. eigenvalues --    0.59380   0.60174   0.60467   0.61222   0.61413
 Alpha virt. eigenvalues --    0.62014   0.62284   0.62772   0.63240   0.63563
 Alpha virt. eigenvalues --    0.64372   0.64760   0.65312   0.65395   0.66245
 Alpha virt. eigenvalues --    0.66492   0.67153   0.67811   0.68285   0.68376
 Alpha virt. eigenvalues --    0.68529   0.68630   0.68976   0.69360   0.69875
 Alpha virt. eigenvalues --    0.70164   0.70602   0.70764   0.71558   0.71933
 Alpha virt. eigenvalues --    0.72930   0.73454   0.73499   0.74071   0.74918
 Alpha virt. eigenvalues --    0.76226   0.76708   0.76738   0.77045   0.77750
 Alpha virt. eigenvalues --    0.78100   0.78304   0.78807   0.79116   0.79159
 Alpha virt. eigenvalues --    0.79531   0.79832   0.80323   0.81125   0.81401
 Alpha virt. eigenvalues --    0.81658   0.82206   0.82695   0.82998   0.83120
 Alpha virt. eigenvalues --    0.83289   0.83854   0.84198   0.84396   0.84784
 Alpha virt. eigenvalues --    0.85092   0.85711   0.86104   0.86399   0.86632
 Alpha virt. eigenvalues --    0.87248   0.87441   0.87764   0.88115   0.88593
 Alpha virt. eigenvalues --    0.89009   0.89605   0.89905   0.90252   0.90729
 Alpha virt. eigenvalues --    0.91165   0.91401   0.91920   0.92310   0.92522
 Alpha virt. eigenvalues --    0.93001   0.94051   0.94077   0.94761   0.94995
 Alpha virt. eigenvalues --    0.95735   0.96200   0.96765   0.97036   0.97405
 Alpha virt. eigenvalues --    0.97796   0.98710   0.99075   0.99893   1.01077
 Alpha virt. eigenvalues --    1.02106   1.03091   1.03878   1.05070   1.05646
 Alpha virt. eigenvalues --    1.05820   1.06593   1.07494   1.07929   1.08233
 Alpha virt. eigenvalues --    1.08828   1.09201   1.10037   1.10313   1.10627
 Alpha virt. eigenvalues --    1.10972   1.11303   1.11902   1.12271   1.13245
 Alpha virt. eigenvalues --    1.13522   1.14207   1.15451   1.15790   1.17052
 Alpha virt. eigenvalues --    1.17643   1.18242   1.19025   1.19930   1.20232
 Alpha virt. eigenvalues --    1.21001   1.21257   1.22072   1.22823   1.23634
 Alpha virt. eigenvalues --    1.24349   1.25085   1.25988   1.26590   1.27047
 Alpha virt. eigenvalues --    1.27539   1.27780   1.27892   1.28166   1.28257
 Alpha virt. eigenvalues --    1.28765   1.29491   1.30561   1.31033   1.31949
 Alpha virt. eigenvalues --    1.32619   1.33347   1.33525   1.33721   1.35055
 Alpha virt. eigenvalues --    1.37138   1.37281   1.37994   1.38359   1.39011
 Alpha virt. eigenvalues --    1.40345   1.41274   1.41911   1.42228   1.43607
 Alpha virt. eigenvalues --    1.43894   1.44173   1.44845   1.45498   1.45875
 Alpha virt. eigenvalues --    1.47342   1.48708   1.49558   1.50831   1.51343
 Alpha virt. eigenvalues --    1.52379   1.52787   1.53817   1.54235   1.55529
 Alpha virt. eigenvalues --    1.56866   1.57519   1.58204   1.59399   1.60383
 Alpha virt. eigenvalues --    1.60928   1.61686   1.62108   1.63408   1.64852
 Alpha virt. eigenvalues --    1.65317   1.68807   1.69401   1.70128   1.70399
 Alpha virt. eigenvalues --    1.70803   1.71420   1.71624   1.72211   1.72499
 Alpha virt. eigenvalues --    1.72875   1.73141   1.74120   1.74486   1.74889
 Alpha virt. eigenvalues --    1.75198   1.76265   1.76630   1.77316   1.78203
 Alpha virt. eigenvalues --    1.78273   1.79586   1.79914   1.80397   1.81401
 Alpha virt. eigenvalues --    1.81561   1.81999   1.82463   1.83819   1.84614
 Alpha virt. eigenvalues --    1.84982   1.85158   1.85542   1.85606   1.86481
 Alpha virt. eigenvalues --    1.88041   1.88366   1.88749   1.90341   1.90414
 Alpha virt. eigenvalues --    1.90975   1.91842   1.92720   1.93350   1.94536
 Alpha virt. eigenvalues --    1.95065   1.95253   1.95781   1.96090   1.96625
 Alpha virt. eigenvalues --    1.97764   1.98428   1.98705   1.99034   1.99709
 Alpha virt. eigenvalues --    2.01627   2.02073   2.02991   2.03375   2.04541
 Alpha virt. eigenvalues --    2.05265   2.05952   2.06607   2.07060   2.07545
 Alpha virt. eigenvalues --    2.08475   2.09058   2.09677   2.10723   2.11809
 Alpha virt. eigenvalues --    2.11945   2.12829   2.13364   2.13955   2.14397
 Alpha virt. eigenvalues --    2.14871   2.15745   2.16718   2.16852   2.17472
 Alpha virt. eigenvalues --    2.17642   2.17728   2.19440   2.19768   2.19926
 Alpha virt. eigenvalues --    2.20146   2.20477   2.20546   2.21629   2.21757
 Alpha virt. eigenvalues --    2.22265   2.23307   2.24139   2.24840   2.25483
 Alpha virt. eigenvalues --    2.25780   2.26164   2.26725   2.27639   2.27811
 Alpha virt. eigenvalues --    2.28335   2.28721   2.29202   2.29426   2.31373
 Alpha virt. eigenvalues --    2.31675   2.32515   2.32787   2.32816   2.33457
 Alpha virt. eigenvalues --    2.33600   2.34498   2.34756   2.35713   2.36835
 Alpha virt. eigenvalues --    2.37360   2.38968   2.39675   2.41335   2.42631
 Alpha virt. eigenvalues --    2.42750   2.43518   2.43548   2.43690   2.44580
 Alpha virt. eigenvalues --    2.45633   2.46057   2.46345   2.46863   2.47846
 Alpha virt. eigenvalues --    2.48865   2.50232   2.50390   2.50970   2.52830
 Alpha virt. eigenvalues --    2.54873   2.55515   2.56352   2.58147   2.58163
 Alpha virt. eigenvalues --    2.58779   2.59251   2.60525   2.61885   2.64695
 Alpha virt. eigenvalues --    2.65587   2.66642   2.68352   2.68818   2.70389
 Alpha virt. eigenvalues --    2.71297   2.71669   2.77283   2.77788   2.78165
 Alpha virt. eigenvalues --    2.79298   2.81380   2.82626   2.83088   2.85710
 Alpha virt. eigenvalues --    2.87160   2.87539   2.89353   2.89820   2.90738
 Alpha virt. eigenvalues --    2.91251   2.94157   2.95088   2.96026   2.97578
 Alpha virt. eigenvalues --    3.02786   3.04159   3.05424   3.10972   3.13453
 Alpha virt. eigenvalues --    3.14764   3.20346   3.20777   3.28621   3.29705
 Alpha virt. eigenvalues --    3.30240   3.36706   3.36753   3.44434   3.49626
 Alpha virt. eigenvalues --    3.69378   3.75402   4.01353   4.11075
  Beta  occ. eigenvalues -- -256.38418 -30.21304 -26.05932 -26.05898 -26.04931
  Beta  occ. eigenvalues --  -19.29243 -14.53602 -14.48379 -14.47859 -14.47617
  Beta  occ. eigenvalues --  -14.47357 -14.47324 -10.37602 -10.34889 -10.34073
  Beta  occ. eigenvalues --  -10.34006 -10.33343 -10.33257 -10.32628 -10.32599
  Beta  occ. eigenvalues --  -10.32570 -10.32327 -10.32277 -10.31513 -10.31354
  Beta  occ. eigenvalues --  -10.30783 -10.30629 -10.30472 -10.30229 -10.30223
  Beta  occ. eigenvalues --  -10.30210 -10.29988 -10.29491 -10.29349 -10.29345
  Beta  occ. eigenvalues --  -10.29223 -10.29031 -10.28735 -10.28477 -10.28351
  Beta  occ. eigenvalues --  -10.28325 -10.28150 -10.27988 -10.27984 -10.27385
  Beta  occ. eigenvalues --  -10.27185  -3.55117  -2.31733  -2.31645  -2.28077
  Beta  occ. eigenvalues --   -1.16156  -1.15782  -1.08882  -1.08088  -1.07570
  Beta  occ. eigenvalues --   -1.06803  -1.01855  -0.93368  -0.92042  -0.91390
  Beta  occ. eigenvalues --   -0.91126  -0.90836  -0.90579  -0.90288  -0.90173
  Beta  occ. eigenvalues --   -0.86458  -0.85092  -0.84965  -0.84050  -0.82792
  Beta  occ. eigenvalues --   -0.81723  -0.81006  -0.79814  -0.78525  -0.78236
  Beta  occ. eigenvalues --   -0.77890  -0.75302  -0.75119  -0.74813  -0.71848
  Beta  occ. eigenvalues --   -0.71629  -0.70439  -0.69543  -0.68641  -0.68235
  Beta  occ. eigenvalues --   -0.66405  -0.65055  -0.64339  -0.63319  -0.63082
  Beta  occ. eigenvalues --   -0.61782  -0.61444  -0.61205  -0.58973  -0.58401
  Beta  occ. eigenvalues --   -0.58207  -0.57970  -0.57373  -0.56057  -0.54741
  Beta  occ. eigenvalues --   -0.54617  -0.54094  -0.53884  -0.53556  -0.53379
  Beta  occ. eigenvalues --   -0.53290  -0.53027  -0.52934  -0.52717  -0.52398
  Beta  occ. eigenvalues --   -0.52061  -0.51628  -0.51600  -0.51353  -0.50874
  Beta  occ. eigenvalues --   -0.50642  -0.50304  -0.50250  -0.50197  -0.49948
  Beta  occ. eigenvalues --   -0.49613  -0.49303  -0.49168  -0.48929  -0.48715
  Beta  occ. eigenvalues --   -0.48437  -0.48047  -0.47676  -0.47592  -0.47301
  Beta  occ. eigenvalues --   -0.46869  -0.46660  -0.46244  -0.45676  -0.45401
  Beta  occ. eigenvalues --   -0.44645  -0.44321  -0.43723  -0.43367  -0.42465
  Beta  occ. eigenvalues --   -0.42197  -0.41546  -0.41490  -0.40831  -0.38901
  Beta  occ. eigenvalues --   -0.38339  -0.36613  -0.36484  -0.35892  -0.34221
  Beta  occ. eigenvalues --   -0.33514  -0.33049  -0.31923  -0.31080  -0.28341
  Beta virt. eigenvalues --   -0.24733  -0.19196  -0.18851  -0.15107  -0.14254
  Beta virt. eigenvalues --   -0.12556  -0.10626  -0.10541  -0.07918  -0.07247
  Beta virt. eigenvalues --   -0.05968  -0.04177  -0.03704  -0.03054  -0.01257
  Beta virt. eigenvalues --   -0.00965  -0.00238   0.01038   0.01563   0.01780
  Beta virt. eigenvalues --    0.02981   0.03110   0.03795   0.03963   0.04826
  Beta virt. eigenvalues --    0.05035   0.05261   0.05567   0.05611   0.05808
  Beta virt. eigenvalues --    0.06207   0.06504   0.06730   0.07014   0.07321
  Beta virt. eigenvalues --    0.07485   0.07850   0.08315   0.08435   0.08477
  Beta virt. eigenvalues --    0.08798   0.09206   0.09555   0.09669   0.09748
  Beta virt. eigenvalues --    0.09995   0.10132   0.10588   0.10912   0.11258
  Beta virt. eigenvalues --    0.11847   0.12191   0.12378   0.12709   0.13066
  Beta virt. eigenvalues --    0.13377   0.13521   0.13723   0.14226   0.14858
  Beta virt. eigenvalues --    0.15219   0.15804   0.16284   0.16581   0.16920
  Beta virt. eigenvalues --    0.17307   0.17633   0.18160   0.18247   0.19783
  Beta virt. eigenvalues --    0.20580   0.20848   0.20949   0.22165   0.22288
  Beta virt. eigenvalues --    0.23370   0.23676   0.24054   0.25262   0.25711
  Beta virt. eigenvalues --    0.25960   0.26163   0.27330   0.27471   0.28931
  Beta virt. eigenvalues --    0.29901   0.30883   0.31409   0.32152   0.33410
  Beta virt. eigenvalues --    0.33577   0.34013   0.34199   0.34961   0.36548
  Beta virt. eigenvalues --    0.38024   0.38409   0.38716   0.39121   0.39543
  Beta virt. eigenvalues --    0.40285   0.40414   0.40794   0.41234   0.41821
  Beta virt. eigenvalues --    0.42221   0.42485   0.42920   0.43078   0.43641
  Beta virt. eigenvalues --    0.44032   0.44228   0.44611   0.45408   0.45467
  Beta virt. eigenvalues --    0.45534   0.45794   0.46648   0.47054   0.47708
  Beta virt. eigenvalues --    0.48292   0.48542   0.48901   0.49229   0.49465
  Beta virt. eigenvalues --    0.50308   0.50518   0.50900   0.51154   0.51515
  Beta virt. eigenvalues --    0.52435   0.52915   0.52994   0.53416   0.53518
  Beta virt. eigenvalues --    0.54413   0.54805   0.55458   0.55817   0.56076
  Beta virt. eigenvalues --    0.56518   0.56767   0.56959   0.57173   0.57343
  Beta virt. eigenvalues --    0.57693   0.58064   0.58277   0.58415   0.58950
  Beta virt. eigenvalues --    0.59699   0.60469   0.60704   0.61501   0.61837
  Beta virt. eigenvalues --    0.62460   0.62675   0.63038   0.63601   0.63841
  Beta virt. eigenvalues --    0.64841   0.65120   0.65569   0.65780   0.66552
  Beta virt. eigenvalues --    0.66761   0.67426   0.68081   0.68481   0.68722
  Beta virt. eigenvalues --    0.68919   0.69151   0.69309   0.69508   0.70400
  Beta virt. eigenvalues --    0.70475   0.71043   0.71235   0.71785   0.72327
  Beta virt. eigenvalues --    0.73391   0.73725   0.74190   0.74335   0.75237
  Beta virt. eigenvalues --    0.76442   0.76884   0.76988   0.77283   0.77942
  Beta virt. eigenvalues --    0.78291   0.78437   0.79014   0.79284   0.79384
  Beta virt. eigenvalues --    0.79775   0.80113   0.80510   0.81311   0.81680
  Beta virt. eigenvalues --    0.81815   0.82407   0.82804   0.83125   0.83337
  Beta virt. eigenvalues --    0.83604   0.84180   0.84433   0.84729   0.84987
  Beta virt. eigenvalues --    0.85391   0.86015   0.86542   0.86871   0.87269
  Beta virt. eigenvalues --    0.87527   0.87602   0.87961   0.88393   0.89115
  Beta virt. eigenvalues --    0.89206   0.89868   0.90224   0.90606   0.90927
  Beta virt. eigenvalues --    0.91381   0.91523   0.92066   0.92586   0.92766
  Beta virt. eigenvalues --    0.93294   0.94285   0.94477   0.95306   0.95369
  Beta virt. eigenvalues --    0.96170   0.96542   0.97149   0.97437   0.97765
  Beta virt. eigenvalues --    0.98156   0.99112   0.99517   1.00612   1.01488
  Beta virt. eigenvalues --    1.02373   1.03594   1.04328   1.05338   1.05861
  Beta virt. eigenvalues --    1.06814   1.07302   1.08103   1.08201   1.08625
  Beta virt. eigenvalues --    1.09157   1.09999   1.10401   1.10532   1.10911
  Beta virt. eigenvalues --    1.11289   1.11693   1.12149   1.12596   1.13528
  Beta virt. eigenvalues --    1.13933   1.15234   1.15739   1.16253   1.17559
  Beta virt. eigenvalues --    1.18319   1.18864   1.19378   1.20317   1.21118
  Beta virt. eigenvalues --    1.21338   1.21629   1.22408   1.23278   1.23843
  Beta virt. eigenvalues --    1.24702   1.25339   1.26260   1.26966   1.27351
  Beta virt. eigenvalues --    1.27885   1.28141   1.28252   1.28525   1.28633
  Beta virt. eigenvalues --    1.29083   1.29960   1.31185   1.31435   1.32387
  Beta virt. eigenvalues --    1.33080   1.33869   1.34416   1.34569   1.35464
  Beta virt. eigenvalues --    1.37492   1.38038   1.38386   1.38654   1.39371
  Beta virt. eigenvalues --    1.40874   1.41839   1.42157   1.42595   1.43805
  Beta virt. eigenvalues --    1.44209   1.44483   1.45163   1.45739   1.46323
  Beta virt. eigenvalues --    1.47628   1.49061   1.49856   1.51370   1.52025
  Beta virt. eigenvalues --    1.52845   1.53036   1.54276   1.54637   1.55935
  Beta virt. eigenvalues --    1.57211   1.58069   1.58516   1.59813   1.60761
  Beta virt. eigenvalues --    1.61189   1.62144   1.62546   1.64067   1.65246
  Beta virt. eigenvalues --    1.65730   1.69062   1.69781   1.70480   1.70655
  Beta virt. eigenvalues --    1.71093   1.71711   1.71974   1.72463   1.72943
  Beta virt. eigenvalues --    1.73219   1.73393   1.74501   1.74786   1.75362
  Beta virt. eigenvalues --    1.75712   1.76548   1.76931   1.77571   1.78375
  Beta virt. eigenvalues --    1.78762   1.79767   1.80051   1.80633   1.81573
  Beta virt. eigenvalues --    1.81937   1.82936   1.83248   1.84319   1.85170
  Beta virt. eigenvalues --    1.85524   1.86038   1.86120   1.86254   1.87403
  Beta virt. eigenvalues --    1.88906   1.89092   1.89452   1.90661   1.90801
  Beta virt. eigenvalues --    1.91517   1.92182   1.93255   1.93802   1.94902
  Beta virt. eigenvalues --    1.95440   1.95782   1.96316   1.96423   1.97405
  Beta virt. eigenvalues --    1.98221   1.98878   1.99135   1.99785   2.00510
  Beta virt. eigenvalues --    2.01820   2.02420   2.03398   2.03831   2.04975
  Beta virt. eigenvalues --    2.05376   2.06170   2.06834   2.07283   2.07745
  Beta virt. eigenvalues --    2.09157   2.09661   2.10655   2.11105   2.12116
  Beta virt. eigenvalues --    2.12196   2.13351   2.13839   2.14346   2.14857
  Beta virt. eigenvalues --    2.15518   2.16125   2.17061   2.17270   2.17740
  Beta virt. eigenvalues --    2.17865   2.17984   2.19887   2.20197   2.20427
  Beta virt. eigenvalues --    2.20574   2.20781   2.21243   2.21892   2.22573
  Beta virt. eigenvalues --    2.22673   2.23970   2.24741   2.25489   2.26010
  Beta virt. eigenvalues --    2.26301   2.26807   2.27129   2.27980   2.28427
  Beta virt. eigenvalues --    2.28758   2.29131   2.29700   2.30271   2.31673
  Beta virt. eigenvalues --    2.32223   2.32744   2.33076   2.33265   2.33870
  Beta virt. eigenvalues --    2.34005   2.34781   2.35115   2.36084   2.37467
  Beta virt. eigenvalues --    2.37711   2.39067   2.40600   2.42173   2.43065
  Beta virt. eigenvalues --    2.43373   2.43876   2.44135   2.44247   2.45491
  Beta virt. eigenvalues --    2.46005   2.46544   2.47000   2.47291   2.48261
  Beta virt. eigenvalues --    2.49126   2.50654   2.50837   2.51403   2.53246
  Beta virt. eigenvalues --    2.55189   2.55775   2.56987   2.59084   2.59153
  Beta virt. eigenvalues --    2.59704   2.60301   2.61127   2.62431   2.64962
  Beta virt. eigenvalues --    2.65862   2.67059   2.68635   2.69330   2.70510
  Beta virt. eigenvalues --    2.71446   2.71945   2.77582   2.78119   2.78728
  Beta virt. eigenvalues --    2.79690   2.81727   2.83059   2.83431   2.85824
  Beta virt. eigenvalues --    2.87309   2.87811   2.89585   2.89952   2.91479
  Beta virt. eigenvalues --    2.91566   2.94730   2.95242   2.96214   2.98034
  Beta virt. eigenvalues --    3.02937   3.04360   3.05498   3.11029   3.13609
  Beta virt. eigenvalues --    3.15200   3.20402   3.20954   3.28830   3.29825
  Beta virt. eigenvalues --    3.30616   3.36880   3.36946   3.55312   3.60179
  Beta virt. eigenvalues --    3.77701   3.79899   4.07487   4.16676
          Condensed to atoms (all electrons):
          Atomic-Atomic Spin Densities.
 Mulliken charges and spin densities:
               1          2
     1  Fe   1.012242   2.890210
     2  N   -0.677343   0.008781
     3  N   -0.669453   0.140039
     4  N   -0.686550  -0.000064
     5  N   -0.686426   0.140132
     6  C    0.293782  -0.028312
     7  C    0.039288   0.138797
     8  C    0.037004   0.010609
     9  C    0.263531   0.117398
    10  C    0.289561  -0.038719
    11  C    0.052274   0.014128
    12  C   -0.001998   0.013762
    13  C    0.330580  -0.046465
    14  C    0.304655  -0.031979
    15  C    0.040107   0.173575
    16  C    0.007504   0.021789
    17  C    0.288596   0.102155
    18  C    0.304691  -0.047149
    19  C    0.051737   0.015019
    20  C    0.034543   0.014090
    21  C    0.334914  -0.056426
    22  C   -0.281214   0.380782
    23  H    0.196512  -0.018165
    24  C   -0.278270   0.282799
    25  H    0.199781  -0.013738
    26  C   -0.275173   0.389589
    27  H    0.196101  -0.018640
    28  C   -0.267421   0.289712
    29  H    0.200768  -0.013932
    30  C   -0.611531  -0.002919
    31  H    0.204025  -0.000462
    32  H    0.195416   0.001880
    33  H    0.201461   0.001899
    34  C   -0.612485  -0.013228
    35  H    0.201536   0.006882
    36  H    0.200176   0.006992
    37  H    0.202005  -0.000099
    38  C   -0.615190  -0.001278
    39  H    0.197376   0.001405
    40  H    0.202434   0.000813
    41  H    0.216443  -0.000145
    42  C   -0.152171  -0.003180
    43  H    0.181439   0.001085
    44  C   -0.391843   0.004235
    45  H    0.185076  -0.000187
    46  H    0.194226  -0.000104
    47  C   -0.615486  -0.015248
    48  H    0.202786   0.010045
    49  H    0.193845   0.004707
    50  H    0.210826   0.001089
    51  C   -0.154890  -0.018836
    52  H    0.169627   0.001787
    53  C   -0.395335   0.036959
    54  H    0.186401  -0.001840
    55  H    0.189415  -0.001969
    56  C   -0.613251  -0.001561
    57  H    0.209928   0.001304
    58  H    0.201588   0.001464
    59  H    0.206146  -0.000213
    60  C   -0.611475  -0.001622
    61  H    0.204690  -0.000193
    62  H    0.202733   0.001567
    63  H    0.204680   0.001502
    64  O   -0.821688   0.028140
    65  H    0.475212   0.002119
    66  H    0.463742   0.003837
    67  C   -0.602406   0.000900
    68  H    0.219500   0.000043
    69  H    0.214512   0.000187
    70  H    0.211294   0.000177
    71  N   -0.629909   0.005108
    72  H    0.384190   0.001574
    73  C    0.282493   0.004839
    74  C    0.260818   0.011678
    75  H    0.227775   0.000281
    76  N   -0.493324   0.088083
    77  C   -0.042250  -0.000495
    78  H    0.205094   0.001222
 Sum of Mulliken charges =   1.00000   5.00000
 Mulliken charges and spin densities with hydrogens summed into heavy atoms:
               1          2
     1  Fe   1.012242   2.890210
     2  N   -0.677343   0.008781
     3  N   -0.669453   0.140039
     4  N   -0.686550  -0.000064
     5  N   -0.686426   0.140132
     6  C    0.293782  -0.028312
     7  C    0.039288   0.138797
     8  C    0.037004   0.010609
     9  C    0.263531   0.117398
    10  C    0.289561  -0.038719
    11  C    0.052274   0.014128
    12  C   -0.001998   0.013762
    13  C    0.330580  -0.046465
    14  C    0.304655  -0.031979
    15  C    0.040107   0.173575
    16  C    0.007504   0.021789
    17  C    0.288596   0.102155
    18  C    0.304691  -0.047149
    19  C    0.051737   0.015019
    20  C    0.034543   0.014090
    21  C    0.334914  -0.056426
    22  C   -0.084702   0.362617
    24  C   -0.078488   0.269061
    26  C   -0.079072   0.370949
    28  C   -0.066653   0.275780
    30  C   -0.010629   0.000399
    34  C   -0.008768   0.000547
    38  C    0.001063   0.000794
    42  C    0.029268  -0.002095
    44  C   -0.012541   0.003944
    47  C   -0.008029   0.000592
    51  C    0.014737  -0.017049
    53  C   -0.019518   0.033150
    56  C    0.004411   0.000994
    60  C    0.000628   0.001254
    64  O    0.117266   0.034096
    67  C    0.042900   0.001307
    71  N   -0.245719   0.006682
    73  C    0.282493   0.004839
    74  C    0.488593   0.011959
    76  N   -0.493324   0.088083
    77  C    0.162844   0.000727
 Electronic spatial extent (au):  <R**2>=          19901.6673
 Charge=              1.0000 electrons
 Dipole moment (field-independent basis, Debye):
    X=              1.2520    Y=             -1.7866    Z=              3.1030  Tot=              3.7931
 Quadrupole moment (field-independent basis, Debye-Ang):
   XX=           -182.6325   YY=           -192.0432   ZZ=           -203.2137
   XY=              3.0174   XZ=              4.2671   YZ=             -1.7997
 Traceless Quadrupole moment (field-independent basis, Debye-Ang):
   XX=              9.9973   YY=              0.5866   ZZ=            -10.5839
   XY=              3.0174   XZ=              4.2671   YZ=             -1.7997
 Octapole moment (field-independent basis, Debye-Ang**2):
  XXX=             -0.3520  YYY=            -12.4897  ZZZ=            124.7267  XYY=              8.6749
  XXY=             -4.4811  XXZ=              4.1549  XZZ=             15.7439  YZZ=            -22.0164
  YYZ=            -45.2834  XYZ=             14.3724
 Hexadecapole moment (field-independent basis, Debye-Ang**3):
 XXXX=         -10357.5594 YYYY=         -10136.0406 ZZZZ=          -2265.3425 XXXY=             45.0290
 XXXZ=             83.4264 YYYX=            103.2354 YYYZ=            -18.8591 ZZZX=             27.3750
 ZZZY=            -56.5515 XXYY=          -3271.0856 XXZZ=          -2490.8041 YYZZ=          -2522.8884
 XXYZ=             27.8115 YYXZ=             85.8375 ZZXY=            -26.4948
 N-N= 5.967211644147D+03 E-N=-1.890896626756D+04  KE= 2.972589891594D+03
                          Isotropic Fermi Contact Couplings
        Atom                 a.u.       MegaHertz       Gauss      10(-4) cm-1
     1  Fe(57)             0.37854      10.98057       3.91814       3.66272
     2  N(14)             -0.01875      -1.21149      -0.43229      -0.40411
     3  N(14)              0.00713       0.46082       0.16443       0.15371
     4  N(14)             -0.02121      -1.37057      -0.48905      -0.45717
     5  N(14)              0.01023       0.66129       0.23596       0.22058
     6  C(13)             -0.01171      -2.63216      -0.93922      -0.87800
     7  C(13)              0.01768       3.97432       1.41814       1.32569
     8  C(13)             -0.00247      -0.55480      -0.19797      -0.18506
     9  C(13)              0.00907       2.03973       0.72783       0.68038
    10  C(13)             -0.01401      -3.14935      -1.12377      -1.05051
    11  C(13)              0.00058       0.12956       0.04623       0.04322
    12  C(13)              0.00079       0.17848       0.06369       0.05953
    13  C(13)             -0.01799      -4.04562      -1.44358      -1.34947
    14  C(13)             -0.01270      -2.85644      -1.01925      -0.95281
    15  C(13)              0.02229       5.01216       1.78846       1.67188
    16  C(13)             -0.00115      -0.25786      -0.09201      -0.08601
    17  C(13)              0.00684       1.53698       0.54843       0.51268
    18  C(13)             -0.01530      -3.43998      -1.22747      -1.14745
    19  C(13)              0.00077       0.17290       0.06169       0.05767
    20  C(13)              0.00120       0.27074       0.09661       0.09031
    21  C(13)             -0.01899      -4.26870      -1.52318      -1.42389
    22  C(13)              0.04911      11.04151       3.93988       3.68305
    23  H(1)              -0.00608      -5.43828      -1.94052      -1.81402
    24  C(13)              0.03422       7.69342       2.74520       2.56625
    25  H(1)              -0.00467      -4.17281      -1.48896      -1.39190
    26  C(13)              0.05030      11.30933       4.03545       3.77239
    27  H(1)              -0.00624      -5.57769      -1.99026      -1.86052
    28  C(13)              0.03562       8.00819       2.85752       2.67124
    29  H(1)              -0.00473      -4.22728      -1.50840      -1.41007
    30  C(13)             -0.00139      -0.31297      -0.11168      -0.10440
    31  H(1)              -0.00021      -0.19098      -0.06815      -0.06370
    32  H(1)               0.00075       0.67348       0.24031       0.22465
    33  H(1)               0.00076       0.67590       0.24118       0.22546
    34  C(13)             -0.00498      -1.12027      -0.39974      -0.37368
    35  H(1)               0.00293       2.61657       0.93366       0.87279
    36  H(1)               0.00295       2.63892       0.94163       0.88025
    37  H(1)              -0.00007      -0.06010      -0.02145      -0.02005
    38  C(13)             -0.00054      -0.12224      -0.04362      -0.04077
    39  H(1)               0.00009       0.07770       0.02772       0.02592
    40  H(1)               0.00026       0.22835       0.08148       0.07617
    41  H(1)              -0.00006      -0.05090      -0.01816      -0.01698
    42  C(13)             -0.00068      -0.15334      -0.05472      -0.05115
    43  H(1)               0.00005       0.04765       0.01700       0.01590
    44  C(13)              0.00052       0.11661       0.04161       0.03890
    45  H(1)              -0.00003      -0.02712      -0.00968      -0.00905
    46  H(1)              -0.00004      -0.03488      -0.01244      -0.01163
    47  C(13)             -0.00585      -1.31585      -0.46953      -0.43892
    48  H(1)               0.00480       4.29002       1.53078       1.43100
    49  H(1)               0.00178       1.59501       0.56914       0.53204
    50  H(1)               0.00078       0.69354       0.24747       0.23134
    51  C(13)             -0.00408      -0.91702      -0.32721      -0.30588
    52  H(1)               0.00048       0.42984       0.15338       0.14338
    53  C(13)              0.00486       1.09258       0.38986       0.36444
    54  H(1)              -0.00054      -0.48004      -0.17129      -0.16012
    55  H(1)              -0.00060      -0.54015      -0.19274      -0.18017
    56  C(13)             -0.00062      -0.13994      -0.04993      -0.04668
    57  H(1)               0.00019       0.17357       0.06193       0.05790
    58  H(1)               0.00019       0.17209       0.06141       0.05740
    59  H(1)              -0.00011      -0.09701      -0.03462      -0.03236
    60  C(13)             -0.00071      -0.15926      -0.05683      -0.05312
    61  H(1)              -0.00011      -0.09445      -0.03370      -0.03150
    62  H(1)               0.00015       0.13195       0.04708       0.04401
    63  H(1)               0.00014       0.12945       0.04619       0.04318
    64  O(17)              0.10759     -13.04398      -4.65442      -4.35100
    65  H(1)               0.00004       0.03401       0.01214       0.01134
    66  H(1)               0.00143       1.27655       0.45550       0.42581
    67  C(13)              0.00060       0.13543       0.04833       0.04518
    68  H(1)               0.00004       0.03776       0.01347       0.01260
    69  H(1)               0.00011       0.10015       0.03574       0.03341
    70  H(1)               0.00011       0.09932       0.03544       0.03313
    71  N(14)              0.00877       0.56690       0.20228       0.18910
    72  H(1)               0.00060       0.53293       0.19016       0.17776
    73  C(13)              0.00445       0.99988       0.35678       0.33353
    74  C(13)              0.00782       1.75868       0.62754       0.58663
    75  H(1)               0.00013       0.11636       0.04152       0.03881
    76  N(14)              0.16866      10.89903       3.88905       3.63553
    77  C(13)              0.00245       0.55183       0.19691       0.18407
    78  H(1)               0.00045       0.40231       0.14355       0.13420
 --------------------------------------------------------
       Center         ----  Spin Dipole Couplings  ----
                      3XX-RR        3YY-RR        3ZZ-RR
 --------------------------------------------------------
     1   Atom       -2.506548     -2.511113      5.017661
     2   Atom       -0.063131     -0.062623      0.125754
     3   Atom       -0.194012     -0.199335      0.393347
     4   Atom       -0.061596     -0.050234      0.111830
     5   Atom       -0.190818     -0.196393      0.387211
     6   Atom       -0.014113      0.005041      0.009072
     7   Atom       -0.079051     -0.068685      0.147736
     8   Atom       -0.014235     -0.018834      0.033068
     9   Atom       -0.068100     -0.081483      0.149584
    10   Atom        0.025526     -0.001508     -0.024018
    11   Atom       -0.002142     -0.010393      0.012535
    12   Atom       -0.006710     -0.005397      0.012108
    13   Atom        0.002422      0.026111     -0.028533
    14   Atom       -0.013471      0.003619      0.009852
    15   Atom       -0.097608     -0.086253      0.183862
    16   Atom       -0.020356     -0.025527      0.045883
    17   Atom       -0.060514     -0.072656      0.133171
    18   Atom        0.031287      0.002020     -0.033307
    19   Atom       -0.002067     -0.010453      0.012520
    20   Atom       -0.007639     -0.005197      0.012836
    21   Atom        0.006650      0.032763     -0.039413
    22   Atom       -0.198226     -0.162952      0.361179
    23   Atom       -0.027941      0.036224     -0.008283
    24   Atom       -0.121101     -0.150123      0.271223
    25   Atom        0.030953     -0.022521     -0.008432
    26   Atom       -0.203418     -0.170406      0.373825
    27   Atom       -0.028097      0.036753     -0.008656
    28   Atom       -0.122743     -0.154315      0.277057
    29   Atom        0.031702     -0.022923     -0.008779
    30   Atom        0.004895     -0.000056     -0.004840
    31   Atom        0.003233      0.000618     -0.003851
    32   Atom        0.005789     -0.001232     -0.004557
    33   Atom        0.005824     -0.001257     -0.004568
    34   Atom       -0.002504      0.006643     -0.004139
    35   Atom       -0.002815      0.007507     -0.004693
    36   Atom       -0.002886      0.007765     -0.004878
    37   Atom       -0.000955      0.004955     -0.004000
    38   Atom        0.005086     -0.000644     -0.004442
    39   Atom        0.006445     -0.002047     -0.004399
    40   Atom        0.004825     -0.001320     -0.003505
    41   Atom        0.003574     -0.000432     -0.003142
    42   Atom        0.001491      0.003933     -0.005424
    43   Atom       -0.000283      0.005116     -0.004833
    44   Atom        0.000312     -0.000148     -0.000164
    45   Atom        0.001510      0.000843     -0.002354
    46   Atom       -0.000011      0.001883     -0.001873
    47   Atom       -0.003050      0.006431     -0.003381
    48   Atom       -0.003051      0.007358     -0.004307
    49   Atom       -0.003053      0.008682     -0.005629
    50   Atom       -0.000645      0.005153     -0.004508
    51   Atom        0.012092      0.002676     -0.014769
    52   Atom        0.007269     -0.001863     -0.005406
    53   Atom       -0.014130      0.001755      0.012375
    54   Atom        0.000878      0.001687     -0.002565
    55   Atom        0.004571     -0.001683     -0.002888
    56   Atom        0.005249     -0.000617     -0.004632
    57   Atom        0.005565     -0.001644     -0.003922
    58   Atom        0.005768     -0.001630     -0.004139
    59   Atom        0.003585     -0.000445     -0.003140
    60   Atom        0.001452      0.003466     -0.004919
    61   Atom        0.001025      0.002160     -0.003185
    62   Atom        0.000029      0.004280     -0.004309
    63   Atom       -0.000023      0.004140     -0.004116
    64   Atom       -0.088000     -0.092439      0.180439
    65   Atom       -0.017301     -0.015640      0.032941
    66   Atom       -0.020446     -0.016341      0.036787
    67   Atom       -0.003152     -0.004189      0.007341
    68   Atom       -0.001243     -0.003289      0.004533
    69   Atom       -0.002396     -0.002450      0.004846
    70   Atom       -0.002347     -0.002334      0.004681
    71   Atom       -0.013272     -0.003184      0.016456
    72   Atom       -0.003549     -0.004969      0.008518
    73   Atom       -0.008562     -0.007825      0.016388
    74   Atom       -0.007333     -0.012475      0.019808
    75   Atom        0.005086     -0.015911      0.010824
    76   Atom       -0.149118     -0.126180      0.275298
    77   Atom       -0.002985     -0.025821      0.028805
    78   Atom        0.005455     -0.016183      0.010728
 --------------------------------------------------------
                        XY            XZ            YZ
 --------------------------------------------------------
     1   Atom        0.031087     -0.106045     -0.131544
     2   Atom       -0.018161     -0.009691      0.005591
     3   Atom        0.011702     -0.007050     -0.010666
     4   Atom       -0.016844      0.001578     -0.008185
     5   Atom        0.019909     -0.008027     -0.000632
     6   Atom       -0.006658     -0.001097      0.001721
     7   Atom       -0.005701     -0.006251     -0.001419
     8   Atom       -0.005229     -0.001313     -0.000040
     9   Atom       -0.008602     -0.004564     -0.001426
    10   Atom        0.002559     -0.001620     -0.000286
    11   Atom        0.005606      0.001143     -0.002482
    12   Atom        0.006087     -0.001888      0.000855
    13   Atom        0.004331     -0.002621      0.001144
    14   Atom       -0.006123      0.002329     -0.002607
    15   Atom       -0.004960     -0.007679     -0.017000
    16   Atom       -0.004541     -0.001351     -0.000966
    17   Atom       -0.010353     -0.007479      0.000547
    18   Atom        0.003420      0.002308      0.000912
    19   Atom        0.005928      0.000576      0.001319
    20   Atom        0.006305      0.000942      0.000135
    21   Atom        0.005000      0.001898      0.000747
    22   Atom        0.001685     -0.004187     -0.009079
    23   Atom        0.002938     -0.000064      0.000826
    24   Atom       -0.001061     -0.008799     -0.001169
    25   Atom       -0.002786      0.000236     -0.000105
    26   Atom        0.001916     -0.001882     -0.008043
    27   Atom        0.003557     -0.000303      0.000636
    28   Atom       -0.001685     -0.007856     -0.011916
    29   Atom       -0.003095      0.000756     -0.000308
    30   Atom       -0.005870     -0.000055      0.000065
    31   Atom       -0.004825      0.000007      0.000016
    32   Atom       -0.004915      0.002485     -0.001142
    33   Atom       -0.004844     -0.002454      0.001159
    34   Atom       -0.004750     -0.000079      0.000209
    35   Atom       -0.003097     -0.000596      0.003178
    36   Atom       -0.003042      0.000557     -0.002808
    37   Atom       -0.004904     -0.000042      0.000101
    38   Atom        0.004145      0.000138     -0.000130
    39   Atom        0.003940     -0.001696     -0.000705
    40   Atom        0.003412      0.001813      0.000890
    41   Atom        0.003509     -0.000562     -0.000239
    42   Atom        0.005782      0.001059      0.000065
    43   Atom        0.005942     -0.000736     -0.001127
    44   Atom        0.003485     -0.002263      0.000416
    45   Atom        0.002870      0.001177      0.001000
    46   Atom        0.002400      0.000197      0.000430
    47   Atom       -0.004506     -0.001262      0.000268
    48   Atom       -0.003232      0.000751     -0.003110
    49   Atom       -0.002648     -0.000439      0.003003
    50   Atom       -0.005146     -0.000414      0.001468
    51   Atom       -0.007732     -0.000656     -0.009030
    52   Atom       -0.005704     -0.001133      0.000406
    53   Atom       -0.001459      0.003298      0.025162
    54   Atom       -0.002147      0.000428     -0.001831
    55   Atom       -0.002915      0.000321      0.000833
    56   Atom        0.004294      0.000269      0.000140
    57   Atom        0.003676      0.002159      0.000977
    58   Atom        0.003791     -0.001720     -0.000811
    59   Atom        0.003567      0.000155      0.000096
    60   Atom        0.005288      0.000200      0.000315
    61   Atom        0.004154      0.000118      0.000142
    62   Atom        0.005185     -0.001284     -0.001663
    63   Atom        0.005087      0.001499      0.002037
    64   Atom        0.015887     -0.030123      0.035720
    65   Atom       -0.012525     -0.019921      0.020408
    66   Atom       -0.005247      0.007621     -0.012737
    67   Atom       -0.000023     -0.003349     -0.000272
    68   Atom       -0.000014     -0.003618     -0.000249
    69   Atom       -0.000204     -0.001514      0.000953
    70   Atom        0.000161     -0.001602     -0.001295
    71   Atom        0.000592      0.001985     -0.001428
    72   Atom       -0.000275      0.003742     -0.000531
    73   Atom        0.000015     -0.002311     -0.000523
    74   Atom       -0.002330      0.024807     -0.002553
    75   Atom       -0.002417      0.018153     -0.000872
    76   Atom        0.001539     -0.003418     -0.010310
    77   Atom       -0.000937     -0.026764     -0.000473
    78   Atom       -0.001472     -0.019129     -0.000426
 --------------------------------------------------------


 ---------------------------------------------------------------------------------
              Anisotropic Spin Dipole Couplings in Principal Axis System
 ---------------------------------------------------------------------------------

       Atom             a.u.   MegaHertz   Gauss  10(-4) cm-1        Axes

              Baa    -2.5401   -43.976   -15.692   -14.669 -0.6740  0.7387  0.0034
     1 Fe(57) Bbb    -2.4814   -42.960   -15.329   -14.330  0.7386  0.6738  0.0223
              Bcc     5.0215    86.936    31.021    28.999 -0.0142 -0.0175  0.9997
 
              Baa    -0.0811    -3.127    -1.116    -1.043  0.7150  0.6990  0.0146
     2 N(14)  Bbb    -0.0454    -1.751    -0.625    -0.584 -0.6970  0.7143 -0.0628
              Bcc     0.1265     4.878     1.741     1.627 -0.0543  0.0347  0.9979
 
              Baa    -0.2087    -8.049    -2.872    -2.685 -0.6212  0.7837  0.0066
     3 N(14)  Bbb    -0.1849    -7.132    -2.545    -2.379  0.7836  0.6209  0.0210
              Bcc     0.3936    15.181     5.417     5.064 -0.0124 -0.0182  0.9998
 
              Baa    -0.0738    -2.845    -1.015    -0.949  0.8098  0.5864  0.0190
     4 N(14)  Bbb    -0.0385    -1.486    -0.530    -0.496 -0.5866  0.8083  0.0502
              Bcc     0.1123     4.330     1.545     1.444  0.0141 -0.0518  0.9986
 
              Baa    -0.2137    -8.244    -2.942    -2.750 -0.6572  0.7537 -0.0080
     5 N(14)  Bbb    -0.1736    -6.694    -2.389    -2.233  0.7536  0.6573  0.0115
              Bcc     0.3873    14.938     5.330     4.983 -0.0139 -0.0016  0.9999
 
              Baa    -0.0162    -2.175    -0.776    -0.726  0.9545  0.2973  0.0212
     6 C(13)  Bbb     0.0059     0.793     0.283     0.264 -0.2421  0.8147 -0.5269
              Bcc     0.0103     1.383     0.493     0.461 -0.1739  0.4978  0.8496
 
              Baa    -0.0817   -10.969    -3.914    -3.659  0.9150  0.4024  0.0274
     7 C(13)  Bbb    -0.0662    -8.879    -3.168    -2.962 -0.4024  0.9154 -0.0057
              Bcc     0.1479    19.849     7.083     6.621 -0.0274 -0.0058  0.9996
 
              Baa    -0.0223    -2.987    -1.066    -0.996  0.5476  0.8366  0.0136
     8 C(13)  Bbb    -0.0108    -1.456    -0.519    -0.486  0.8363 -0.5477  0.0245
              Bcc     0.0331     4.442     1.585     1.482 -0.0279  0.0021  0.9996
 
              Baa    -0.0857   -11.505    -4.105    -3.838  0.4413  0.8973  0.0140
     9 C(13)  Bbb    -0.0639    -8.581    -3.062    -2.862  0.8971 -0.4415  0.0162
              Bcc     0.1497    20.086     7.167     6.700 -0.0207 -0.0054  0.9998
 
              Baa    -0.0241    -3.230    -1.153    -1.078  0.0322  0.0090  0.9994
    10 C(13)  Bbb    -0.0017    -0.234    -0.084    -0.078 -0.0938  0.9956 -0.0060
              Bcc     0.0258     3.465     1.236     1.156  0.9951  0.0935 -0.0329
 
              Baa    -0.0135    -1.814    -0.647    -0.605 -0.4482  0.8879  0.1043
    11 C(13)  Bbb     0.0007     0.093     0.033     0.031  0.8931  0.4498  0.0081
              Bcc     0.0128     1.721     0.614     0.574  0.0397 -0.0967  0.9945
 
              Baa    -0.0123    -1.655    -0.591    -0.552  0.7443 -0.6629  0.0807
    12 C(13)  Bbb     0.0000     0.005     0.002     0.002  0.6612  0.7485  0.0504
              Bcc     0.0123     1.650     0.589     0.551 -0.0938  0.0158  0.9955
 
              Baa    -0.0288    -3.864    -1.379    -1.289  0.0874 -0.0276  0.9958
    13 C(13)  Bbb     0.0019     0.256     0.091     0.085  0.9810 -0.1712 -0.0909
              Bcc     0.0269     3.608     1.287     1.203  0.1730  0.9848  0.0121
 
              Baa    -0.0155    -2.082    -0.743    -0.695  0.9531  0.2972 -0.0570
    14 C(13)  Bbb     0.0039     0.524     0.187     0.175 -0.2378  0.8521  0.4663
              Bcc     0.0116     1.559     0.556     0.520  0.1871 -0.4309  0.8828
 
              Baa    -0.1001   -13.433    -4.793    -4.481  0.9202  0.3886  0.0481
    15 C(13)  Bbb    -0.0850   -11.408    -4.071    -3.805 -0.3907  0.9193  0.0470
              Bcc     0.1851    24.841     8.864     8.286 -0.0260 -0.0620  0.9977
 
              Baa    -0.0282    -3.784    -1.350    -1.262  0.5036  0.8637  0.0204
    16 C(13)  Bbb    -0.0177    -2.378    -0.849    -0.793  0.8637 -0.5039  0.0107
              Bcc     0.0459     6.162     2.199     2.055 -0.0195 -0.0123  0.9997
 
              Baa    -0.0786   -10.552    -3.765    -3.520  0.5008  0.8654  0.0154
    17 C(13)  Bbb    -0.0548    -7.357    -2.625    -2.454  0.8647 -0.5010  0.0359
              Bcc     0.1335    17.909     6.391     5.974 -0.0388  0.0046  0.9992
 
              Baa    -0.0334    -4.483    -1.600    -1.495 -0.0345 -0.0224  0.9992
    18 C(13)  Bbb     0.0016     0.220     0.078     0.073 -0.1160  0.9931  0.0183
              Bcc     0.0318     4.263     1.521     1.422  0.9927  0.1152  0.0368
 
              Baa    -0.0136    -1.819    -0.649    -0.607 -0.4570  0.8888 -0.0349
    19 C(13)  Bbb     0.0009     0.120     0.043     0.040  0.8868  0.4522 -0.0953
              Bcc     0.0127     1.699     0.606     0.567  0.0689  0.0745  0.9948
 
              Baa    -0.0129    -1.725    -0.616    -0.575  0.7720 -0.6351 -0.0250
    20 C(13)  Bbb    -0.0000    -0.005    -0.002    -0.002  0.6333  0.7720 -0.0545
              Bcc     0.0129     1.730     0.617     0.577  0.0539  0.0262  0.9982
 
              Baa    -0.0395    -5.300    -1.891    -1.768 -0.0403 -0.0075  0.9992
    21 C(13)  Bbb     0.0058     0.777     0.277     0.259  0.9823 -0.1832  0.0382
              Bcc     0.0337     4.523     1.614     1.509  0.1827  0.9831  0.0148
 
              Baa    -0.1983   -26.614    -9.497    -8.878  0.9989 -0.0459  0.0067
    22 C(13)  Bbb    -0.1630   -21.878    -7.807    -7.298  0.0457  0.9988  0.0177
              Bcc     0.3614    48.492    17.303    16.175 -0.0075 -0.0173  0.9998
 
              Baa    -0.0281   -14.980    -5.345    -4.997  0.9989 -0.0457  0.0052
    23 H(1)   Bbb    -0.0083    -4.427    -1.580    -1.477 -0.0060 -0.0182  0.9998
              Bcc     0.0364    19.407     6.925     6.473  0.0456  0.9988  0.0184
 
              Baa    -0.1502   -20.151    -7.190    -6.722  0.0375  0.9993  0.0036
    24 C(13)  Bbb    -0.1213   -16.272    -5.806    -5.428  0.9990 -0.0376  0.0223
              Bcc     0.2714    36.422    12.996    12.149 -0.0224 -0.0027  0.9997
 
              Baa    -0.0227   -12.094    -4.315    -4.034  0.0519  0.9986  0.0065
    25 H(1)   Bbb    -0.0084    -4.499    -1.605    -1.501 -0.0064 -0.0062  1.0000
              Bcc     0.0311    16.593     5.921     5.535  0.9986 -0.0519  0.0061
 
              Baa    -0.2035   -27.312    -9.746    -9.110  0.9984 -0.0571  0.0025
    26 C(13)  Bbb    -0.1704   -22.868    -8.160    -7.628  0.0571  0.9983  0.0149
              Bcc     0.3739    50.180    17.906    16.738 -0.0033 -0.0148  0.9999
 
              Baa    -0.0283   -15.098    -5.387    -5.036  0.9984 -0.0548  0.0172
    27 H(1)   Bbb    -0.0087    -4.620    -1.648    -1.541 -0.0179 -0.0126  0.9998
              Bcc     0.0370    19.718     7.036     6.577  0.0545  0.9984  0.0136
 
              Baa    -0.1548   -20.767    -7.410    -6.927  0.0596  0.9978  0.0286
    28 C(13)  Bbb    -0.1228   -16.476    -5.879    -5.496  0.9980 -0.0601  0.0178
              Bcc     0.2775    37.243    13.289    12.423 -0.0195 -0.0275  0.9994
 
              Baa    -0.0231   -12.327    -4.398    -4.112  0.0561  0.9983  0.0185
    29 H(1)   Bbb    -0.0088    -4.689    -1.673    -1.564 -0.0200 -0.0174  0.9996
              Bcc     0.0319    17.016     6.072     5.676  0.9982 -0.0565  0.0190
 
              Baa    -0.0048    -0.650    -0.232    -0.217 -0.0097 -0.0254  0.9996
    30 C(13)  Bbb    -0.0040    -0.530    -0.189    -0.177  0.5529  0.8329  0.0266
              Bcc     0.0088     1.180     0.421     0.393  0.8332 -0.5529 -0.0060
 
              Baa    -0.0039    -2.055    -0.733    -0.686 -0.0127 -0.0171  0.9998
    31 H(1)   Bbb    -0.0031    -1.639    -0.585    -0.547  0.6075  0.7940  0.0213
              Bcc     0.0069     3.695     1.318     1.232  0.7942 -0.6076 -0.0004
 
              Baa    -0.0051    -2.733    -0.975    -0.912 -0.2164  0.0130  0.9762
    32 H(1)   Bbb    -0.0038    -2.002    -0.714    -0.668  0.4387  0.8946  0.0853
              Bcc     0.0089     4.735     1.690     1.579  0.8722 -0.4467  0.1993
 
              Baa    -0.0051    -2.732    -0.975    -0.911  0.2009 -0.0418  0.9787
    33 H(1)   Bbb    -0.0037    -1.980    -0.707    -0.661  0.4415  0.8957 -0.0524
              Bcc     0.0088     4.713     1.682     1.572  0.8745 -0.4426 -0.1984
 
              Baa    -0.0045    -0.607    -0.217    -0.203  0.9198  0.3917 -0.0233
    34 C(13)  Bbb    -0.0041    -0.556    -0.198    -0.185  0.0283 -0.0069  0.9996
              Bcc     0.0087     1.163     0.415     0.388 -0.3913  0.9201  0.0174
 
              Baa    -0.0055    -2.926    -1.044    -0.976 -0.0806 -0.2550  0.9636
    35 H(1)   Bbb    -0.0036    -1.939    -0.692    -0.647  0.9635  0.2277  0.1409
              Bcc     0.0091     4.865     1.736     1.623 -0.2553  0.9398  0.2273
 
              Baa    -0.0055    -2.923    -1.043    -0.975  0.0453  0.2172  0.9751
    36 H(1)   Bbb    -0.0037    -1.961    -0.700    -0.654  0.9675  0.2335 -0.0970
              Bcc     0.0092     4.884     1.743     1.629 -0.2487  0.9478 -0.1995
 
              Baa    -0.0040    -2.135    -0.762    -0.712 -0.0358 -0.0309  0.9989
    37 H(1)   Bbb    -0.0037    -1.987    -0.709    -0.663  0.8700  0.4909  0.0464
              Bcc     0.0077     4.122     1.471     1.375 -0.4918  0.8706  0.0093
 
              Baa    -0.0045    -0.599    -0.214    -0.200 -0.0549  0.0933  0.9941
    38 C(13)  Bbb    -0.0028    -0.376    -0.134    -0.125 -0.4612  0.8807 -0.1082
              Bcc     0.0073     0.974     0.348     0.325  0.8856  0.4644  0.0053
 
              Baa    -0.0047    -2.490    -0.888    -0.831  0.1211  0.0841  0.9891
    39 H(1)   Bbb    -0.0036    -1.916    -0.684    -0.639 -0.3701  0.9284 -0.0336
              Bcc     0.0083     4.406     1.572     1.470  0.9211  0.3620 -0.1436
 
              Baa    -0.0039    -2.085    -0.744    -0.696 -0.1478 -0.1419  0.9788
    40 H(1)   Bbb    -0.0028    -1.512    -0.539    -0.504 -0.4194  0.9053  0.0679
              Bcc     0.0067     3.597     1.284     1.200  0.8957  0.4004  0.1933
 
              Baa    -0.0032    -1.703    -0.608    -0.568  0.1110 -0.0553  0.9923
    41 H(1)   Bbb    -0.0025    -1.314    -0.469    -0.438 -0.4927  0.8640  0.1033
              Bcc     0.0057     3.016     1.076     1.006  0.8631  0.5004 -0.0687
 
              Baa    -0.0057    -0.765    -0.273    -0.255 -0.2611  0.1503  0.9535
    42 C(13)  Bbb    -0.0030    -0.397    -0.141    -0.132  0.7300 -0.6156  0.2969
              Bcc     0.0087     1.162     0.415     0.388  0.6316  0.7736  0.0511
 
              Baa    -0.0050    -2.648    -0.945    -0.883  0.0606  0.0756  0.9953
    43 H(1)   Bbb    -0.0041    -2.193    -0.782    -0.731  0.8401 -0.5423 -0.0100
              Bcc     0.0091     4.841     1.727     1.615  0.5390  0.8368 -0.0964
 
              Baa    -0.0043    -0.576    -0.205    -0.192  0.6698 -0.6065  0.4285
    44 C(13)  Bbb     0.0002     0.030     0.011     0.010 -0.0423  0.5449  0.8374
              Bcc     0.0041     0.546     0.195     0.182  0.7414  0.5790 -0.3393
 
              Baa    -0.0027    -1.444    -0.515    -0.482 -0.1895 -0.1211  0.9744
    45 H(1)   Bbb    -0.0017    -0.913    -0.326    -0.305 -0.6578  0.7524 -0.0344
              Bcc     0.0044     2.357     0.841     0.786  0.7290  0.6474  0.2223
 
              Baa    -0.0019    -1.032    -0.368    -0.344  0.1709 -0.2157  0.9614
    46 H(1)   Bbb    -0.0016    -0.866    -0.309    -0.289  0.8111 -0.5232 -0.2616
              Bcc     0.0036     1.898     0.677     0.633  0.5594  0.8245  0.0856
 
              Baa    -0.0054    -0.728    -0.260    -0.243  0.8278  0.3040  0.4716
    47 C(13)  Bbb    -0.0029    -0.383    -0.137    -0.128 -0.4174 -0.2281  0.8796
              Bcc     0.0083     1.110     0.396     0.370 -0.3750  0.9250  0.0619
 
              Baa    -0.0051    -2.714    -0.969    -0.905  0.0460  0.2534  0.9663
    48 H(1)   Bbb    -0.0040    -2.112    -0.754    -0.704  0.9633  0.2449 -0.1100
              Bcc     0.0090     4.826     1.722     1.610 -0.2645  0.9359 -0.2329
 
              Baa    -0.0062    -3.328    -1.187    -1.110 -0.0337 -0.2030  0.9786
    49 H(1)   Bbb    -0.0036    -1.925    -0.687    -0.642  0.9785  0.1928  0.0737
              Bcc     0.0098     5.253     1.874     1.752 -0.2036  0.9600  0.1921
 
              Baa    -0.0048    -2.563    -0.915    -0.855 -0.2166 -0.2511  0.9434
    50 H(1)   Bbb    -0.0035    -1.882    -0.671    -0.628  0.8396  0.4452  0.3113
              Bcc     0.0083     4.444     1.586     1.483 -0.4981  0.8595  0.1144
 
              Baa    -0.0190    -2.556    -0.912    -0.853  0.1227  0.4178  0.9002
    51 C(13)  Bbb     0.0021     0.280     0.100     0.093  0.5394  0.7333 -0.4139
              Bcc     0.0170     2.276     0.812     0.759  0.8330 -0.5364  0.1354
 
              Baa    -0.0055    -2.943    -1.050    -0.982  0.1271  0.0887  0.9879
    52 H(1)   Bbb    -0.0046    -2.447    -0.873    -0.816  0.4191  0.8979 -0.1345
              Bcc     0.0101     5.390     1.923     1.798  0.8990 -0.4312 -0.0769
 
              Baa    -0.0203    -2.728    -0.973    -0.910  0.4629  0.6794 -0.5694
    53 C(13)  Bbb    -0.0125    -1.679    -0.599    -0.560  0.8857 -0.3799  0.2667
              Bcc     0.0328     4.407     1.572     1.470  0.0351  0.6278  0.7776
 
              Baa    -0.0033    -1.750    -0.625    -0.584  0.1033  0.3830  0.9180
    54 H(1)   Bbb    -0.0006    -0.338    -0.121    -0.113  0.8067  0.5077 -0.3026
              Bcc     0.0039     2.088     0.745     0.697 -0.5819  0.7717 -0.2565
 
              Baa    -0.0038    -2.002    -0.714    -0.668 -0.2544 -0.6475  0.7184
    55 H(1)   Bbb    -0.0020    -1.049    -0.374    -0.350  0.2638  0.6682  0.6957
              Bcc     0.0057     3.052     1.089     1.018  0.9304 -0.3665 -0.0008
 
              Baa    -0.0046    -0.623    -0.222    -0.208 -0.0226 -0.0106  0.9997
    56 C(13)  Bbb    -0.0029    -0.387    -0.138    -0.129 -0.4669  0.8843 -0.0012
              Bcc     0.0075     1.010     0.360     0.337  0.8840  0.4667  0.0249
 
              Baa    -0.0044    -2.354    -0.840    -0.785 -0.1654 -0.1256  0.9782
    57 H(1)   Bbb    -0.0032    -1.699    -0.606    -0.567 -0.3974  0.9163  0.0504
              Bcc     0.0076     4.053     1.446     1.352  0.9026  0.3804  0.2014
 
              Baa    -0.0044    -2.374    -0.847    -0.792  0.1212  0.1206  0.9853
    58 H(1)   Bbb    -0.0032    -1.719    -0.614    -0.574 -0.3980  0.9152 -0.0631
              Bcc     0.0077     4.093     1.461     1.365  0.9093  0.3845 -0.1589
 
              Baa    -0.0031    -1.678    -0.599    -0.560 -0.0141 -0.0169  0.9998
    59 H(1)   Bbb    -0.0025    -1.348    -0.481    -0.450 -0.5042  0.8636  0.0075
              Bcc     0.0057     3.026     1.080     1.009  0.8635  0.5039  0.0207
 
              Baa    -0.0049    -0.662    -0.236    -0.221 -0.0005 -0.0372  0.9993
    60 C(13)  Bbb    -0.0029    -0.392    -0.140    -0.131  0.7707 -0.6368 -0.0234
              Bcc     0.0079     1.054     0.376     0.352  0.6372  0.7702  0.0290
 
              Baa    -0.0032    -1.701    -0.607    -0.568 -0.0084 -0.0199  0.9998
    61 H(1)   Bbb    -0.0026    -1.387    -0.495    -0.463  0.7535 -0.6574 -0.0067
              Bcc     0.0058     3.089     1.102     1.030  0.6574  0.7533  0.0205
 
              Baa    -0.0047    -2.496    -0.891    -0.833  0.1845  0.0752  0.9800
    62 H(1)   Bbb    -0.0034    -1.832    -0.654    -0.611  0.8139 -0.5707 -0.1094
              Bcc     0.0081     4.328     1.544     1.444  0.5510  0.8177 -0.1664
 
              Baa    -0.0046    -2.481    -0.885    -0.828 -0.1859 -0.1185  0.9754
    63 H(1)   Bbb    -0.0034    -1.829    -0.653    -0.610  0.8160 -0.5716  0.0861
              Bcc     0.0081     4.310     1.538     1.438  0.5474  0.8119  0.2029
 
              Baa    -0.1137     8.226     2.935     2.744 -0.6461  0.7470 -0.1569
    64 O(17)  Bbb    -0.0742     5.368     1.915     1.790  0.7566  0.6539 -0.0022
              Bcc     0.1879   -13.594    -4.851    -4.534 -0.1009  0.1201  0.9876
 
              Baa    -0.0290   -15.492    -5.528    -5.167  0.7455  0.6662  0.0203
    65 H(1)   Bbb    -0.0194   -10.367    -3.699    -3.458 -0.5781  0.6615 -0.4777
              Bcc     0.0485    25.859     9.227     8.626 -0.3316  0.3444  0.8783
 
              Baa    -0.0240   -12.830    -4.578    -4.280  0.8096  0.5866  0.0214
    66 H(1)   Bbb    -0.0168    -8.987    -3.207    -2.998 -0.5702  0.7773  0.2656
              Bcc     0.0409    21.817     7.785     7.278  0.1392 -0.2273  0.9638
 
              Baa    -0.0043    -0.572    -0.204    -0.191  0.5575  0.8104  0.1799
    67 C(13)  Bbb    -0.0041    -0.545    -0.194    -0.182  0.7815 -0.5855  0.2156
              Bcc     0.0083     1.117     0.399     0.373 -0.2801 -0.0204  0.9598
 
              Baa    -0.0033    -1.780    -0.635    -0.594  0.2841  0.9453  0.1605
    68 H(1)   Bbb    -0.0029    -1.570    -0.560    -0.524  0.8553 -0.3255  0.4031
              Bcc     0.0063     3.350     1.196     1.118 -0.4333 -0.0228  0.9010
 
              Baa    -0.0027    -1.441    -0.514    -0.481  0.9783  0.0946  0.1844
    69 H(1)   Bbb    -0.0026    -1.372    -0.490    -0.458 -0.0689  0.9876 -0.1409
              Bcc     0.0053     2.813     1.004     0.938 -0.1954  0.1252  0.9727
 
              Baa    -0.0028    -1.473    -0.526    -0.491  0.8326  0.4868  0.2640
    70 H(1)   Bbb    -0.0025    -1.329    -0.474    -0.443 -0.5138  0.8570  0.0401
              Bcc     0.0053     2.802     1.000     0.935 -0.2067 -0.1690  0.9637
 
              Baa    -0.0135    -0.519    -0.185    -0.173  0.9953 -0.0670 -0.0693
    71 N(14)  Bbb    -0.0032    -0.125    -0.045    -0.042  0.0715  0.9953  0.0650
              Bcc     0.0167     0.643     0.230     0.215  0.0646 -0.0696  0.9955
 
              Baa    -0.0050    -2.682    -0.957    -0.895  0.2776  0.9599 -0.0391
    72 H(1)   Bbb    -0.0046    -2.444    -0.872    -0.815  0.9208 -0.2774 -0.2743
              Bcc     0.0096     5.126     1.829     1.710  0.2741 -0.0402  0.9609
 
              Baa    -0.0088    -1.178    -0.420    -0.393  0.9951  0.0351  0.0921
    73 C(13)  Bbb    -0.0078    -1.051    -0.375    -0.351 -0.0369  0.9992  0.0180
              Bcc     0.0166     2.229     0.795     0.744 -0.0914 -0.0213  0.9956
 
              Baa    -0.0221    -2.964    -1.058    -0.989  0.8601  0.0745 -0.5047
    74 C(13)  Bbb    -0.0127    -1.700    -0.606    -0.567 -0.0278  0.9947  0.0994
              Bcc     0.0348     4.664     1.664     1.556  0.5094 -0.0715  0.8576
 
              Baa    -0.0163    -8.698    -3.104    -2.901  0.1937  0.9761 -0.0982
    75 H(1)   Bbb    -0.0101    -5.415    -1.932    -1.806  0.7348 -0.2107 -0.6447
              Bcc     0.0265    14.113     5.036     4.708  0.6501 -0.0527  0.7581
 
              Baa    -0.1492    -5.756    -2.054    -1.920  0.9979 -0.0637  0.0065
    76 N(14)  Bbb    -0.1264    -4.873    -1.739    -1.626  0.0635  0.9976  0.0261
              Bcc     0.2756    10.629     3.793     3.545 -0.0081 -0.0257  0.9996
 
              Baa    -0.0260    -3.484    -1.243    -1.162  0.1170  0.9910  0.0657
    77 C(13)  Bbb    -0.0181    -2.426    -0.866    -0.809  0.8612 -0.1342  0.4903
              Bcc     0.0440     5.910     2.109     1.971 -0.4947  0.0008  0.8691
 
              Baa    -0.0166    -8.833    -3.152    -2.946  0.1993  0.9676  0.1549
    78 H(1)   Bbb    -0.0109    -5.793    -2.067    -1.932  0.7267 -0.2519  0.6391
              Bcc     0.0274    14.625     5.219     4.878 -0.6574  0.0148  0.7534
 

 ---------------------------------------------------------------------------------

 Unable to Open any file for archive entry.
 1\1\GINC-BGN1009\SP\UAPFD\Gen\C34H36Fe1N6O1(1+,6)\BECSLEIP\19-Sep-2024
 \0\\# apfd/gen scf=maxcycle=999 geom=check\\5d6m_III_H\\1,6\Fe,0,23.93
 45011522,12.4830866766,54.6217041428\N,0,25.9026577061,12.6666805004,5
 5.0359833478\N,0,23.5888841894,12.4513693278,56.6305895957\N,0,21.9677
 613972,12.4232637934,54.3109704993\N,0,24.2964434186,12.6613082611,52.
 6947869847\C,0,26.8977475777,12.7701232282,54.1121067183\C,0,28.190460
 3153,12.8225103855,54.756517494\C,0,27.9540741831,12.7510849709,56.094
 6059605\C,0,26.5203677574,12.6563372425,56.2479297023\C,0,24.508568113
 9,12.4765758564,57.6342995485\C,0,23.8739079156,12.3644957959,58.92275
 94811\C,0,22.5300119554,12.2696313291,58.6803614091\C,0,22.3793816016,
 12.3374367555,57.2390305784\C,0,20.972412581,12.320469683,55.230488901
 4\C,0,19.6846050451,12.2496370004,54.588808268\C,0,19.9208365712,12.33
 28607503,53.2417099836\C,0,21.3610511416,12.4327790813,53.0957883218\C
 ,0,23.3734085306,12.6454852589,51.6983846899\C,0,24.0197218804,12.7139
 155398,50.4048717677\C,0,25.3545182209,12.7978930556,50.6499120483\C,0
 ,25.507508012,12.7543941576,52.088622611\C,0,26.7239235982,12.82064971
 2,52.7404118733\H,0,27.6113052165,12.9023544692,52.1313194486\C,0,25.8
 79898663,12.564701612,57.4672255761\H,0,26.4946089076,12.5613433356,58
 .354312987\C,0,21.1570283027,12.2823948859,56.6003121397\H,0,20.276261
 7596,12.1936504422,57.2175732157\C,0,22.006119764,12.5433056154,51.875
 8067785\H,0,21.3925624857,12.5533246278,50.9874561322\C,0,28.921036020
 7,12.7681654013,57.2290247366\H,0,29.9428878958,12.8440115394,56.86545
 78767\H,0,28.835129149,11.8571558143,57.8220949113\H,0,28.7272821145,1
 3.6169694542,57.8855721796\C,0,29.4885723787,12.9396635256,54.03362320
 79\H,0,29.5136833402,13.8509739639,53.435493856\H,0,29.6316981121,12.0
 919941108,53.3629172506\H,0,30.320467052,12.9670257005,54.733405075\C,
 0,24.5773350701,12.42149276,60.2342881247\H,0,25.3875526074,13.1487814
 086,60.2063051814\H,0,25.004275311,11.4505043108,60.4917642896\H,0,23.
 8799718202,12.7079048229,61.0188258617\C,0,21.4391132615,12.1616157416
 ,59.623681375\H,0,20.5207181933,12.6616232592,59.3384518803\C,0,21.482
 1368783,11.5065590107,60.7793716649\H,0,22.350644016,10.9534251703,61.
 0922672308\H,0,20.6348436191,11.4798449573,61.4444296297\C,0,18.387043
 2725,12.0550144507,55.2929463637\H,0,18.003971355,13.0028045278,55.675
 2014103\H,0,18.5053052595,11.3749606978,56.1352753906\H,0,17.650303475
 6,11.6377048085,54.6095216061\C,0,18.9795689431,12.3005816069,52.14471
 03754\H,0,19.3388676567,11.8400539166,51.2315659194\C,0,17.7438580941,
 12.7901568149,52.1719575158\H,0,17.3480985559,13.3010267333,53.0320362
 754\H,0,17.0910104455,12.7183571647,51.3177467129\C,0,23.2962089769,12
 .7108816325,49.1017459434\H,0,22.6057414265,13.5527077274,49.044909370
 7\H,0,22.7192787078,11.7929573697,48.9850187735\H,0,23.9940718242,12.7
 836535384,48.271214912\C,0,26.4880417533,12.8987648193,49.6874485075\H
 ,0,26.126089428,12.9118232964,48.662257733\H,0,27.1651077892,12.051493
 9291,49.8018255929\H,0,27.0578364606,13.8118972072,49.8616738718\O,0,2
 3.916,14.753,54.747\H,0,24.828,14.956,54.956\H,0,23.245,15.334,54.703\
 C,0,23.6103649625,7.1114598115,53.1695442492\H,0,23.0479357783,7.31564
 56751,52.2636427028\H,0,23.0209478444,6.4503129483,53.8051352783\H,0,2
 4.5315811026,6.5940346369,52.9006584847\N,0,24.6400264782,8.4422094085
 ,55.0247453778\H,0,25.0400525726,7.6535377345,55.5058903565\C,0,23.906
 8730951,8.3876944716,53.8683753749\C,0,24.723212161,9.7399842754,55.39
 65252276\H,0,25.2401177029,10.0830117837,56.2689158964\N,0,24.08758563
 03,10.509589826,54.5461861821\C,0,23.5738847607,9.6824673492,53.590480
 229\H,0,23.0041440614,10.0732052294,52.772755554\\Version=ES64L-G16Rev
 C.02\State=6-A\HF=-2983.1450008\S2=8.825848\S2-1=0.\S2A=8.751518\RMSD=
 4.084e-09\Dipole=0.9293079,-1.1664687,0.0528681\Quadrupole=0.5345389,-
 8.0818543,7.5473154,-2.2532073,1.9501552,-2.3244509\PG=C01 [X(C34H36Fe
 1N6O1)]\\@
 The archive entry for this job was punched.


 AND HERE I AM, FOR ALL MY LORE,
 THE WRETCHED FOOL I WAS BEFORE.
 CALLED MASTER OF ARTS, AND DOCTOR TO BOOT,
 FOR TEN YEARS ALMOST I CONFUTE
 AND UP AND DOWN, WHEREVER IT GOES
 I DRAG MY STUDENTS BY THE NOSE --
 AND SEE THAT FOR ALL OUR SCIENCE AND ART
 WE CAN KNOW NOTHING.  IT BURNS MY HEART.

                                       -- FAUST
 Job cpu time:       0 days  9 hours 33 minutes 11.6 seconds.
 Elapsed time:       0 days  0 hours  9 minutes 54.0 seconds.
 File lengths (MBytes):  RWF=    430 Int=      0 D2E=      0 Chk=    155 Scr=      1
 Normal termination of Gaussian 16 at Thu Sep 19 23:47:46 2024.
