 Entering Gaussian System, Link 0=g16
 Input=5eyj16.com
 Output=5eyj16.log
 Initial command:
 /sw/chem/gaussian/g16_C02/a100/g16/l1.exe "/local/becsleip_8024027/Gau-1413436.inp" -scrdir="/local/becsleip_8024027/"
 Entering Link 1 = /sw/chem/gaussian/g16_C02/a100/g16/l1.exe PID=   1413437.
  
 Copyright (c) 1988-2021, Gaussian, Inc.  All Rights Reserved.
  
 This is part of the Gaussian(R) 16 program.  It is based on
 the Gaussian(R) 09 system (copyright 2009, Gaussian, Inc.),
 the Gaussian(R) 03 system (copyright 2003, Gaussian, Inc.),
 the Gaussian(R) 98 system (copyright 1998, Gaussian, Inc.),
 the Gaussian(R) 94 system (copyright 1995, Gaussian, Inc.),
 the Gaussian 92(TM) system (copyright 1992, Gaussian, Inc.),
 the Gaussian 90(TM) system (copyright 1990, Gaussian, Inc.),
 the Gaussian 88(TM) system (copyright 1988, Gaussian, Inc.),
 the Gaussian 86(TM) system (copyright 1986, Carnegie Mellon
 University), and the Gaussian 82(TM) system (copyright 1983,
 Carnegie Mellon University). Gaussian is a federally registered
 trademark of Gaussian, Inc.
  
 This software contains proprietary and confidential information,
 including trade secrets, belonging to Gaussian, Inc.
  
 This software is provided under written license and may be
 used, copied, transmitted, or stored only in accord with that
 written license.
  
 The following legend is applicable only to US Government
 contracts under FAR:
  
                    RESTRICTED RIGHTS LEGEND
  
 Use, reproduction and disclosure by the US Government is
 subject to restrictions as set forth in subparagraphs (a)
 and (c) of the Commercial Computer Software - Restricted
 Rights clause in FAR 52.227-19.
  
 Gaussian, Inc.
 340 Quinnipiac St., Bldg. 40, Wallingford CT 06492
  
  
 ---------------------------------------------------------------
 Warning -- This program may not be used in any manner that
 competes with the business of Gaussian, Inc. or will provide
 assistance to any competitor of Gaussian, Inc.  The licensee
 of this program is prohibited from giving any competitor of
 Gaussian, Inc. access to this program.  By using this program,
 the user acknowledges that Gaussian, Inc. is engaged in the
 business of creating and licensing software in the field of
 computational chemistry and represents and warrants to the
 licensee that it is not a competitor of Gaussian, Inc. and that
 it will not use this program in any manner prohibited above.
 ---------------------------------------------------------------
  

 Cite this work as:
 Gaussian 16, Revision C.02,
 M. J. Frisch, G. W. Trucks, H. B. Schlegel, G. E. Scuseria, 
 M. A. Robb, J. R. Cheeseman, G. Scalmani, V. Barone, 
 G. A. Petersson, H. Nakatsuji, X. Li, M. Caricato, A. V. Marenich, 
 J. Bloino, B. G. Janesko, R. Gomperts, B. Mennucci, H. P. Hratchian, 
 J. V. Ortiz, A. F. Izmaylov, J. L. Sonnenberg, D. Williams-Young, 
 F. Ding, F. Lipparini, F. Egidi, J. Goings, B. Peng, A. Petrone, 
 T. Henderson, D. Ranasinghe, V. G. Zakrzewski, J. Gao, N. Rega, 
 G. Zheng, W. Liang, M. Hada, M. Ehara, K. Toyota, R. Fukuda, 
 J. Hasegawa, M. Ishida, T. Nakajima, Y. Honda, O. Kitao, H. Nakai, 
 T. Vreven, K. Throssell, J. A. Montgomery, Jr., J. E. Peralta, 
 F. Ogliaro, M. J. Bearpark, J. J. Heyd, E. N. Brothers, K. N. Kudin, 
 V. N. Staroverov, T. A. Keith, R. Kobayashi, J. Normand, 
 K. Raghavachari, A. P. Rendell, J. C. Burant, S. S. Iyengar, 
 J. Tomasi, M. Cossi, J. M. Millam, M. Klene, C. Adamo, R. Cammi, 
 J. W. Ochterski, R. L. Martin, K. Morokuma, O. Farkas, 
 J. B. Foresman, and D. J. Fox, Gaussian, Inc., Wallingford CT, 2019.
 
 ******************************************
 Gaussian 16:  ES64L-G16RevC.02  7-Dec-2021
                20-Sep-2024 
 ******************************************
 %mem=16GB
 %CPU=0-71
 SetSPE:  set environment variable "OMP_PROC_BIND" = "true"
 SetSPE:  set environment variable "OMP_PLACES" = "{0},{1},{2},{3},{4},{5},{6},{7},{8},{9},{10},{11},{12},{13},{14},{15},{16},{17},{18},{19},{20},{21},{22},{23},{24},{25},{26},{27},{28},{29},{30},{31},{32},{33},{34},{35},{36},{37},{38},{39},{40},{41},{42},{43},{44},{45},{46},{47},{48},{49},{50},{51},{52},{53},{54},{55},{56},{57},{58},{59},{60},{61},{62},{63},{64},{65},{66},{67},{68},{69},{70},{71}"
 Will use up to   72 processors via shared memory.
 %gpucpu=0,1,2,3=0,1,2,3
 Will use    4 GPUs:
 Thread  CPU   GPU
      0    0     0
      1    1     1
      2    2     2
      3    3     3
      4    4    -1
      5    5    -1
      6    6    -1
      7    7    -1
      8    8    -1
      9    9    -1
     10   10    -1
     11   11    -1
     12   12    -1
     13   13    -1
     14   14    -1
     15   15    -1
     16   16    -1
     17   17    -1
     18   18    -1
     19   19    -1
     20   20    -1
     21   21    -1
     22   22    -1
     23   23    -1
     24   24    -1
     25   25    -1
     26   26    -1
     27   27    -1
     28   28    -1
     29   29    -1
     30   30    -1
     31   31    -1
     32   32    -1
     33   33    -1
     34   34    -1
     35   35    -1
     36   36    -1
     37   37    -1
     38   38    -1
     39   39    -1
     40   40    -1
     41   41    -1
     42   42    -1
     43   43    -1
     44   44    -1
     45   45    -1
     46   46    -1
     47   47    -1
     48   48    -1
     49   49    -1
     50   50    -1
     51   51    -1
     52   52    -1
     53   53    -1
     54   54    -1
     55   55    -1
     56   56    -1
     57   57    -1
     58   58    -1
     59   59    -1
     60   60    -1
     61   61    -1
     62   62    -1
     63   63    -1
     64   64    -1
     65   65    -1
     66   66    -1
     67   67    -1
     68   68    -1
     69   69    -1
     70   70    -1
     71   71    -1
 SetGPE:  set environment variable "OMP_PROC_BIND" = "true"
 SetGPE:  set environment variable "OMP_PLACES" = "{0},{1},{2},{3},{4},{5},{6},{7},{8},{9},{10},{11},{12},{13},{14},{15},{16},{17},{18},{19},{20},{21},{22},{23},{24},{25},{26},{27},{28},{29},{30},{31},{32},{33},{34},{35},{36},{37},{38},{39},{40},{41},{42},{43},{44},{45},{46},{47},{48},{49},{50},{51},{52},{53},{54},{55},{56},{57},{58},{59},{60},{61},{62},{63},{64},{65},{66},{67},{68},{69},{70},{71}"
 %oldchk=5eyj_III_Dre.chk
 %chk=5eyj_III_Hn.chk
 Properties for Device   0
 Minimum vector length:                              32
 Maximum vector length:                            1024
 Number of SMPs:                                    108
 Maximum number of threads per SMP:                2048
 Number of ASync Engines:                             5
 Memory:                                           9207742464
 Properties for Device   1
 Minimum vector length:                              32
 Maximum vector length:                            1024
 Number of SMPs:                                    108
 Maximum number of threads per SMP:                2048
 Number of ASync Engines:                             5
 Memory:                                           9207742464
 Properties for Device   2
 Minimum vector length:                              32
 Maximum vector length:                            1024
 Number of SMPs:                                    108
 Maximum number of threads per SMP:                2048
 Number of ASync Engines:                             5
 Memory:                                           9207742464
 Properties for Device   3
 Minimum vector length:                              32
 Maximum vector length:                            1024
 Number of SMPs:                                    108
 Maximum number of threads per SMP:                2048
 Number of ASync Engines:                             5
 Memory:                                           9207742464
   8286968217 words of memory will be used on each GPU.
 Copying data from "5eyj_III_Dre.chk" to current chk file "5eyj_III_Hn.chk"
 IOpt=  2 FromEx=T IUOpen= 4 IOptOp= 5 NList=   0 IFRang= 0 IUIn= 4 IUOut= 2.
 --------------------------------------------------------------
 # apfd/def2TZVP guess=read scf=maxcycle=999 geom=check pop=nbo
 --------------------------------------------------------------
 1/29=2,38=1,172=1/1;
 2/12=2,40=1/2;
 3/5=44,7=101,11=2,14=-4,25=1,30=1,74=-44,116=-2/1,2,3;
 4/5=1/1;
 5/5=2,7=999,38=6/2;
 6/7=2,8=2,9=2,10=2,28=1,40=1/1,7;
 99/5=1,9=1/99;
 ----------
 5eyj_III_H
 ----------
 Structure from the checkpoint file:  "5eyj_III_Hn.chk"
 Charge =  1 Multiplicity = 6
 Z-Matrix found in chk file.
 Fe,0,17.374581746,55.0243384485,35.47919234
 N,0,16.9614607863,56.9712112705,35.3028697329
 N,0,15.5189780739,54.6022758242,34.7759201445
 N,0,17.7280686675,53.051142287,35.6114545706
 N,0,19.2039312464,55.4267645403,36.0938124535
 C,0,17.7781569074,57.9901899243,35.6765949842
 C,0,17.1847769205,59.2675553605,35.3422737329
 C,0,15.9769501595,58.9922106397,34.7823323836
 C,0,15.8534476321,57.5501183639,34.7745585886
 C,0,14.6138599422,55.4929008617,34.2895773024
 C,0,13.4259432291,54.8199679062,33.8363476284
 C,0,13.6243665471,53.485396268,34.0677371104
 C,0,14.9459414341,53.3768877019,34.654667471
 C,0,16.8256062434,52.0410316835,35.4892107328
 C,0,17.3924353832,50.7919912821,35.9276558813
 C,0,18.6953955371,51.0589964438,36.2638654572
 C,0,18.8831402718,52.4788465042,36.03426836
 C,0,20.1974016154,54.5324737449,36.3324686133
 C,0,21.4051558285,55.2169135776,36.7432519448
 C,0,21.0994703704,56.5417641329,36.7812659645
 C,0,19.7110664192,56.6507796689,36.3868774708
 C,0,19.0460643367,57.8520530404,36.2150439578
 H,0,19.5768196796,58.7561340601,36.4744391107
 C,0,14.7649008751,56.8698832126,34.2675608049
 H,0,13.9552519327,57.4525979044,33.8543936714
 C,0,15.5259783297,52.1822772208,35.0352137486
 H,0,14.9154056922,51.2948882189,34.973972566
 C,0,20.0634809427,53.1569242967,36.2944155382
 H,0,20.932755347,52.5676514402,36.5462704084
 C,0,14.942234004,59.9265647361,34.254618469
 H,0,14.7589513366,59.7385956317,33.1962570148
 H,0,15.2586327222,60.9606830475,34.3686164306
 H,0,14.0002256543,59.7956333587,34.7881973795
 C,0,17.828160706,60.5881504369,35.597451078
 H,0,18.7661295749,60.6707771198,35.047195795
 H,0,18.0480166071,60.7093291182,36.6583935996
 H,0,17.1777750262,61.4025643198,35.2873680475
 C,0,12.2456447079,55.4866749689,33.2167487794
 H,0,12.5350370107,56.0057546323,32.3023980684
 H,0,11.8164589515,56.221578325,33.8983824877
 H,0,11.4806523386,54.7559598179,32.9659762087
 C,0,12.7040363887,52.4104980818,33.7550541201
 H,0,11.6585785879,52.6324936373,33.9444834082
 C,0,13.0206108601,51.2308384803,33.2331246458
 H,0,14.0320182494,50.9698275104,32.9716773759
 H,0,12.268166925,50.4872633102,33.0266979927
 C,0,16.6507813741,49.5053054112,36.0384741114
 H,0,16.6494847296,48.9713557866,35.0863461736
 H,0,15.6156034071,49.6806350897,36.3270754633
 H,0,17.118833571,48.8678113069,36.7862744168
 C,0,19.7111186441,50.1661912555,36.7750146898
 H,0,20.4411267391,50.6189680671,37.4364978315
 C,0,19.8193177488,48.8706467062,36.4957268458
 H,0,19.1561109154,48.374372817,35.8095560594
 H,0,20.5982511796,48.2644764167,36.9282998762
 C,0,22.6956289539,54.535493361,37.0489069634
 H,0,23.0091853962,53.9160599473,36.2085571698
 H,0,22.5933065458,53.8906294319,37.9229219714
 H,0,23.4793869425,55.2616416922,37.2513659087
 C,0,21.961162818,57.7000023973,37.1537913983
 H,0,22.9513146337,57.3662141897,37.45483188
 H,0,21.519363243,58.2546310366,37.9819344672
 H,0,22.071112292,58.383811177,36.3113563237
 C,0,19.8572604213,56.196454958,30.602477483
 H,0,20.3209271345,57.1066062756,30.9698290423
 H,0,19.2212459724,56.4463600143,29.753180843
 H,0,20.639693688,55.5215223916,30.2552029931
 N,0,18.3554090768,54.4092645462,31.5070375631
 H,0,18.3009555679,53.8809091817,30.6517890619
 C,0,19.0632083316,55.5689870979,31.6892795746
 C,0,17.7506166924,54.111135446,32.6787557799
 H,0,17.1262033708,53.2555583367,32.8319332453
 N,0,18.0311483191,55.0096699149,33.5894561275
 C,0,18.8468208946,55.9224780772,32.9901878977
 H,0,19.220132697,56.7667792014,33.5316757479
 C,0,14.3389163876,55.6789607182,40.1079178968
 H,0,13.8936485716,54.7858917825,40.54652823
 H,0,13.5615116001,56.2422640704,39.6013159081
 H,0,14.7433348974,56.2897174899,40.9152598227
 N,0,16.5126309579,54.5966845486,39.4953979222
 H,0,16.7172775291,54.2496209757,40.4178960794
 C,0,15.4021161458,55.3157070689,39.1367988683
 C,0,17.2726247677,54.4388831999,38.3876277951
 H,0,18.2040788432,53.9115699193,38.3684935143
 N,0,16.7113320617,55.0126031663,37.3519957998
 C,0,15.5480270906,55.5633195183,37.8022398779
 H,0,14.8996680993,56.0954536489,37.1376378007
 Recover connectivity data from disk.
 Stoichiometry    C38H40FeN8(1+,6)
 Framework group  C1[X(C38H40FeN8)]
 Deg. of freedom   255
 Full point group                 C1      NOp   1
 Largest Abelian subgroup         C1      NOp   1
 Largest concise Abelian subgroup C1      NOp   1
                         Standard orientation:                         
 ---------------------------------------------------------------------
 Center     Atomic      Atomic             Coordinates (Angstroms)
 Number     Number       Type             X           Y           Z
 ---------------------------------------------------------------------
      1         26           0        0.152974   -0.060527    0.036596
      2          7           0        2.037447    0.584355    0.194583
      3          7           0       -0.459249    1.868843   -0.100186
      4          7           0       -1.762425   -0.637892   -0.147381
      5          7           0        0.748058   -1.938988    0.095605
      6          6           0        3.127295   -0.199855    0.400077
      7          6           0        4.336107    0.596568    0.396153
      8          6           0        3.943545    1.884816    0.210400
      9          6           0        2.501072    1.855975    0.094716
     10          6           0        0.336350    2.967807   -0.191187
     11          6           0       -0.453916    4.162648   -0.322473
     12          6           0       -1.763749    3.765366   -0.300120
     13          6           0       -1.738067    2.321999   -0.162815
     14          6           0       -2.870700    0.148152   -0.087669
     15          6           0       -4.061590   -0.653431    0.025805
     16          6           0       -3.650646   -1.961108   -0.030228
     17          6           0       -2.206664   -1.919667   -0.161132
     18          6           0       -0.023874   -3.042897   -0.075279
     19          6           0        0.783063   -4.241769    0.010914
     20          6           0        2.052148   -3.829991    0.275453
     21          6           0        2.005989   -2.384766    0.340919
     22          6           0        3.119835   -1.580263    0.505036
     23          1           0        4.066386   -2.070379    0.678756
     24          6           0        1.719861    2.973488   -0.118771
     25          1           0        2.218406    3.927665   -0.201193
     26          6           0       -2.869677    1.531941   -0.102655
     27          1           0       -3.822725    2.036032   -0.062653
     28          6           0       -1.399904   -3.045479   -0.209645
     29          1           0       -1.886893   -4.005269   -0.298847
     30          6           0        4.768330    3.123568    0.124603
     31          1           0        4.626519    3.613414   -0.839240
     32          1           0        5.825196    2.895034    0.239977
     33          1           0        4.482883    3.828537    0.906120
     34          6           0        5.709636    0.044295    0.573476
     35          1           0        5.947830   -0.656515   -0.227475
     36          1           0        5.789913   -0.487688    1.521722
     37          1           0        6.451419    0.839325    0.563048
     38          6           0        0.093108    5.540410   -0.477530
     39          1           0        0.702771    5.611371   -1.378920
     40          1           0        0.721189    5.803631    0.374020
     41          1           0       -0.712695    6.266339   -0.553376
     42          6           0       -2.926231    4.622135   -0.421635
     43          1           0       -2.853733    5.570138    0.101990
     44          6           0       -4.019205    4.368750   -1.132571
     45          1           0       -4.130092    3.471734   -1.717800
     46          1           0       -4.838957    5.067441   -1.171635
     47          6           0       -5.437725   -0.121364    0.228409
     48          1           0       -5.905208    0.127738   -0.726085
     49          1           0       -5.416436    0.780652    0.837949
     50          1           0       -6.056055   -0.865503    0.727009
     51          6           0       -4.435708   -3.172437    0.049963
     52          1           0       -3.935793   -4.024381    0.496902
     53          6           0       -5.685828   -3.318386   -0.379038
     54          1           0       -6.218574   -2.526019   -0.874314
     55          1           0       -6.212795   -4.252180   -0.271182
     56          6           0        0.255841   -5.625122   -0.166433
     57          1           0       -0.262734   -5.717083   -1.120806
     58          1           0       -0.451544   -5.872484    0.626435
     59          1           0        1.062647   -6.353854   -0.142532
     60          6           0        3.285688   -4.641968    0.480091
     61          1           0        3.063971   -5.705157    0.426129
     62          1           0        3.724354   -4.431883    1.455825
     63          1           0        4.030571   -4.407841   -0.281299
     64          6           0        1.946211   -0.730884   -5.222189
     65          1           0        2.883181   -1.191447   -4.925071
     66          1           0        2.165817    0.164129   -5.804423
     67          1           0        1.401659   -1.427193   -5.860117
     68          7           0       -0.074281    0.214239   -4.085443
     69          1           0       -0.549306    0.483233   -4.931356
     70          6           0        1.153053   -0.392054   -4.013277
     71          6           0       -0.522543    0.381422   -2.821050
     72          1           0       -1.459649    0.833678   -2.570721
     73          7           0        0.344436   -0.080377   -1.954721
     74          6           0        1.391482   -0.565290   -2.680129
     75          1           0        2.240454   -1.002768   -2.197143
     76          6           0        0.111862    1.397019    5.416444
     77          1           0       -0.857509    1.585862    5.877827
     78          1           0        0.601354    2.348507    5.233736
     79          1           0        0.716700    0.821809    6.117646
     80          7           0       -0.639072   -0.568163    4.057880
     81          1           0       -1.015230   -1.089779    4.832321
     82          6           0       -0.048002    0.666236    4.133550
     83          6           0       -0.626030   -0.948668    2.759923
     84          1           0       -1.026300   -1.874603    2.401511
     85          7           0       -0.064394   -0.031702    2.011274
     86          6           0        0.301444    0.978174    2.851274
     87          1           0        0.786892    1.855040    2.476202
 ---------------------------------------------------------------------
 Rotational constants (GHZ):           0.0780686           0.0748088           0.0592705
 Standard basis: def2TZVP (5D, 7F)
 There are  1948 symmetry adapted cartesian basis functions of A   symmetry.
 There are  1711 symmetry adapted basis functions of A   symmetry.
  1711 basis functions,  2768 primitive gaussians,  1948 cartesian basis functions
   177 alpha electrons      172 beta electrons
       nuclear repulsion energy      7172.8510504843 Hartrees.
 NAtoms=   87 NActive=   87 NUniq=   87 SFac= 1.00D+00 NAtFMM=   60 NAOKFM=T Big=T
 Integral buffers will be    131072 words long.
 Raffenetti 2 integral format.
 Two-electron integral symmetry is turned on.
 R6APFD:  NTU= -4 IXU= 1 FactS= 1.050
 Nuclear repulsion after empirical dispersion term =     7172.6811042869 Hartrees.
 One-electron integrals computed using PRISM.
   1 Symmetry operations used in ECPInt.
 ECPInt:  NShTT=  232221 NPrTT=  716997 LenC2=  183364 LenP2D=  371743.
 LDataN:  DoStor=T MaxTD1= 6 Len=  172
 Number of processors reduced to  20 by ecpmxn.
 NBasis=  1711 RedAO= T EigKep=  3.43D-06  NBF=  1711
 NBsUse=  1711 1.00D-06 EigRej= -1.00D+00 NBFU=  1711
 Initial guess from the checkpoint file:  "5eyj_III_Hn.chk"
 B after Tr=     0.000000    0.000000    0.000000
         Rot=    1.000000    0.000000    0.000000    0.000000 Ang=   0.00 deg.
 Initial guess <Sx>= 0.0000 <Sy>= 0.0000 <Sz>= 2.5000 <S**2>= 8.7578 S= 2.5013
 Requested convergence on RMS density matrix=1.00D-08 within 999 cycles.
 Requested convergence on MAX density matrix=1.00D-06.
 Requested convergence on             energy=1.00D-06.
 No special actions if energy rises.
 SCF Done:  E(UAPFD) =  -3172.88166851     A.U. after   14 cycles
            NFock= 14  Conv=0.66D-08     -V/T= 2.0032
 <Sx>= 0.0000 <Sy>= 0.0000 <Sz>= 2.5000 <S**2>= 8.7580 S= 2.5013
 <L.S>=  0.00000000000    
 Annihilation of the first spin contaminant:
 S**2 before annihilation     8.7580,   after     8.7500

 **********************************************************************

            Population analysis using the SCF Density.

 **********************************************************************

 Orbital symmetries:
 Alpha Orbitals:
       Occupied  (A) (A) (A) (A) (A) (A) (A) (A) (A) (A) (A) (A)
                 (A) (A) (A) (A) (A) (A) (A) (A) (A) (A) (A) (A)
                 (A) (A) (A) (A) (A) (A) (A) (A) (A) (A) (A) (A)
                 (A) (A) (A) (A) (A) (A) (A) (A) (A) (A) (A) (A)
                 (A) (A) (A) (A) (A) (A) (A) (A) (A) (A) (A) (A)
                 (A) (A) (A) (A) (A) (A) (A) (A) (A) (A) (A) (A)
                 (A) (A) (A) (A) (A) (A) (A) (A) (A) (A) (A) (A)
                 (A) (A) (A) (A) (A) (A) (A) (A) (A) (A) (A) (A)
                 (A) (A) (A) (A) (A) (A) (A) (A) (A) (A) (A) (A)
                 (A) (A) (A) (A) (A) (A) (A) (A) (A) (A) (A) (A)
                 (A) (A) (A) (A) (A) (A) (A) (A) (A) (A) (A) (A)
                 (A) (A) (A) (A) (A) (A) (A) (A) (A) (A) (A) (A)
                 (A) (A) (A) (A) (A) (A) (A) (A) (A) (A) (A) (A)
                 (A) (A) (A) (A) (A) (A) (A) (A) (A) (A) (A) (A)
                 (A) (A) (A) (A) (A) (A) (A) (A) (A)
       Virtual   (A) (A) (A) (A) (A) (A) (A) (A) (A) (A) (A) (A)
                 (A) (A) (A) (A) (A) (A) (A) (A) (A) (A) (A) (A)
                 (A) (A) (A) (A) (A) (A) (A) (A) (A) (A) (A) (A)
                 (A) (A) (A) (A) (A) (A) (A) (A) (A) (A) (A) (A)
                 (A) (A) (A) (A) (A) (A) (A) (A) (A) (A) (A) (A)
                 (A) (A) (A) (A) (A) (A) (A) (A) (A) (A) (A) (A)
                 (A) (A) (A) (A) (A) (A) (A) (A) (A) (A) (A) (A)
                 (A) (A) (A) (A) (A) (A) (A) (A) (A) (A) (A) (A)
                 (A) (A) (A) (A) (A) (A) (A) (A) (A) (A) (A) (A)
                 (A) (A) (A) (A) (A) (A) (A) (A) (A) (A) (A) (A)
                 (A) (A) (A) (A) (A) (A) (A) (A) (A) (A) (A) (A)
                 (A) (A) (A) (A) (A) (A) (A) (A) (A) (A) (A) (A)
                 (A) (A) (A) (A) (A) (A) (A) (A) (A) (A) (A) (A)
                 (A) (A) (A) (A) (A) (A) (A) (A) (A) (A) (A) (A)
                 (A) (A) (A) (A) (A) (A) (A) (A) (A) (A) (A) (A)
                 (A) (A) (A) (A) (A) (A) (A) (A) (A) (A) (A) (A)
                 (A) (A) (A) (A) (A) (A) (A) (A) (A) (A) (A) (A)
                 (A) (A) (A) (A) (A) (A) (A) (A) (A) (A) (A) (A)
                 (A) (A) (A) (A) (A) (A) (A) (A) (A) (A) (A) (A)
                 (A) (A) (A) (A) (A) (A) (A) (A) (A) (A) (A) (A)
                 (A) (A) (A) (A) (A) (A) (A) (A) (A) (A) (A) (A)
                 (A) (A) (A) (A) (A) (A) (A) (A) (A) (A) (A) (A)
                 (A) (A) (A) (A) (A) (A) (A) (A) (A) (A) (A) (A)
                 (A) (A) (A) (A) (A) (A) (A) (A) (A) (A) (A) (A)
                 (A) (A) (A) (A) (A) (A) (A) (A) (A) (A) (A) (A)
                 (A) (A) (A) (A) (A) (A) (A) (A) (A) (A) (A) (A)
                 (A) (A) (A) (A) (A) (A) (A) (A) (A) (A) (A) (A)
                 (A) (A) (A) (A) (A) (A) (A) (A) (A) (A) (A) (A)
                 (A) (A) (A) (A) (A) (A) (A) (A) (A) (A) (A) (A)
                 (A) (A) (A) (A) (A) (A) (A) (A) (A) (A) (A) (A)
                 (A) (A) (A) (A) (A) (A) (A) (A) (A) (A) (A) (A)
                 (A) (A) (A) (A) (A) (A) (A) (A) (A) (A) (A) (A)
                 (A) (A) (A) (A) (A) (A) (A) (A) (A) (A) (A) (A)
                 (A) (A) (A) (A) (A) (A) (A) (A) (A) (A) (A) (A)
                 (A) (A) (A) (A) (A) (A) (A) (A) (A) (A) (A) (A)
                 (A) (A) (A) (A) (A) (A) (A) (A) (A) (A) (A) (A)
                 (A) (A) (A) (A) (A) (A) (A) (A) (A) (A) (A) (A)
                 (A) (A) (A) (A) (A) (A) (A) (A) (A) (A) (A) (A)
                 (A) (A) (A) (A) (A) (A) (A) (A) (A) (A) (A) (A)
                 (A) (A) (A) (A) (A) (A) (A) (A) (A) (A) (A) (A)
                 (A) (A) (A) (A) (A) (A) (A) (A) (A) (A) (A) (A)
                 (A) (A) (A) (A) (A) (A) (A) (A) (A) (A) (A) (A)
                 (A) (A) (A) (A) (A) (A) (A) (A) (A) (A) (A) (A)
                 (A) (A) (A) (A) (A) (A) (A) (A) (A) (A) (A) (A)
                 (A) (A) (A) (A) (A) (A) (A) (A) (A) (A) (A) (A)
                 (A) (A) (A) (A) (A) (A) (A) (A) (A) (A) (A) (A)
                 (A) (A) (A) (A) (A) (A) (A) (A) (A) (A) (A) (A)
                 (A) (A) (A) (A) (A) (A) (A) (A) (A) (A) (A) (A)
                 (A) (A) (A) (A) (A) (A) (A) (A) (A) (A) (A) (A)
                 (A) (A) (A) (A) (A) (A) (A) (A) (A) (A) (A) (A)
                 (A) (A) (A) (A) (A) (A) (A) (A) (A) (A) (A) (A)
                 (A) (A) (A) (A) (A) (A) (A) (A) (A) (A) (A) (A)
                 (A) (A) (A) (A) (A) (A) (A) (A) (A) (A) (A) (A)
                 (A) (A) (A) (A) (A) (A) (A) (A) (A) (A) (A) (A)
                 (A) (A) (A) (A) (A) (A) (A) (A) (A) (A) (A) (A)
                 (A) (A) (A) (A) (A) (A) (A) (A) (A) (A) (A) (A)
                 (A) (A) (A) (A) (A) (A) (A) (A) (A) (A) (A) (A)
                 (A) (A) (A) (A) (A) (A) (A) (A) (A) (A) (A) (A)
                 (A) (A) (A) (A) (A) (A) (A) (A) (A) (A) (A) (A)
                 (A) (A) (A) (A) (A) (A) (A) (A) (A) (A) (A) (A)
                 (A) (A) (A) (A) (A) (A) (A) (A) (A) (A) (A) (A)
                 (A) (A) (A) (A) (A) (A) (A) (A) (A) (A) (A) (A)
                 (A) (A) (A) (A) (A) (A) (A) (A) (A) (A) (A) (A)
                 (A) (A) (A) (A) (A) (A) (A) (A) (A) (A) (A) (A)
                 (A) (A) (A) (A) (A) (A) (A) (A) (A) (A) (A) (A)
                 (A) (A) (A) (A) (A) (A) (A) (A) (A) (A) (A) (A)
                 (A) (A) (A) (A) (A) (A) (A) (A) (A) (A) (A) (A)
                 (A) (A) (A) (A) (A) (A) (A) (A) (A) (A) (A) (A)
                 (A) (A) (A) (A) (A) (A) (A) (A) (A) (A) (A) (A)
                 (A) (A) (A) (A) (A) (A) (A) (A) (A) (A) (A) (A)
                 (A) (A) (A) (A) (A) (A) (A) (A) (A) (A) (A) (A)
                 (A) (A) (A) (A) (A) (A) (A) (A) (A) (A) (A) (A)
                 (A) (A) (A) (A) (A) (A) (A) (A) (A) (A) (A) (A)
                 (A) (A) (A) (A) (A) (A) (A) (A) (A) (A) (A) (A)
                 (A) (A) (A) (A) (A) (A) (A) (A) (A) (A) (A) (A)
                 (A) (A) (A) (A) (A) (A) (A) (A) (A) (A) (A) (A)
                 (A) (A) (A) (A) (A) (A) (A) (A) (A) (A) (A) (A)
                 (A) (A) (A) (A) (A) (A) (A) (A) (A) (A) (A) (A)
                 (A) (A) (A) (A) (A) (A) (A) (A) (A) (A) (A) (A)
                 (A) (A) (A) (A) (A) (A) (A) (A) (A) (A) (A) (A)
                 (A) (A) (A) (A) (A) (A) (A) (A) (A) (A) (A) (A)
                 (A) (A) (A) (A) (A) (A) (A) (A) (A) (A) (A) (A)
                 (A) (A) (A) (A) (A) (A) (A) (A) (A) (A) (A) (A)
                 (A) (A) (A) (A) (A) (A) (A) (A) (A) (A) (A) (A)
                 (A) (A) (A) (A) (A) (A) (A) (A) (A) (A) (A) (A)
                 (A) (A) (A) (A) (A) (A) (A) (A) (A) (A) (A) (A)
                 (A) (A) (A) (A) (A) (A) (A) (A) (A) (A) (A) (A)
                 (A) (A) (A) (A) (A) (A) (A) (A) (A) (A) (A) (A)
                 (A) (A) (A) (A) (A) (A) (A) (A) (A) (A) (A) (A)
                 (A) (A) (A) (A) (A) (A) (A) (A) (A) (A) (A) (A)
                 (A) (A) (A) (A) (A) (A) (A) (A) (A) (A) (A) (A)
                 (A) (A) (A) (A) (A) (A) (A) (A) (A) (A) (A) (A)
                 (A) (A) (A) (A) (A) (A) (A) (A) (A) (A) (A) (A)
                 (A) (A) (A) (A) (A) (A) (A) (A) (A) (A) (A) (A)
                 (A) (A) (A) (A) (A) (A) (A) (A) (A) (A) (A) (A)
                 (A) (A) (A) (A) (A) (A) (A) (A) (A) (A) (A) (A)
                 (A) (A) (A) (A) (A) (A) (A) (A) (A) (A) (A) (A)
                 (A) (A) (A) (A) (A) (A) (A) (A) (A) (A) (A) (A)
                 (A) (A) (A) (A) (A) (A) (A) (A) (A) (A) (A) (A)
                 (A) (A) (A) (A) (A) (A) (A) (A) (A) (A) (A) (A)
                 (A) (A) (A) (A) (A) (A) (A) (A) (A) (A) (A) (A)
                 (A) (A) (A) (A) (A) (A) (A) (A) (A) (A) (A) (A)
                 (A) (A) (A) (A) (A) (A) (A) (A) (A) (A) (A) (A)
                 (A) (A) (A) (A) (A) (A) (A) (A) (A) (A) (A) (A)
                 (A) (A) (A) (A) (A) (A) (A) (A) (A) (A) (A) (A)
                 (A) (A) (A) (A) (A) (A) (A) (A) (A) (A) (A) (A)
                 (A) (A) (A) (A) (A) (A) (A) (A) (A) (A) (A) (A)
                 (A) (A) (A) (A) (A) (A) (A) (A) (A) (A) (A) (A)
                 (A) (A) (A) (A) (A) (A) (A) (A) (A) (A) (A) (A)
                 (A) (A) (A) (A) (A) (A) (A) (A) (A) (A) (A) (A)
                 (A) (A) (A) (A) (A) (A) (A) (A) (A) (A) (A) (A)
                 (A) (A) (A) (A) (A) (A) (A) (A) (A) (A) (A) (A)
                 (A) (A) (A) (A) (A) (A) (A) (A) (A) (A) (A) (A)
                 (A) (A) (A) (A) (A) (A) (A) (A) (A) (A) (A) (A)
                 (A) (A) (A) (A) (A) (A) (A) (A) (A) (A) (A) (A)
                 (A) (A) (A) (A) (A) (A) (A) (A) (A) (A) (A) (A)
                 (A) (A) (A) (A) (A) (A) (A) (A) (A) (A) (A) (A)
                 (A) (A) (A) (A) (A) (A) (A) (A) (A) (A) (A) (A)
                 (A) (A) (A) (A) (A) (A) (A) (A) (A) (A) (A) (A)
                 (A) (A) (A) (A) (A) (A) (A) (A) (A) (A) (A) (A)
                 (A) (A) (A) (A) (A) (A) (A) (A) (A) (A) (A) (A)
                 (A) (A) (A) (A) (A) (A) (A) (A) (A) (A) (A) (A)
                 (A) (A) (A) (A) (A) (A) (A) (A) (A) (A) (A) (A)
                 (A) (A) (A) (A) (A) (A) (A) (A) (A) (A) (A) (A)
                 (A) (A) (A) (A) (A) (A) (A) (A) (A) (A) (A) (A)
                 (A) (A) (A) (A) (A) (A) (A) (A) (A) (A) (A) (A)
                 (A) (A) (A) (A) (A) (A) (A) (A) (A) (A) (A) (A)
                 (A) (A) (A) (A) (A) (A) (A) (A) (A) (A)
 Beta  Orbitals:
       Occupied  (A) (A) (A) (A) (A) (A) (A) (A) (A) (A) (A) (A)
                 (A) (A) (A) (A) (A) (A) (A) (A) (A) (A) (A) (A)
                 (A) (A) (A) (A) (A) (A) (A) (A) (A) (A) (A) (A)
                 (A) (A) (A) (A) (A) (A) (A) (A) (A) (A) (A) (A)
                 (A) (A) (A) (A) (A) (A) (A) (A) (A) (A) (A) (A)
                 (A) (A) (A) (A) (A) (A) (A) (A) (A) (A) (A) (A)
                 (A) (A) (A) (A) (A) (A) (A) (A) (A) (A) (A) (A)
                 (A) (A) (A) (A) (A) (A) (A) (A) (A) (A) (A) (A)
                 (A) (A) (A) (A) (A) (A) (A) (A) (A) (A) (A) (A)
                 (A) (A) (A) (A) (A) (A) (A) (A) (A) (A) (A) (A)
                 (A) (A) (A) (A) (A) (A) (A) (A) (A) (A) (A) (A)
                 (A) (A) (A) (A) (A) (A) (A) (A) (A) (A) (A) (A)
                 (A) (A) (A) (A) (A) (A) (A) (A) (A) (A) (A) (A)
                 (A) (A) (A) (A) (A) (A) (A) (A) (A) (A) (A) (A)
                 (A) (A) (A) (A)
       Virtual   (A) (A) (A) (A) (A) (A) (A) (A) (A) (A) (A) (A)
                 (A) (A) (A) (A) (A) (A) (A) (A) (A) (A) (A) (A)
                 (A) (A) (A) (A) (A) (A) (A) (A) (A) (A) (A) (A)
                 (A) (A) (A) (A) (A) (A) (A) (A) (A) (A) (A) (A)
                 (A) (A) (A) (A) (A) (A) (A) (A) (A) (A) (A) (A)
                 (A) (A) (A) (A) (A) (A) (A) (A) (A) (A) (A) (A)
                 (A) (A) (A) (A) (A) (A) (A) (A) (A) (A) (A) (A)
                 (A) (A) (A) (A) (A) (A) (A) (A) (A) (A) (A) (A)
                 (A) (A) (A) (A) (A) (A) (A) (A) (A) (A) (A) (A)
                 (A) (A) (A) (A) (A) (A) (A) (A) (A) (A) (A) (A)
                 (A) (A) (A) (A) (A) (A) (A) (A) (A) (A) (A) (A)
                 (A) (A) (A) (A) (A) (A) (A) (A) (A) (A) (A) (A)
                 (A) (A) (A) (A) (A) (A) (A) (A) (A) (A) (A) (A)
                 (A) (A) (A) (A) (A) (A) (A) (A) (A) (A) (A) (A)
                 (A) (A) (A) (A) (A) (A) (A) (A) (A) (A) (A) (A)
                 (A) (A) (A) (A) (A) (A) (A) (A) (A) (A) (A) (A)
                 (A) (A) (A) (A) (A) (A) (A) (A) (A) (A) (A) (A)
                 (A) (A) (A) (A) (A) (A) (A) (A) (A) (A) (A) (A)
                 (A) (A) (A) (A) (A) (A) (A) (A) (A) (A) (A) (A)
                 (A) (A) (A) (A) (A) (A) (A) (A) (A) (A) (A) (A)
                 (A) (A) (A) (A) (A) (A) (A) (A) (A) (A) (A) (A)
                 (A) (A) (A) (A) (A) (A) (A) (A) (A) (A) (A) (A)
                 (A) (A) (A) (A) (A) (A) (A) (A) (A) (A) (A) (A)
                 (A) (A) (A) (A) (A) (A) (A) (A) (A) (A) (A) (A)
                 (A) (A) (A) (A) (A) (A) (A) (A) (A) (A) (A) (A)
                 (A) (A) (A) (A) (A) (A) (A) (A) (A) (A) (A) (A)
                 (A) (A) (A) (A) (A) (A) (A) (A) (A) (A) (A) (A)
                 (A) (A) (A) (A) (A) (A) (A) (A) (A) (A) (A) (A)
                 (A) (A) (A) (A) (A) (A) (A) (A) (A) (A) (A) (A)
                 (A) (A) (A) (A) (A) (A) (A) (A) (A) (A) (A) (A)
                 (A) (A) (A) (A) (A) (A) (A) (A) (A) (A) (A) (A)
                 (A) (A) (A) (A) (A) (A) (A) (A) (A) (A) (A) (A)
                 (A) (A) (A) (A) (A) (A) (A) (A) (A) (A) (A) (A)
                 (A) (A) (A) (A) (A) (A) (A) (A) (A) (A) (A) (A)
                 (A) (A) (A) (A) (A) (A) (A) (A) (A) (A) (A) (A)
                 (A) (A) (A) (A) (A) (A) (A) (A) (A) (A) (A) (A)
                 (A) (A) (A) (A) (A) (A) (A) (A) (A) (A) (A) (A)
                 (A) (A) (A) (A) (A) (A) (A) (A) (A) (A) (A) (A)
                 (A) (A) (A) (A) (A) (A) (A) (A) (A) (A) (A) (A)
                 (A) (A) (A) (A) (A) (A) (A) (A) (A) (A) (A) (A)
                 (A) (A) (A) (A) (A) (A) (A) (A) (A) (A) (A) (A)
                 (A) (A) (A) (A) (A) (A) (A) (A) (A) (A) (A) (A)
                 (A) (A) (A) (A) (A) (A) (A) (A) (A) (A) (A) (A)
                 (A) (A) (A) (A) (A) (A) (A) (A) (A) (A) (A) (A)
                 (A) (A) (A) (A) (A) (A) (A) (A) (A) (A) (A) (A)
                 (A) (A) (A) (A) (A) (A) (A) (A) (A) (A) (A) (A)
                 (A) (A) (A) (A) (A) (A) (A) (A) (A) (A) (A) (A)
                 (A) (A) (A) (A) (A) (A) (A) (A) (A) (A) (A) (A)
                 (A) (A) (A) (A) (A) (A) (A) (A) (A) (A) (A) (A)
                 (A) (A) (A) (A) (A) (A) (A) (A) (A) (A) (A) (A)
                 (A) (A) (A) (A) (A) (A) (A) (A) (A) (A) (A) (A)
                 (A) (A) (A) (A) (A) (A) (A) (A) (A) (A) (A) (A)
                 (A) (A) (A) (A) (A) (A) (A) (A) (A) (A) (A) (A)
                 (A) (A) (A) (A) (A) (A) (A) (A) (A) (A) (A) (A)
                 (A) (A) (A) (A) (A) (A) (A) (A) (A) (A) (A) (A)
                 (A) (A) (A) (A) (A) (A) (A) (A) (A) (A) (A) (A)
                 (A) (A) (A) (A) (A) (A) (A) (A) (A) (A) (A) (A)
                 (A) (A) (A) (A) (A) (A) (A) (A) (A) (A) (A) (A)
                 (A) (A) (A) (A) (A) (A) (A) (A) (A) (A) (A) (A)
                 (A) (A) (A) (A) (A) (A) (A) (A) (A) (A) (A) (A)
                 (A) (A) (A) (A) (A) (A) (A) (A) (A) (A) (A) (A)
                 (A) (A) (A) (A) (A) (A) (A) (A) (A) (A) (A) (A)
                 (A) (A) (A) (A) (A) (A) (A) (A) (A) (A) (A) (A)
                 (A) (A) (A) (A) (A) (A) (A) (A) (A) (A) (A) (A)
                 (A) (A) (A) (A) (A) (A) (A) (A) (A) (A) (A) (A)
                 (A) (A) (A) (A) (A) (A) (A) (A) (A) (A) (A) (A)
                 (A) (A) (A) (A) (A) (A) (A) (A) (A) (A) (A) (A)
                 (A) (A) (A) (A) (A) (A) (A) (A) (A) (A) (A) (A)
                 (A) (A) (A) (A) (A) (A) (A) (A) (A) (A) (A) (A)
                 (A) (A) (A) (A) (A) (A) (A) (A) (A) (A) (A) (A)
                 (A) (A) (A) (A) (A) (A) (A) (A) (A) (A) (A) (A)
                 (A) (A) (A) (A) (A) (A) (A) (A) (A) (A) (A) (A)
                 (A) (A) (A) (A) (A) (A) (A) (A) (A) (A) (A) (A)
                 (A) (A) (A) (A) (A) (A) (A) (A) (A) (A) (A) (A)
                 (A) (A) (A) (A) (A) (A) (A) (A) (A) (A) (A) (A)
                 (A) (A) (A) (A) (A) (A) (A) (A) (A) (A) (A) (A)
                 (A) (A) (A) (A) (A) (A) (A) (A) (A) (A) (A) (A)
                 (A) (A) (A) (A) (A) (A) (A) (A) (A) (A) (A) (A)
                 (A) (A) (A) (A) (A) (A) (A) (A) (A) (A) (A) (A)
                 (A) (A) (A) (A) (A) (A) (A) (A) (A) (A) (A) (A)
                 (A) (A) (A) (A) (A) (A) (A) (A) (A) (A) (A) (A)
                 (A) (A) (A) (A) (A) (A) (A) (A) (A) (A) (A) (A)
                 (A) (A) (A) (A) (A) (A) (A) (A) (A) (A) (A) (A)
                 (A) (A) (A) (A) (A) (A) (A) (A) (A) (A) (A) (A)
                 (A) (A) (A) (A) (A) (A) (A) (A) (A) (A) (A) (A)
                 (A) (A) (A) (A) (A) (A) (A) (A) (A) (A) (A) (A)
                 (A) (A) (A) (A) (A) (A) (A) (A) (A) (A) (A) (A)
                 (A) (A) (A) (A) (A) (A) (A) (A) (A) (A) (A) (A)
                 (A) (A) (A) (A) (A) (A) (A) (A) (A) (A) (A) (A)
                 (A) (A) (A) (A) (A) (A) (A) (A) (A) (A) (A) (A)
                 (A) (A) (A) (A) (A) (A) (A) (A) (A) (A) (A) (A)
                 (A) (A) (A) (A) (A) (A) (A) (A) (A) (A) (A) (A)
                 (A) (A) (A) (A) (A) (A) (A) (A) (A) (A) (A) (A)
                 (A) (A) (A) (A) (A) (A) (A) (A) (A) (A) (A) (A)
                 (A) (A) (A) (A) (A) (A) (A) (A) (A) (A) (A) (A)
                 (A) (A) (A) (A) (A) (A) (A) (A) (A) (A) (A) (A)
                 (A) (A) (A) (A) (A) (A) (A) (A) (A) (A) (A) (A)
                 (A) (A) (A) (A) (A) (A) (A) (A) (A) (A) (A) (A)
                 (A) (A) (A) (A) (A) (A) (A) (A) (A) (A) (A) (A)
                 (A) (A) (A) (A) (A) (A) (A) (A) (A) (A) (A) (A)
                 (A) (A) (A) (A) (A) (A) (A) (A) (A) (A) (A) (A)
                 (A) (A) (A) (A) (A) (A) (A) (A) (A) (A) (A) (A)
                 (A) (A) (A) (A) (A) (A) (A) (A) (A) (A) (A) (A)
                 (A) (A) (A) (A) (A) (A) (A) (A) (A) (A) (A) (A)
                 (A) (A) (A) (A) (A) (A) (A) (A) (A) (A) (A) (A)
                 (A) (A) (A) (A) (A) (A) (A) (A) (A) (A) (A) (A)
                 (A) (A) (A) (A) (A) (A) (A) (A) (A) (A) (A) (A)
                 (A) (A) (A) (A) (A) (A) (A) (A) (A) (A) (A) (A)
                 (A) (A) (A) (A) (A) (A) (A) (A) (A) (A) (A) (A)
                 (A) (A) (A) (A) (A) (A) (A) (A) (A) (A) (A) (A)
                 (A) (A) (A) (A) (A) (A) (A) (A) (A) (A) (A) (A)
                 (A) (A) (A) (A) (A) (A) (A) (A) (A) (A) (A) (A)
                 (A) (A) (A) (A) (A) (A) (A) (A) (A) (A) (A) (A)
                 (A) (A) (A) (A) (A) (A) (A) (A) (A) (A) (A) (A)
                 (A) (A) (A) (A) (A) (A) (A) (A) (A) (A) (A) (A)
                 (A) (A) (A) (A) (A) (A) (A) (A) (A) (A) (A) (A)
                 (A) (A) (A) (A) (A) (A) (A) (A) (A) (A) (A) (A)
                 (A) (A) (A) (A) (A) (A) (A) (A) (A) (A) (A) (A)
                 (A) (A) (A) (A) (A) (A) (A) (A) (A) (A) (A) (A)
                 (A) (A) (A) (A) (A) (A) (A) (A) (A) (A) (A) (A)
                 (A) (A) (A) (A) (A) (A) (A) (A) (A) (A) (A) (A)
                 (A) (A) (A) (A) (A) (A) (A) (A) (A) (A) (A) (A)
                 (A) (A) (A) (A) (A) (A) (A) (A) (A) (A) (A) (A)
                 (A) (A) (A) (A) (A) (A) (A) (A) (A) (A) (A) (A)
                 (A) (A) (A) (A) (A) (A) (A) (A) (A) (A) (A) (A)
                 (A) (A) (A) (A) (A) (A) (A) (A) (A) (A) (A) (A)
                 (A) (A) (A) (A) (A) (A) (A) (A) (A) (A) (A) (A)
                 (A) (A) (A) (A) (A) (A) (A) (A) (A) (A) (A) (A)
                 (A) (A) (A)
 The electronic state is 6-A.
 Alpha  occ. eigenvalues -- -256.39799 -30.30871 -26.13803 -26.13796 -26.13743
 Alpha  occ. eigenvalues --  -14.51648 -14.51392 -14.46292 -14.45936 -14.43569
 Alpha  occ. eigenvalues --  -14.43553 -14.43530 -14.43477 -10.36095 -10.35771
 Alpha  occ. eigenvalues --  -10.33470 -10.33259 -10.31957 -10.31875 -10.31817
 Alpha  occ. eigenvalues --  -10.31776 -10.31757 -10.31605 -10.31597 -10.31583
 Alpha  occ. eigenvalues --  -10.30861 -10.30647 -10.29289 -10.29175 -10.29136
 Alpha  occ. eigenvalues --  -10.28975 -10.28939 -10.28852 -10.28816 -10.28809
 Alpha  occ. eigenvalues --  -10.28806 -10.28754 -10.28730 -10.28692 -10.28679
 Alpha  occ. eigenvalues --  -10.28653 -10.28497 -10.28325 -10.27408 -10.27392
 Alpha  occ. eigenvalues --  -10.27346 -10.27316 -10.27314 -10.27171 -10.27130
 Alpha  occ. eigenvalues --  -10.26998  -3.76388  -2.53013  -2.53008  -2.52898
 Alpha  occ. eigenvalues --   -1.15555  -1.15305  -1.08139  -1.07099  -1.07056
 Alpha  occ. eigenvalues --   -1.06088  -1.01448  -1.01132  -0.92755  -0.91624
 Alpha  occ. eigenvalues --   -0.91339  -0.90774  -0.90431  -0.89973  -0.89914
 Alpha  occ. eigenvalues --   -0.89604  -0.89416  -0.86349  -0.85146  -0.84419
 Alpha  occ. eigenvalues --   -0.83743  -0.82363  -0.81231  -0.81049  -0.80449
 Alpha  occ. eigenvalues --   -0.79588  -0.78034  -0.77741  -0.77612  -0.75028
 Alpha  occ. eigenvalues --   -0.74610  -0.74501  -0.74321  -0.71325  -0.71099
 Alpha  occ. eigenvalues --   -0.70294  -0.69924  -0.67890  -0.67581  -0.66029
 Alpha  occ. eigenvalues --   -0.65779  -0.64482  -0.64120  -0.63550  -0.62827
 Alpha  occ. eigenvalues --   -0.61324  -0.61220  -0.60860  -0.60414  -0.59439
 Alpha  occ. eigenvalues --   -0.58199  -0.57977  -0.57859  -0.57463  -0.57263
 Alpha  occ. eigenvalues --   -0.56693  -0.55651  -0.55159  -0.54967  -0.54738
 Alpha  occ. eigenvalues --   -0.54559  -0.54259  -0.53577  -0.53432  -0.53309
 Alpha  occ. eigenvalues --   -0.53176  -0.52852  -0.52694  -0.52653  -0.52345
 Alpha  occ. eigenvalues --   -0.52146  -0.51997  -0.51800  -0.51721  -0.51551
 Alpha  occ. eigenvalues --   -0.50910  -0.50770  -0.50680  -0.50619  -0.50459
 Alpha  occ. eigenvalues --   -0.50178  -0.50034  -0.49628  -0.49261  -0.49182
 Alpha  occ. eigenvalues --   -0.49000  -0.48946  -0.48586  -0.48388  -0.48176
 Alpha  occ. eigenvalues --   -0.48028  -0.47679  -0.47498  -0.47210  -0.46446
 Alpha  occ. eigenvalues --   -0.46235  -0.46089  -0.45459  -0.45018  -0.44507
 Alpha  occ. eigenvalues --   -0.44389  -0.43373  -0.43131  -0.42397  -0.42246
 Alpha  occ. eigenvalues --   -0.42037  -0.40516  -0.40394  -0.39102  -0.38743
 Alpha  occ. eigenvalues --   -0.36929  -0.36863  -0.33966  -0.33730  -0.33206
 Alpha  occ. eigenvalues --   -0.32902  -0.32768  -0.32084  -0.31643  -0.31209
 Alpha  occ. eigenvalues --   -0.28930  -0.28250
 Alpha virt. eigenvalues --   -0.17164  -0.17050  -0.11558  -0.08927  -0.08658
 Alpha virt. eigenvalues --   -0.08308  -0.07426  -0.06231  -0.05171  -0.04929
 Alpha virt. eigenvalues --   -0.04838  -0.04529  -0.04023  -0.03491  -0.03021
 Alpha virt. eigenvalues --   -0.02668  -0.01966  -0.01749  -0.01519  -0.01312
 Alpha virt. eigenvalues --   -0.00724  -0.00443  -0.00149   0.00381   0.00520
 Alpha virt. eigenvalues --    0.00755   0.00857   0.01354   0.01663   0.02018
 Alpha virt. eigenvalues --    0.02238   0.02773   0.02822   0.02889   0.03068
 Alpha virt. eigenvalues --    0.03496   0.03750   0.03849   0.04021   0.04162
 Alpha virt. eigenvalues --    0.04403   0.04589   0.04775   0.04859   0.04981
 Alpha virt. eigenvalues --    0.05062   0.05166   0.05718   0.05804   0.06206
 Alpha virt. eigenvalues --    0.06258   0.06414   0.06561   0.06807   0.07194
 Alpha virt. eigenvalues --    0.07471   0.07647   0.07711   0.08022   0.08194
 Alpha virt. eigenvalues --    0.08258   0.08507   0.08592   0.08699   0.09102
 Alpha virt. eigenvalues --    0.09211   0.09524   0.09740   0.10209   0.10566
 Alpha virt. eigenvalues --    0.10699   0.10830   0.11059   0.11148   0.11260
 Alpha virt. eigenvalues --    0.11452   0.11871   0.11980   0.12225   0.12673
 Alpha virt. eigenvalues --    0.12824   0.13293   0.13483   0.13605   0.13816
 Alpha virt. eigenvalues --    0.14274   0.14498   0.14678   0.14866   0.15157
 Alpha virt. eigenvalues --    0.15262   0.15480   0.15847   0.15948   0.16529
 Alpha virt. eigenvalues --    0.17020   0.17109   0.17232   0.17424   0.17652
 Alpha virt. eigenvalues --    0.17907   0.18279   0.18491   0.18716   0.18789
 Alpha virt. eigenvalues --    0.19195   0.19266   0.19701   0.19963   0.20114
 Alpha virt. eigenvalues --    0.20505   0.20575   0.20815   0.21032   0.21092
 Alpha virt. eigenvalues --    0.21396   0.21825   0.21860   0.22148   0.22484
 Alpha virt. eigenvalues --    0.22543   0.22702   0.22906   0.23204   0.23477
 Alpha virt. eigenvalues --    0.23708   0.24183   0.24347   0.24469   0.24816
 Alpha virt. eigenvalues --    0.24903   0.25017   0.25139   0.25867   0.26179
 Alpha virt. eigenvalues --    0.26305   0.26983   0.27216   0.27338   0.27646
 Alpha virt. eigenvalues --    0.27744   0.28019   0.28208   0.28509   0.28685
 Alpha virt. eigenvalues --    0.28772   0.28993   0.29267   0.29617   0.29722
 Alpha virt. eigenvalues --    0.30062   0.30260   0.30508   0.30715   0.31138
 Alpha virt. eigenvalues --    0.31316   0.31563   0.31840   0.32053   0.32174
 Alpha virt. eigenvalues --    0.32294   0.32424   0.32906   0.32938   0.33229
 Alpha virt. eigenvalues --    0.33335   0.33460   0.33542   0.33816   0.33984
 Alpha virt. eigenvalues --    0.34142   0.34228   0.34475   0.34538   0.34625
 Alpha virt. eigenvalues --    0.34657   0.35116   0.35255   0.35481   0.35511
 Alpha virt. eigenvalues --    0.35675   0.36139   0.36281   0.36440   0.36691
 Alpha virt. eigenvalues --    0.36902   0.37017   0.37214   0.37756   0.37957
 Alpha virt. eigenvalues --    0.38031   0.38195   0.38269   0.38367   0.38684
 Alpha virt. eigenvalues --    0.38934   0.39022   0.39114   0.39454   0.39763
 Alpha virt. eigenvalues --    0.39941   0.40149   0.40321   0.40478   0.40539
 Alpha virt. eigenvalues --    0.40665   0.40830   0.41120   0.41527   0.41605
 Alpha virt. eigenvalues --    0.41669   0.42022   0.42067   0.42359   0.42537
 Alpha virt. eigenvalues --    0.42865   0.43011   0.43219   0.43443   0.43538
 Alpha virt. eigenvalues --    0.44001   0.44131   0.44269   0.44415   0.44736
 Alpha virt. eigenvalues --    0.44804   0.45182   0.45390   0.45581   0.45818
 Alpha virt. eigenvalues --    0.45942   0.46406   0.46473   0.46739   0.46998
 Alpha virt. eigenvalues --    0.47183   0.47331   0.47512   0.47857   0.48163
 Alpha virt. eigenvalues --    0.48251   0.48515   0.48824   0.48897   0.49095
 Alpha virt. eigenvalues --    0.49255   0.49462   0.49758   0.50023   0.50235
 Alpha virt. eigenvalues --    0.50405   0.50879   0.51049   0.51191   0.51513
 Alpha virt. eigenvalues --    0.51820   0.51919   0.52217   0.52536   0.53529
 Alpha virt. eigenvalues --    0.53641   0.53787   0.54139   0.54380   0.54649
 Alpha virt. eigenvalues --    0.54802   0.55088   0.55625   0.55767   0.55961
 Alpha virt. eigenvalues --    0.56263   0.56419   0.56631   0.56865   0.57371
 Alpha virt. eigenvalues --    0.57499   0.57859   0.57999   0.58321   0.59008
 Alpha virt. eigenvalues --    0.59123   0.59604   0.59788   0.59983   0.60631
 Alpha virt. eigenvalues --    0.60759   0.61454   0.61755   0.61916   0.62375
 Alpha virt. eigenvalues --    0.62609   0.62852   0.63145   0.63360   0.63825
 Alpha virt. eigenvalues --    0.64088   0.64223   0.64459   0.64683   0.65381
 Alpha virt. eigenvalues --    0.65524   0.65790   0.66232   0.66391   0.66728
 Alpha virt. eigenvalues --    0.66908   0.67130   0.67683   0.68015   0.68171
 Alpha virt. eigenvalues --    0.68355   0.68726   0.68779   0.69184   0.69534
 Alpha virt. eigenvalues --    0.70260   0.70403   0.70602   0.70894   0.71134
 Alpha virt. eigenvalues --    0.71481   0.71865   0.72108   0.72561   0.72760
 Alpha virt. eigenvalues --    0.72924   0.73626   0.73897   0.74181   0.74455
 Alpha virt. eigenvalues --    0.74579   0.75184   0.75754   0.75847   0.76332
 Alpha virt. eigenvalues --    0.76869   0.77163   0.77640   0.77995   0.78306
 Alpha virt. eigenvalues --    0.78832   0.78928   0.79197   0.79786   0.80107
 Alpha virt. eigenvalues --    0.80311   0.80698   0.80938   0.81019   0.81280
 Alpha virt. eigenvalues --    0.81441   0.81816   0.82386   0.82803   0.82950
 Alpha virt. eigenvalues --    0.83435   0.83716   0.84280   0.84565   0.84750
 Alpha virt. eigenvalues --    0.85039   0.85494   0.86126   0.86157   0.86551
 Alpha virt. eigenvalues --    0.86718   0.87187   0.87591   0.87838   0.87975
 Alpha virt. eigenvalues --    0.88184   0.88255   0.88885   0.89022   0.89240
 Alpha virt. eigenvalues --    0.89702   0.90100   0.90398   0.90485   0.90640
 Alpha virt. eigenvalues --    0.90971   0.91369   0.91390   0.91914   0.92424
 Alpha virt. eigenvalues --    0.92545   0.93038   0.93235   0.93670   0.94045
 Alpha virt. eigenvalues --    0.94194   0.94430   0.94712   0.94944   0.95432
 Alpha virt. eigenvalues --    0.95602   0.96019   0.96561   0.96832   0.97085
 Alpha virt. eigenvalues --    0.97366   0.97404   0.97559   0.98180   0.98460
 Alpha virt. eigenvalues --    0.98838   0.99189   0.99369   0.99670   0.99926
 Alpha virt. eigenvalues --    1.00162   1.00507   1.00722   1.01144   1.01389
 Alpha virt. eigenvalues --    1.02169   1.02649   1.03220   1.03319   1.03478
 Alpha virt. eigenvalues --    1.03851   1.04528   1.05435   1.05760   1.06233
 Alpha virt. eigenvalues --    1.06451   1.06693   1.07102   1.07396   1.07869
 Alpha virt. eigenvalues --    1.08071   1.08137   1.08707   1.09300   1.09593
 Alpha virt. eigenvalues --    1.09723   1.09914   1.10180   1.10770   1.10952
 Alpha virt. eigenvalues --    1.11444   1.11632   1.12074   1.12222   1.12808
 Alpha virt. eigenvalues --    1.13040   1.13587   1.13765   1.14391   1.14540
 Alpha virt. eigenvalues --    1.15099   1.15716   1.15811   1.16275   1.16665
 Alpha virt. eigenvalues --    1.16972   1.17344   1.17513   1.17928   1.18225
 Alpha virt. eigenvalues --    1.18304   1.18520   1.18852   1.18923   1.19304
 Alpha virt. eigenvalues --    1.19919   1.20093   1.20545   1.20881   1.20971
 Alpha virt. eigenvalues --    1.21278   1.22132   1.22684   1.23047   1.23372
 Alpha virt. eigenvalues --    1.24009   1.24731   1.24882   1.24962   1.25356
 Alpha virt. eigenvalues --    1.26151   1.26690   1.27005   1.27442   1.27722
 Alpha virt. eigenvalues --    1.27965   1.28658   1.29489   1.29743   1.30424
 Alpha virt. eigenvalues --    1.30760   1.30993   1.31365   1.31436   1.31991
 Alpha virt. eigenvalues --    1.32809   1.33293   1.33668   1.34270   1.34697
 Alpha virt. eigenvalues --    1.35066   1.35371   1.35531   1.36032   1.36651
 Alpha virt. eigenvalues --    1.36909   1.37135   1.37642   1.37942   1.38528
 Alpha virt. eigenvalues --    1.38720   1.39249   1.39299   1.39620   1.39899
 Alpha virt. eigenvalues --    1.40564   1.40639   1.41267   1.41718   1.41873
 Alpha virt. eigenvalues --    1.42052   1.42396   1.42573   1.42934   1.43307
 Alpha virt. eigenvalues --    1.43572   1.43650   1.43855   1.44118   1.44205
 Alpha virt. eigenvalues --    1.44488   1.44622   1.44777   1.45119   1.45196
 Alpha virt. eigenvalues --    1.45540   1.45923   1.46120   1.46366   1.46417
 Alpha virt. eigenvalues --    1.46708   1.46763   1.47212   1.47437   1.47695
 Alpha virt. eigenvalues --    1.47808   1.48172   1.48447   1.48776   1.48967
 Alpha virt. eigenvalues --    1.49266   1.49392   1.49780   1.49974   1.50137
 Alpha virt. eigenvalues --    1.50449   1.50918   1.51101   1.51931   1.51954
 Alpha virt. eigenvalues --    1.52301   1.52679   1.53092   1.53128   1.53369
 Alpha virt. eigenvalues --    1.53492   1.53794   1.53857   1.54076   1.54587
 Alpha virt. eigenvalues --    1.54683   1.54989   1.55325   1.55564   1.55742
 Alpha virt. eigenvalues --    1.56299   1.56841   1.57080   1.57210   1.58022
 Alpha virt. eigenvalues --    1.58177   1.58351   1.58573   1.58788   1.59092
 Alpha virt. eigenvalues --    1.59475   1.59641   1.60002   1.60143   1.60598
 Alpha virt. eigenvalues --    1.60703   1.60825   1.61224   1.61442   1.62051
 Alpha virt. eigenvalues --    1.62267   1.62537   1.62820   1.63094   1.63678
 Alpha virt. eigenvalues --    1.63942   1.64195   1.64337   1.64619   1.65386
 Alpha virt. eigenvalues --    1.65526   1.66065   1.66581   1.67076   1.67505
 Alpha virt. eigenvalues --    1.68741   1.69646   1.70038   1.70313   1.70613
 Alpha virt. eigenvalues --    1.71204   1.72304   1.72829   1.73089   1.73456
 Alpha virt. eigenvalues --    1.73580   1.74395   1.74585   1.75007   1.75442
 Alpha virt. eigenvalues --    1.75521   1.76205   1.76396   1.76982   1.77184
 Alpha virt. eigenvalues --    1.77507   1.77852   1.78015   1.78276   1.79038
 Alpha virt. eigenvalues --    1.79212   1.79573   1.79755   1.79891   1.80660
 Alpha virt. eigenvalues --    1.81336   1.82010   1.82297   1.83029   1.83138
 Alpha virt. eigenvalues --    1.84002   1.84463   1.85231   1.85445   1.86090
 Alpha virt. eigenvalues --    1.86508   1.86838   1.87161   1.87687   1.87922
 Alpha virt. eigenvalues --    1.88151   1.88428   1.88607   1.89168   1.89429
 Alpha virt. eigenvalues --    1.89558   1.89914   1.90432   1.90740   1.91145
 Alpha virt. eigenvalues --    1.91721   1.91842   1.92513   1.92619   1.93133
 Alpha virt. eigenvalues --    1.93216   1.93792   1.94321   1.94727   1.95211
 Alpha virt. eigenvalues --    1.95442   1.95905   1.96648   1.97085   1.97150
 Alpha virt. eigenvalues --    1.97739   1.98520   1.98877   1.99061   1.99978
 Alpha virt. eigenvalues --    2.00097   2.00212   2.00713   2.00797   2.01241
 Alpha virt. eigenvalues --    2.01727   2.02084   2.02489   2.02700   2.02960
 Alpha virt. eigenvalues --    2.03449   2.03785   2.04092   2.04319   2.04937
 Alpha virt. eigenvalues --    2.05187   2.05501   2.05952   2.06554   2.07295
 Alpha virt. eigenvalues --    2.07661   2.08051   2.08556   2.08823   2.09078
 Alpha virt. eigenvalues --    2.09335   2.10026   2.10380   2.10796   2.11246
 Alpha virt. eigenvalues --    2.11746   2.12072   2.12746   2.12806   2.13361
 Alpha virt. eigenvalues --    2.13651   2.13977   2.14390   2.14635   2.15722
 Alpha virt. eigenvalues --    2.16290   2.16908   2.17062   2.17608   2.17880
 Alpha virt. eigenvalues --    2.18535   2.18764   2.18869   2.19358   2.19959
 Alpha virt. eigenvalues --    2.20350   2.20813   2.21265   2.21821   2.22194
 Alpha virt. eigenvalues --    2.22266   2.22692   2.23269   2.23375   2.23715
 Alpha virt. eigenvalues --    2.23950   2.24718   2.24801   2.25801   2.25989
 Alpha virt. eigenvalues --    2.26238   2.26444   2.26742   2.27574   2.27965
 Alpha virt. eigenvalues --    2.28283   2.28460   2.28712   2.28897   2.29213
 Alpha virt. eigenvalues --    2.29327   2.29721   2.29857   2.30661   2.31017
 Alpha virt. eigenvalues --    2.31215   2.32117   2.32346   2.32767   2.32973
 Alpha virt. eigenvalues --    2.33119   2.34046   2.34249   2.34573   2.34929
 Alpha virt. eigenvalues --    2.35508   2.35880   2.36286   2.36728   2.37033
 Alpha virt. eigenvalues --    2.37573   2.38125   2.38671   2.38718   2.38851
 Alpha virt. eigenvalues --    2.39159   2.39708   2.39863   2.40286   2.40407
 Alpha virt. eigenvalues --    2.40969   2.41056   2.42199   2.42319   2.42658
 Alpha virt. eigenvalues --    2.43067   2.43793   2.43970   2.44362   2.44635
 Alpha virt. eigenvalues --    2.44754   2.44781   2.45245   2.46073   2.46558
 Alpha virt. eigenvalues --    2.47044   2.47190   2.47421   2.47615   2.48037
 Alpha virt. eigenvalues --    2.48338   2.48688   2.49294   2.49527   2.49763
 Alpha virt. eigenvalues --    2.50432   2.50752   2.50946   2.51593   2.51859
 Alpha virt. eigenvalues --    2.52051   2.52316   2.52977   2.53422   2.53923
 Alpha virt. eigenvalues --    2.54240   2.54633   2.54828   2.55423   2.55487
 Alpha virt. eigenvalues --    2.55916   2.56216   2.56403   2.56691   2.56870
 Alpha virt. eigenvalues --    2.57184   2.57820   2.58094   2.58671   2.59030
 Alpha virt. eigenvalues --    2.59126   2.59740   2.60253   2.60396   2.60869
 Alpha virt. eigenvalues --    2.60999   2.61043   2.61295   2.61618   2.62543
 Alpha virt. eigenvalues --    2.62950   2.63116   2.63327   2.64272   2.64336
 Alpha virt. eigenvalues --    2.64571   2.65051   2.65575   2.65857   2.66012
 Alpha virt. eigenvalues --    2.66405   2.66909   2.67337   2.67912   2.68578
 Alpha virt. eigenvalues --    2.68667   2.69390   2.69641   2.69969   2.70404
 Alpha virt. eigenvalues --    2.70643   2.71390   2.71583   2.72303   2.72720
 Alpha virt. eigenvalues --    2.73002   2.73501   2.73726   2.74092   2.74719
 Alpha virt. eigenvalues --    2.74964   2.74981   2.75627   2.76306   2.76443
 Alpha virt. eigenvalues --    2.76532   2.76921   2.77296   2.77694   2.78585
 Alpha virt. eigenvalues --    2.78804   2.78950   2.79043   2.79507   2.79732
 Alpha virt. eigenvalues --    2.79790   2.79976   2.80466   2.80778   2.81498
 Alpha virt. eigenvalues --    2.81605   2.82000   2.82250   2.82654   2.83006
 Alpha virt. eigenvalues --    2.83261   2.83520   2.83760   2.84427   2.84693
 Alpha virt. eigenvalues --    2.85019   2.85259   2.85481   2.85893   2.86240
 Alpha virt. eigenvalues --    2.86290   2.86879   2.86993   2.87519   2.87748
 Alpha virt. eigenvalues --    2.88070   2.88534   2.88870   2.89268   2.89467
 Alpha virt. eigenvalues --    2.89846   2.90058   2.90640   2.90755   2.91241
 Alpha virt. eigenvalues --    2.91413   2.91681   2.91915   2.92596   2.92628
 Alpha virt. eigenvalues --    2.93110   2.93356   2.93799   2.94199   2.94457
 Alpha virt. eigenvalues --    2.94885   2.95202   2.95348   2.95947   2.96310
 Alpha virt. eigenvalues --    2.96553   2.96734   2.96952   2.97105   2.97698
 Alpha virt. eigenvalues --    2.98088   2.98397   2.98649   2.99226   2.99443
 Alpha virt. eigenvalues --    2.99564   2.99691   2.99945   3.00159   3.00923
 Alpha virt. eigenvalues --    3.01115   3.01475   3.01621   3.02083   3.02338
 Alpha virt. eigenvalues --    3.02509   3.03034   3.03083   3.03208   3.03432
 Alpha virt. eigenvalues --    3.03784   3.04319   3.04363   3.04579   3.05060
 Alpha virt. eigenvalues --    3.05482   3.05665   3.05796   3.06242   3.06638
 Alpha virt. eigenvalues --    3.06896   3.07091   3.07204   3.07731   3.07901
 Alpha virt. eigenvalues --    3.08247   3.08569   3.08927   3.09119   3.09223
 Alpha virt. eigenvalues --    3.09446   3.09677   3.09925   3.10629   3.10688
 Alpha virt. eigenvalues --    3.10944   3.11771   3.11979   3.12531   3.12617
 Alpha virt. eigenvalues --    3.12840   3.13021   3.13180   3.13793   3.14216
 Alpha virt. eigenvalues --    3.14450   3.14806   3.15229   3.15260   3.15519
 Alpha virt. eigenvalues --    3.15843   3.16228   3.16259   3.16465   3.16708
 Alpha virt. eigenvalues --    3.16934   3.16959   3.17233   3.17617   3.17777
 Alpha virt. eigenvalues --    3.18133   3.18302   3.18814   3.18975   3.19235
 Alpha virt. eigenvalues --    3.19604   3.19710   3.20280   3.20407   3.20809
 Alpha virt. eigenvalues --    3.20974   3.21162   3.21482   3.21717   3.21900
 Alpha virt. eigenvalues --    3.21943   3.22210   3.22290   3.22428   3.22586
 Alpha virt. eigenvalues --    3.23089   3.23367   3.23727   3.23861   3.24111
 Alpha virt. eigenvalues --    3.24375   3.24747   3.24904   3.25467   3.25527
 Alpha virt. eigenvalues --    3.25986   3.26263   3.26376   3.26667   3.26778
 Alpha virt. eigenvalues --    3.27069   3.27340   3.27708   3.27865   3.28075
 Alpha virt. eigenvalues --    3.28241   3.28623   3.28920   3.29108   3.29213
 Alpha virt. eigenvalues --    3.29810   3.30086   3.30211   3.30407   3.30710
 Alpha virt. eigenvalues --    3.31097   3.31199   3.31585   3.31724   3.32038
 Alpha virt. eigenvalues --    3.32193   3.32628   3.33545   3.33919   3.34037
 Alpha virt. eigenvalues --    3.34341   3.34905   3.35064   3.35368   3.35698
 Alpha virt. eigenvalues --    3.36537   3.36762   3.37223   3.37344   3.37810
 Alpha virt. eigenvalues --    3.38360   3.38633   3.38796   3.39649   3.40164
 Alpha virt. eigenvalues --    3.40233   3.40943   3.40982   3.41487   3.41674
 Alpha virt. eigenvalues --    3.42184   3.42578   3.42809   3.43219   3.43646
 Alpha virt. eigenvalues --    3.44334   3.44723   3.44854   3.45023   3.45320
 Alpha virt. eigenvalues --    3.45812   3.46505   3.46597   3.46927   3.46980
 Alpha virt. eigenvalues --    3.47452   3.47920   3.48043   3.49029   3.49295
 Alpha virt. eigenvalues --    3.49469   3.50036   3.50279   3.50926   3.51205
 Alpha virt. eigenvalues --    3.51591   3.51870   3.52065   3.52851   3.53288
 Alpha virt. eigenvalues --    3.53562   3.54045   3.54497   3.54709   3.55677
 Alpha virt. eigenvalues --    3.56069   3.56580   3.56715   3.57112   3.57262
 Alpha virt. eigenvalues --    3.57410   3.58021   3.58688   3.59306   3.59533
 Alpha virt. eigenvalues --    3.59809   3.60184   3.60454   3.61101   3.61360
 Alpha virt. eigenvalues --    3.61589   3.61870   3.62054   3.62304   3.62555
 Alpha virt. eigenvalues --    3.62631   3.62888   3.63376   3.63570   3.64319
 Alpha virt. eigenvalues --    3.64569   3.65262   3.65491   3.66055   3.66685
 Alpha virt. eigenvalues --    3.66841   3.67033   3.67417   3.68127   3.68418
 Alpha virt. eigenvalues --    3.69425   3.70021   3.70170   3.70974   3.71214
 Alpha virt. eigenvalues --    3.71794   3.71961   3.72535   3.73075   3.73318
 Alpha virt. eigenvalues --    3.73442   3.74044   3.75120   3.75227   3.76130
 Alpha virt. eigenvalues --    3.76704   3.77196   3.77944   3.78980   3.79051
 Alpha virt. eigenvalues --    3.79656   3.80004   3.80685   3.80951   3.81304
 Alpha virt. eigenvalues --    3.81407   3.81643   3.82249   3.82871   3.82995
 Alpha virt. eigenvalues --    3.83202   3.83763   3.84680   3.84983   3.85848
 Alpha virt. eigenvalues --    3.86766   3.87234   3.87643   3.87870   3.88518
 Alpha virt. eigenvalues --    3.88899   3.89392   3.89895   3.90060   3.90570
 Alpha virt. eigenvalues --    3.91021   3.91352   3.91740   3.92164   3.92338
 Alpha virt. eigenvalues --    3.93048   3.93414   3.93771   3.94679   3.95000
 Alpha virt. eigenvalues --    3.95693   3.96193   3.96936   3.97860   3.99112
 Alpha virt. eigenvalues --    4.00043   4.00922   4.01406   4.01715   4.03004
 Alpha virt. eigenvalues --    4.03294   4.03788   4.04637   4.05010   4.06275
 Alpha virt. eigenvalues --    4.06624   4.06786   4.07914   4.08404   4.08772
 Alpha virt. eigenvalues --    4.09168   4.09616   4.09863   4.10055   4.10626
 Alpha virt. eigenvalues --    4.10971   4.11585   4.12424   4.12589   4.13074
 Alpha virt. eigenvalues --    4.13208   4.13971   4.14150   4.14971   4.15552
 Alpha virt. eigenvalues --    4.15752   4.16806   4.17055   4.17844   4.18224
 Alpha virt. eigenvalues --    4.18553   4.18879   4.19690   4.20115   4.20820
 Alpha virt. eigenvalues --    4.22166   4.22369   4.22867   4.23470   4.23641
 Alpha virt. eigenvalues --    4.24243   4.24758   4.24770   4.25964   4.26521
 Alpha virt. eigenvalues --    4.27580   4.28326   4.28605   4.29190   4.29886
 Alpha virt. eigenvalues --    4.30513   4.30735   4.31213   4.31898   4.32187
 Alpha virt. eigenvalues --    4.32265   4.32869   4.33285   4.33372   4.34002
 Alpha virt. eigenvalues --    4.34102   4.34779   4.34997   4.35240   4.35502
 Alpha virt. eigenvalues --    4.35736   4.36143   4.36627   4.37084   4.37238
 Alpha virt. eigenvalues --    4.37782   4.38637   4.39036   4.40297   4.41010
 Alpha virt. eigenvalues --    4.42551   4.43269   4.44745   4.45215   4.45978
 Alpha virt. eigenvalues --    4.46940   4.47628   4.48321   4.48901   4.49947
 Alpha virt. eigenvalues --    4.50610   4.52302   4.53019   4.53866   4.54279
 Alpha virt. eigenvalues --    4.54840   4.55618   4.56963   4.57689   4.58385
 Alpha virt. eigenvalues --    4.59292   4.60068   4.60474   4.60709   4.61586
 Alpha virt. eigenvalues --    4.62122   4.62653   4.63269   4.63426   4.64111
 Alpha virt. eigenvalues --    4.64461   4.65204   4.65524   4.66275   4.66898
 Alpha virt. eigenvalues --    4.67153   4.68032   4.69730   4.70765   4.71142
 Alpha virt. eigenvalues --    4.72026   4.73189   4.73577   4.73937   4.74536
 Alpha virt. eigenvalues --    4.74744   4.74933   4.75571   4.75786   4.76200
 Alpha virt. eigenvalues --    4.76727   4.77705   4.78080   4.78782   4.79757
 Alpha virt. eigenvalues --    4.81684   4.82021   4.82705   4.84085   4.84332
 Alpha virt. eigenvalues --    4.84777   4.85150   4.85679   4.85992   4.86989
 Alpha virt. eigenvalues --    4.87808   4.88366   4.88832   4.89565   4.90155
 Alpha virt. eigenvalues --    4.90532   4.92390   4.92582   4.93506   4.93815
 Alpha virt. eigenvalues --    4.94492   4.95335   4.95640   4.96595   4.97199
 Alpha virt. eigenvalues --    4.98398   4.98828   4.99715   5.00373   5.01685
 Alpha virt. eigenvalues --    5.01792   5.02363   5.02732   5.03469   5.03868
 Alpha virt. eigenvalues --    5.05772   5.08053   5.09201   5.09997   5.10811
 Alpha virt. eigenvalues --    5.11305   5.12482   5.13669   5.14120   5.14414
 Alpha virt. eigenvalues --    5.15489   5.16252   5.17899   5.18361   5.19250
 Alpha virt. eigenvalues --    5.21011   5.21659   5.22918   5.24733   5.25766
 Alpha virt. eigenvalues --    5.26792   5.27151   5.27470   5.28504   5.29009
 Alpha virt. eigenvalues --    5.29333   5.29745   5.29960   5.30898   5.32988
 Alpha virt. eigenvalues --    5.34298   5.35068   5.35739   5.36671   5.37687
 Alpha virt. eigenvalues --    5.37952   5.39763   5.40633   5.41330   5.42299
 Alpha virt. eigenvalues --    5.43031   5.43604   5.46581   5.48368   5.49948
 Alpha virt. eigenvalues --    5.51036   5.52013   5.52424   5.53152   5.54130
 Alpha virt. eigenvalues --    5.54738   5.55346   5.56164   5.57146   5.57564
 Alpha virt. eigenvalues --    5.58432   5.59213   5.61713   5.63040   5.64678
 Alpha virt. eigenvalues --    5.65564   5.67650   5.71372   5.72028   5.76055
 Alpha virt. eigenvalues --    5.80098   5.85701   5.88327   5.88834   5.89129
 Alpha virt. eigenvalues --    5.90787   5.92019   5.93349   5.93964   5.96591
 Alpha virt. eigenvalues --    5.99585   6.00642   6.04087   6.04648   6.05676
 Alpha virt. eigenvalues --    6.07694   6.08651   6.09307   6.13745   6.16881
 Alpha virt. eigenvalues --    6.24911   6.25309   6.31465  22.26944  22.27981
 Alpha virt. eigenvalues --   22.35825  22.35996  22.37241  22.38183  22.44444
 Alpha virt. eigenvalues --   22.46524  22.53455  22.53995  22.73119  22.73846
 Alpha virt. eigenvalues --   22.78503  22.78720  22.84536  22.85487  22.86933
 Alpha virt. eigenvalues --   22.88719  22.89654  22.93558  22.94846  23.00897
 Alpha virt. eigenvalues --   23.01271  23.05548  23.17852  23.19763  23.20474
 Alpha virt. eigenvalues --   23.21048  23.22518  23.32232  23.36504  23.41674
 Alpha virt. eigenvalues --   23.42887  23.47776  23.63977  23.68861  23.70522
 Alpha virt. eigenvalues --   23.80116  32.31541  32.33204  32.71686  32.77849
 Alpha virt. eigenvalues --   32.94094  32.95616  32.96089  33.33417
  Beta  occ. eigenvalues -- -256.39650 -30.21151 -26.05676 -26.05669 -26.05641
  Beta  occ. eigenvalues --  -14.51632 -14.51377 -14.46016 -14.45652 -14.43257
  Beta  occ. eigenvalues --  -14.43251 -14.43233 -14.43169 -10.36074 -10.35755
  Beta  occ. eigenvalues --  -10.33459 -10.33247 -10.31935 -10.31859 -10.31788
  Beta  occ. eigenvalues --  -10.31753 -10.31730 -10.31585 -10.31574 -10.31565
  Beta  occ. eigenvalues --  -10.30857 -10.30645 -10.29287 -10.29173 -10.29105
  Beta  occ. eigenvalues --  -10.28951 -10.28906 -10.28822 -10.28822 -10.28778
  Beta  occ. eigenvalues --  -10.28777 -10.28728 -10.28701 -10.28694 -10.28688
  Beta  occ. eigenvalues --  -10.28651 -10.28501 -10.28329 -10.27407 -10.27392
  Beta  occ. eigenvalues --  -10.27345 -10.27316 -10.27313 -10.27170 -10.27119
  Beta  occ. eigenvalues --  -10.26987  -3.53543  -2.28629  -2.28576  -2.28574
  Beta  occ. eigenvalues --   -1.15394  -1.15150  -1.07781  -1.06750  -1.06710
  Beta  occ. eigenvalues --   -1.05721  -1.01157  -1.00853  -0.92697  -0.91476
  Beta  occ. eigenvalues --   -0.91206  -0.90600  -0.90254  -0.89879  -0.89811
  Beta  occ. eigenvalues --   -0.89561  -0.89375  -0.86292  -0.85081  -0.84367
  Beta  occ. eigenvalues --   -0.83688  -0.82333  -0.81146  -0.80970  -0.80348
  Beta  occ. eigenvalues --   -0.79463  -0.77866  -0.77624  -0.77405  -0.74652
  Beta  occ. eigenvalues --   -0.74490  -0.74273  -0.74234  -0.71226  -0.71010
  Beta  occ. eigenvalues --   -0.70139  -0.69764  -0.67783  -0.67186  -0.65849
  Beta  occ. eigenvalues --   -0.65612  -0.64341  -0.63957  -0.63361  -0.62196
  Beta  occ. eigenvalues --   -0.61134  -0.60838  -0.60360  -0.58301  -0.57893
  Beta  occ. eigenvalues --   -0.57689  -0.57571  -0.57440  -0.57085  -0.56880
  Beta  occ. eigenvalues --   -0.55505  -0.54816  -0.54283  -0.54085  -0.53656
  Beta  occ. eigenvalues --   -0.53475  -0.52931  -0.52740  -0.52673  -0.52561
  Beta  occ. eigenvalues --   -0.52476  -0.52229  -0.52203  -0.52019  -0.51894
  Beta  occ. eigenvalues --   -0.51222  -0.51092  -0.50812  -0.50584  -0.50353
  Beta  occ. eigenvalues --   -0.50162  -0.50017  -0.49686  -0.49456  -0.49383
  Beta  occ. eigenvalues --   -0.49134  -0.49009  -0.48794  -0.48654  -0.48453
  Beta  occ. eigenvalues --   -0.48047  -0.47629  -0.47365  -0.47244  -0.46869
  Beta  occ. eigenvalues --   -0.46728  -0.46265  -0.46202  -0.45133  -0.45024
  Beta  occ. eigenvalues --   -0.44419  -0.44237  -0.43548  -0.43239  -0.42321
  Beta  occ. eigenvalues --   -0.42157  -0.42038  -0.41952  -0.40267  -0.40136
  Beta  occ. eigenvalues --   -0.38789  -0.38517  -0.36926  -0.36862  -0.34027
  Beta  occ. eigenvalues --   -0.33699  -0.33138  -0.33005  -0.31982  -0.31501
  Beta  occ. eigenvalues --   -0.28804  -0.28139
  Beta virt. eigenvalues --   -0.19432  -0.19390  -0.17737  -0.15543  -0.15502
  Beta virt. eigenvalues --   -0.11460  -0.09767  -0.09667  -0.08425  -0.08241
  Beta virt. eigenvalues --   -0.07931  -0.07250  -0.06059  -0.05136  -0.04671
  Beta virt. eigenvalues --   -0.04564  -0.04214  -0.03940  -0.03428  -0.02999
  Beta virt. eigenvalues --   -0.02654  -0.01629  -0.01537  -0.01432  -0.01172
  Beta virt. eigenvalues --   -0.00646  -0.00411  -0.00060   0.00403   0.00580
  Beta virt. eigenvalues --    0.00798   0.00878   0.01386   0.01687   0.02043
  Beta virt. eigenvalues --    0.02281   0.02820   0.02885   0.02984   0.03094
  Beta virt. eigenvalues --    0.03525   0.03783   0.03996   0.04038   0.04279
  Beta virt. eigenvalues --    0.04467   0.04687   0.04821   0.04909   0.05005
  Beta virt. eigenvalues --    0.05121   0.05259   0.05758   0.05876   0.06251
  Beta virt. eigenvalues --    0.06333   0.06458   0.06617   0.06852   0.07228
  Beta virt. eigenvalues --    0.07510   0.07690   0.07769   0.08120   0.08253
  Beta virt. eigenvalues --    0.08334   0.08565   0.08628   0.08765   0.09141
  Beta virt. eigenvalues --    0.09259   0.09577   0.09785   0.10266   0.10670
  Beta virt. eigenvalues --    0.10742   0.10920   0.11150   0.11237   0.11356
  Beta virt. eigenvalues --    0.11536   0.11922   0.12050   0.12273   0.12803
  Beta virt. eigenvalues --    0.12901   0.13334   0.13553   0.13692   0.13860
  Beta virt. eigenvalues --    0.14352   0.14612   0.14784   0.14921   0.15209
  Beta virt. eigenvalues --    0.15550   0.15656   0.16009   0.16167   0.16669
  Beta virt. eigenvalues --    0.17154   0.17195   0.17399   0.17699   0.17881
  Beta virt. eigenvalues --    0.18204   0.18434   0.18659   0.19027   0.19179
  Beta virt. eigenvalues --    0.19309   0.19417   0.19806   0.20088   0.20179
  Beta virt. eigenvalues --    0.20652   0.20704   0.20915   0.21094   0.21266
  Beta virt. eigenvalues --    0.21468   0.21938   0.22021   0.22294   0.22613
  Beta virt. eigenvalues --    0.22750   0.22784   0.23122   0.23389   0.23687
  Beta virt. eigenvalues --    0.23941   0.24327   0.24497   0.24669   0.24978
  Beta virt. eigenvalues --    0.25050   0.25320   0.25475   0.26085   0.26338
  Beta virt. eigenvalues --    0.26441   0.27313   0.27374   0.27531   0.27763
  Beta virt. eigenvalues --    0.27990   0.28303   0.28402   0.28701   0.28804
  Beta virt. eigenvalues --    0.28917   0.29037   0.29396   0.29728   0.29800
  Beta virt. eigenvalues --    0.30151   0.30386   0.30595   0.30873   0.31265
  Beta virt. eigenvalues --    0.31458   0.31774   0.31998   0.32235   0.32356
  Beta virt. eigenvalues --    0.32521   0.32568   0.33081   0.33112   0.33448
  Beta virt. eigenvalues --    0.33474   0.33652   0.33784   0.33975   0.34156
  Beta virt. eigenvalues --    0.34296   0.34382   0.34573   0.34626   0.34818
  Beta virt. eigenvalues --    0.34977   0.35203   0.35485   0.35595   0.35776
  Beta virt. eigenvalues --    0.35982   0.36299   0.36470   0.36552   0.36874
  Beta virt. eigenvalues --    0.36971   0.37111   0.37334   0.37847   0.38098
  Beta virt. eigenvalues --    0.38181   0.38333   0.38353   0.38551   0.38748
  Beta virt. eigenvalues --    0.39024   0.39115   0.39165   0.39540   0.39863
  Beta virt. eigenvalues --    0.39996   0.40252   0.40414   0.40582   0.40675
  Beta virt. eigenvalues --    0.40751   0.40947   0.41183   0.41594   0.41680
  Beta virt. eigenvalues --    0.41850   0.42078   0.42195   0.42467   0.42601
  Beta virt. eigenvalues --    0.42926   0.43108   0.43322   0.43545   0.43602
  Beta virt. eigenvalues --    0.44105   0.44217   0.44383   0.44513   0.44815
  Beta virt. eigenvalues --    0.44932   0.45318   0.45561   0.45728   0.45917
  Beta virt. eigenvalues --    0.46113   0.46480   0.46578   0.46862   0.47086
  Beta virt. eigenvalues --    0.47259   0.47461   0.47741   0.47988   0.48262
  Beta virt. eigenvalues --    0.48333   0.48664   0.48886   0.49139   0.49172
  Beta virt. eigenvalues --    0.49312   0.49547   0.49892   0.50122   0.50344
  Beta virt. eigenvalues --    0.50544   0.50999   0.51201   0.51329   0.51657
  Beta virt. eigenvalues --    0.51933   0.51998   0.52377   0.52673   0.53620
  Beta virt. eigenvalues --    0.53817   0.53956   0.54244   0.54513   0.54869
  Beta virt. eigenvalues --    0.54959   0.55275   0.55768   0.55939   0.56056
  Beta virt. eigenvalues --    0.56483   0.56646   0.56805   0.56979   0.57491
  Beta virt. eigenvalues --    0.57645   0.57963   0.58142   0.58406   0.59160
  Beta virt. eigenvalues --    0.59225   0.59741   0.59879   0.60173   0.60721
  Beta virt. eigenvalues --    0.60893   0.61695   0.61877   0.62088   0.62646
  Beta virt. eigenvalues --    0.62900   0.63047   0.63293   0.63541   0.64084
  Beta virt. eigenvalues --    0.64232   0.64400   0.64582   0.64834   0.65575
  Beta virt. eigenvalues --    0.65691   0.66017   0.66400   0.66570   0.66863
  Beta virt. eigenvalues --    0.66990   0.67227   0.67911   0.68136   0.68273
  Beta virt. eigenvalues --    0.68509   0.68846   0.68883   0.69369   0.69701
  Beta virt. eigenvalues --    0.70364   0.70530   0.70693   0.71078   0.71204
  Beta virt. eigenvalues --    0.71652   0.71963   0.72223   0.72627   0.72831
  Beta virt. eigenvalues --    0.73022   0.73826   0.74011   0.74349   0.74566
  Beta virt. eigenvalues --    0.74665   0.75280   0.75851   0.75955   0.76419
  Beta virt. eigenvalues --    0.76977   0.77251   0.77719   0.78101   0.78461
  Beta virt. eigenvalues --    0.78952   0.79023   0.79354   0.79933   0.80227
  Beta virt. eigenvalues --    0.80471   0.80806   0.81052   0.81206   0.81361
  Beta virt. eigenvalues --    0.81573   0.81922   0.82542   0.82899   0.83119
  Beta virt. eigenvalues --    0.83551   0.83826   0.84409   0.84729   0.84954
  Beta virt. eigenvalues --    0.85197   0.85715   0.86205   0.86297   0.86730
  Beta virt. eigenvalues --    0.86823   0.87377   0.87723   0.87979   0.88077
  Beta virt. eigenvalues --    0.88302   0.88475   0.89104   0.89138   0.89345
  Beta virt. eigenvalues --    0.89861   0.90176   0.90463   0.90699   0.90798
  Beta virt. eigenvalues --    0.91134   0.91514   0.91586   0.92047   0.92539
  Beta virt. eigenvalues --    0.92650   0.93203   0.93371   0.93768   0.94175
  Beta virt. eigenvalues --    0.94270   0.94529   0.94885   0.95023   0.95626
  Beta virt. eigenvalues --    0.95795   0.96125   0.96670   0.97009   0.97277
  Beta virt. eigenvalues --    0.97480   0.97513   0.97811   0.98612   0.98836
  Beta virt. eigenvalues --    0.99310   0.99466   0.99795   0.99851   1.00248
  Beta virt. eigenvalues --    1.00295   1.00632   1.01143   1.01359   1.01778
  Beta virt. eigenvalues --    1.02317   1.02874   1.03438   1.03527   1.03696
  Beta virt. eigenvalues --    1.03977   1.04716   1.05648   1.05888   1.06468
  Beta virt. eigenvalues --    1.06631   1.06908   1.07242   1.07680   1.08027
  Beta virt. eigenvalues --    1.08178   1.08257   1.08949   1.09500   1.09686
  Beta virt. eigenvalues --    1.09864   1.10164   1.10317   1.11057   1.11146
  Beta virt. eigenvalues --    1.11568   1.11821   1.12176   1.12415   1.13049
  Beta virt. eigenvalues --    1.13200   1.13748   1.14034   1.14706   1.14858
  Beta virt. eigenvalues --    1.15350   1.15923   1.16020   1.16437   1.17101
  Beta virt. eigenvalues --    1.17127   1.17618   1.17705   1.18072   1.18341
  Beta virt. eigenvalues --    1.18517   1.18759   1.19020   1.19217   1.19496
  Beta virt. eigenvalues --    1.20091   1.20436   1.20746   1.21026   1.21204
  Beta virt. eigenvalues --    1.21484   1.22554   1.23202   1.23389   1.23781
  Beta virt. eigenvalues --    1.24225   1.24921   1.25079   1.25525   1.25652
  Beta virt. eigenvalues --    1.26433   1.26943   1.27388   1.27706   1.27850
  Beta virt. eigenvalues --    1.28300   1.28919   1.29617   1.29885   1.30616
  Beta virt. eigenvalues --    1.30907   1.31117   1.31529   1.31674   1.32150
  Beta virt. eigenvalues --    1.33179   1.33460   1.33946   1.34415   1.34843
  Beta virt. eigenvalues --    1.35360   1.35515   1.35768   1.36371   1.36831
  Beta virt. eigenvalues --    1.37265   1.37420   1.37782   1.38045   1.38773
  Beta virt. eigenvalues --    1.38886   1.39374   1.39489   1.39727   1.40066
  Beta virt. eigenvalues --    1.40635   1.40783   1.41391   1.41864   1.41998
  Beta virt. eigenvalues --    1.42180   1.42514   1.42714   1.43145   1.43485
  Beta virt. eigenvalues --    1.43771   1.43797   1.44012   1.44243   1.44416
  Beta virt. eigenvalues --    1.44526   1.44757   1.44948   1.45185   1.45538
  Beta virt. eigenvalues --    1.45712   1.46120   1.46271   1.46430   1.46499
  Beta virt. eigenvalues --    1.46814   1.46867   1.47292   1.47553   1.47804
  Beta virt. eigenvalues --    1.47891   1.48296   1.48587   1.48854   1.49104
  Beta virt. eigenvalues --    1.49483   1.49611   1.49871   1.50046   1.50228
  Beta virt. eigenvalues --    1.50640   1.51082   1.51260   1.52016   1.52049
  Beta virt. eigenvalues --    1.52397   1.52760   1.53170   1.53250   1.53447
  Beta virt. eigenvalues --    1.53574   1.53883   1.53932   1.54178   1.54684
  Beta virt. eigenvalues --    1.54768   1.55080   1.55429   1.55679   1.55891
  Beta virt. eigenvalues --    1.56392   1.56905   1.57248   1.57323   1.58108
  Beta virt. eigenvalues --    1.58297   1.58423   1.58665   1.58843   1.59156
  Beta virt. eigenvalues --    1.59579   1.59733   1.60083   1.60251   1.60750
  Beta virt. eigenvalues --    1.60826   1.60879   1.61317   1.61574   1.62156
  Beta virt. eigenvalues --    1.62377   1.62608   1.62921   1.63208   1.63827
  Beta virt. eigenvalues --    1.64055   1.64328   1.64442   1.64782   1.65485
  Beta virt. eigenvalues --    1.65686   1.66243   1.66748   1.67175   1.67605
  Beta virt. eigenvalues --    1.68827   1.69720   1.70153   1.70390   1.70690
  Beta virt. eigenvalues --    1.71340   1.72425   1.72926   1.73178   1.73509
  Beta virt. eigenvalues --    1.73724   1.74534   1.74669   1.75096   1.75522
[...]
  1532. RY*(  23) C  83                  0.00000     3.52504   
  1533. RY*(  24) C  83                  0.00000     3.45769   
  1534. RY*(  25) C  83                  0.00000     3.38414   
  1535. RY*(  26) C  83                  0.00000     3.32969   
  1536. RY*(   1) H  84                  0.00024     0.64452   
  1537. RY*(   2) H  84                  0.00016     2.33587   
  1538. RY*(   3) H  84                  0.00008     2.16341   
  1539. RY*(   4) H  84                  0.00002     2.53778   
  1540. RY*(   5) H  84                  0.00001     2.99690   
  1541. RY*(   1) N  85                  0.00516     0.98717   
  1542. RY*(   2) N  85                  0.00207     1.89960   
  1543. RY*(   3) N  85                  0.00156     0.69785   
  1544. RY*(   4) N  85                  0.00114     1.01150   
  1545. RY*(   5) N  85                  0.00045     1.63385   
  1546. RY*(   6) N  85                  0.00044     1.98040   
  1547. RY*(   7) N  85                  0.00028     2.80170   
  1548. RY*(   8) N  85                  0.00025     3.11975   
  1549. RY*(   9) N  85                  0.00011     2.50142   
  1550. RY*(  10) N  85                  0.00006     3.38130   
  1551. RY*(  11) N  85                  0.00005     2.16640   
  1552. RY*(  12) N  85                  0.00004     3.09012   
  1553. RY*(  13) N  85                  0.00002     2.36161   
  1554. RY*(  14) N  85                  0.00001     4.58384   
  1555. RY*(  15) N  85                  0.00001     4.37100   
  1556. RY*(  16) N  85                  0.00000     4.57228   
  1557. RY*(  17) N  85                  0.00001     4.58312   
  1558. RY*(  18) N  85                  0.00000    31.40174   
  1559. RY*(  19) N  85                  0.00001     3.57683   
  1560. RY*(  20) N  85                  0.00000     4.38665   
  1561. RY*(  21) N  85                  0.00000     4.26636   
  1562. RY*(  22) N  85                  0.00001     4.62926   
  1563. RY*(  23) N  85                  0.00000     4.63571   
  1564. RY*(  24) N  85                  0.00000     4.65353   
  1565. RY*(  25) N  85                  0.00000     4.56104   
  1566. RY*(  26) N  85                  0.00000     4.36979   
  1567. RY*(   1) C  86                  0.00203     1.62070   
  1568. RY*(   2) C  86                  0.00134     0.57469   
  1569. RY*(   3) C  86                  0.00071     2.06516   
  1570. RY*(   4) C  86                  0.00045     1.13427   
  1571. RY*(   5) C  86                  0.00032     1.79118   
  1572. RY*(   6) C  86                  0.00032     2.59870   
  1573. RY*(   7) C  86                  0.00015     1.94157   
  1574. RY*(   8) C  86                  0.00015     1.03072   
  1575. RY*(   9) C  86                  0.00011     2.46091   
  1576. RY*(  10) C  86                  0.00007     2.03226   
  1577. RY*(  11) C  86                  0.00006     2.40668   
  1578. RY*(  12) C  86                  0.00005     2.35564   
  1579. RY*(  13) C  86                  0.00004     2.31272   
  1580. RY*(  14) C  86                  0.00003     3.67926   
  1581. RY*(  15) C  86                  0.00002     1.70021   
  1582. RY*(  16) C  86                  0.00001     2.72262   
  1583. RY*(  17) C  86                  0.00000     3.32157   
  1584. RY*(  18) C  86                  0.00001     3.23555   
  1585. RY*(  19) C  86                  0.00000    20.37396   
  1586. RY*(  20) C  86                  0.00000     4.03672   
  1587. RY*(  21) C  86                  0.00000     3.57945   
  1588. RY*(  22) C  86                  0.00000     3.90521   
  1589. RY*(  23) C  86                  0.00000     3.53521   
  1590. RY*(  24) C  86                  0.00000     4.05545   
  1591. RY*(  25) C  86                  0.00000     4.44391   
  1592. RY*(  26) C  86                  0.00000     3.50032   
  1593. RY*(   1) H  87                  0.00021     0.86907   
  1594. RY*(   2) H  87                  0.00015     1.98840   
  1595. RY*(   3) H  87                  0.00012     0.82327   
  1596. RY*(   4) H  87                  0.00003     1.39436   
  1597. RY*(   5) H  87                  0.00001     3.45990   
  1695. BD*(   1) C  76 - H  77          0.00511     0.36118   
  1696. BD*(   1) C  76 - H  78          0.00158     0.40705   
  1697. BD*(   1) C  76 - H  79          0.00514     0.30060   
  1698. BD*(   1) C  76 - C  82          0.00627     0.37583   
  1699. BD*(   1) N  80 - H  81          0.00662     0.37261   
  1700. BD*(   1) N  80 - C  82          0.01350     0.53875   
  1701. BD*(   1) N  80 - C  83          0.01056     0.56470   
  1702. BD*(   1) C  82 - C  86          0.01039     0.56033   
  1703. BD*(   2) C  82 - C  86          0.13840    -0.06150  1697(v),1706(v),1695(v)
                                                    1595(v),1488(g),182(r)
                                                    1631(r)
  1704. BD*(   1) C  83 - H  84          0.00828     0.28503   
  1705. BD*(   1) C  83 - N  85          0.00872     0.42691   
  1706. BD*(   2) C  83 - N  85          0.21671     3.63234  1597(r),1592(v),1589(v)
                                                    1580(v),1591(v),1586(v)
                                                    1707(g),1708(v),1590(v)
                                                    1527(g),1584(v),1587(v)
                                                    1588(v),1576(v),1578(v)
                                                    1567(v),1595(r),1699(v)
                                                    1530(g),1548(g),1701(g)
                                                    1569(v),1509(r),711(r)
                                                    1526(g),1687(r),1577(v)
                                                    1702(v),201(r),1506(r)
                                                    1696(r),1573(v),1575(v)
                                                    1700(v),1594(r),1693(r)
                                                    1532(g),246(r),948(r)
                                                    1489(r),192(r),1559(g)
                                                    1686(r),408(r),1574(v)
                                                    774(r),406(r),1691(r)
                                                    1692(r),1596(r),1531(g)
                                                    217(r),1502(r),771(r),216(r)
                                                    1690(r),1435(r),1695(r)
                                                    1522(g),1496(r),202(r)
                                                    1466(v),1593(r),1493(r)
                                                    1490(r),402(r),989(r)
                                                    1572(v),197(r),1505(r)
                                                    1425(r),1694(r),405(r)
                                                    783(r),185(r),503(r),1535(g)
                                                    1431(r),1546(g),715(r)
                                                    1498(r),912(r),1549(g)
                                                    1488(r),961(r),189(r)
                                                    1433(r),1565(g),324(r)
                                                    423(r),1417(r),1514(g)
                                                    530(r),561(r),911(r),1547(g)
                                                    1551(g),1495(r),353(r)
                                                    1554(g),1483(r),1413(r)
                                                    1689(r),435(r),420(r)
                                                    1461(v),186(r),1486(r)
                                                    1568(v),200(r),1570(v)
                                                    1317(r),1511(g),1321(r)
                                                    422(r),1462(v),394(r)
                                                    1525(g),433(r),922(r)
                                                    1373(r),1566(g),382(r)
                                                    1703(v),1471(v),814(r)
                                                    984(r),634(r),1539(v),398(r)
                                                    1599(r),1698(r),1544(g)
                                                    1550(g),1276(r),298(r)
                                                    242(r),1458(v),1563(g)
                                                    1430(r),1676(r),1545(g)
                                                    1540(v),1561(g),1429(r)
                                                    194(r),1456(v),1688(r)
                                                    1499(r),1517(g),1585(v)
                                                    358(r),1476(v),867(r)
                                                    1444(r),1432(r),1541(g)
                                                    773(r),1579(v),1494(r)
                                                    1474(v),396(r),1464(v)
                                                    1583(v),1697(r),510(r)
                                                    943(r),900(r),511(r),1472(v)
                                                    863(r),919(r),1660(r)
                                                    1557(g),947(r),1436(r)
                                                    1400(r),1623(r),1560(g)
                                                    1484(r),380(r),555(r)
                                                    1501(r),502(r),1510(g)
                                                    1416(r),608(r),425(r),407(r)
                                                    1600(r),952(r),460(r)
                                                    1249(r),1344(r),1398(r)
                                                    762(r),536(r),1022(r),509(r)
                                                    277(r),704(r),203(r),193(r)
                                                    198(r),866(r),735(r),1619(r)
                                                    716(r),507(r),1401(r)
                                                    1280(r),777(r),1367(r)
                                                    268(r),1627(r),721(r),319(r)
                                                    1397(r),399(r),767(r),183(r)
                                                    772(r),942(r),388(r),804(r)
                                                    870(r),331(r),921(r),449(r)
                                                    327(r),184(r),338(r),998(r)
                                                    934(r),928(r),266(r),1275(r)
                                                    508(r),1625(r),794(r),236(r)
                                                    308(r),416(r),437(r),276(r)
                                                    1667(r),245(r),367(r),741(r)
                                                    379(r),391(r),531(r),529(r)
                                                    1670(r),505(r),896(r),387(r)
                                                    456(r),208(r),806(r),444(r)
                                                    718(r),317(r),703(r),392(r)
                                                    857(r),833(r),765(r),992(r)
                                                    322(r),1097(r),1405(r)
                                                    413(r),941(r),410(r),776(r)
                                                    1630(r),1658(r),181(r)
                                                    270(r),241(r),616(r),1602(r)
                                                    486(r),395(r),294(r),432(r)
                                                    431(r),813(r),637(r),1631(r)
                                                    560(r),615(r),168(r),250(r)
                                                    758(r),1665(r),734(r),182(r)
                                                    436(r),793(r),211(r),714(r)
                                                    348(r),458(r),314(r),802(r)
                                                    1017(r),527(r),1288(r)
                                                    342(r),332(r),377(r),1659(r)
                                                    1404(r),1633(r),1356(r)
                                                    292(r),393(r),1169(r),585(r)
                                                    218(r),918(r),1666(r),381(r)
                                                    289(r),459(r),383(r),244(r)
                                                    473(r),692(r),770(r),950(r)
                                                    693(r),349(r),419(r),854(r)
                                                    951(r),259(r),720(r),960(r)
                                                    499(r),1285(r),764(r),368(r)
                                                    1020(r),846(r),540(r)
                                                    1337(r),427(r),466(r),411(r)
                                                    858(r),227(r),390(r),1013(r)
                                                    190(r),374(r),1151(r),953(r)
                                                    1002(r),316(r),1598(r)
                                                    871(r),315(r),220(r),861(r)
                                                    1638(r),1248(r),1668(r)
                                                    215(r),442(r),346(r),447(r)
                                                    1278(r),706(r),426(r)
                                                    1343(r),330(r),1669(r)
                                                    1131(r),484(r),199(r),417(r)
                                                    225(r),752(r),789(r),756(r)
                                                    239(r),1326(r),232(r),258(r)
                                                    467(r),204(r),485(r),587(r)
                                                    1034(r),963(r),523(r),617(r)
                                                    663(r),712(r),717(r),740(r)
                                                    753(r),355(r),307(r),726(r)
                                                    1032(r),240(r),778(r)
                                                    1639(r),341(r),936(r),878(r)
                                                    862(r),1200(r),534(r)
  1707. BD*(   1) N  85 - C  86          0.00865     6.80365   
  1708. BD*(   1) C  86 - H  87          0.00657     3.98660   
       -------------------------------
              Total Lewis   21.28075  ( 97.7705%)
        Valence non-Lewis    0.44648  (  2.0513%)
        Rydberg non-Lewis    0.03879  (  0.1782%)
       -------------------------------
            Total unit  3   21.76602  (100.0000%)
           Charge unit  3    0.23398
 Unable to Open any file for archive entry.
 1\1\GINC-BGN1014\SP\UAPFD\def2TZVP\C38H40Fe1N8(1+,6)\BECSLEIP\20-Sep-2
 024\0\\# apfd/def2TZVP guess=read scf=maxcycle=999 geom=check pop=nbo\
 \5eyj_III_H\\1,6\Fe,0,17.374581746,55.0243384485,35.47919234\N,0,16.96
 14607863,56.9712112705,35.3028697329\N,0,15.5189780739,54.6022758242,3
 4.7759201445\N,0,17.7280686675,53.051142287,35.6114545706\N,0,19.20393
 12464,55.4267645403,36.0938124535\C,0,17.7781569074,57.9901899243,35.6
 765949842\C,0,17.1847769205,59.2675553605,35.3422737329\C,0,15.9769501
 595,58.9922106397,34.7823323836\C,0,15.8534476321,57.5501183639,34.774
 5585886\C,0,14.6138599422,55.4929008617,34.2895773024\C,0,13.425943229
 1,54.8199679062,33.8363476284\C,0,13.6243665471,53.485396268,34.067737
 1104\C,0,14.9459414341,53.3768877019,34.654667471\C,0,16.8256062434,52
 .0410316835,35.4892107328\C,0,17.3924353832,50.7919912821,35.927655881
 3\C,0,18.6953955371,51.0589964438,36.2638654572\C,0,18.8831402718,52.4
 788465042,36.03426836\C,0,20.1974016154,54.5324737449,36.3324686133\C,
 0,21.4051558285,55.2169135776,36.7432519448\C,0,21.0994703704,56.54176
 41329,36.7812659645\C,0,19.7110664192,56.6507796689,36.3868774708\C,0,
 19.0460643367,57.8520530404,36.2150439578\H,0,19.5768196796,58.7561340
 601,36.4744391107\C,0,14.7649008751,56.8698832126,34.2675608049\H,0,13
 .9552519327,57.4525979044,33.8543936714\C,0,15.5259783297,52.182277220
 8,35.0352137486\H,0,14.9154056922,51.2948882189,34.973972566\C,0,20.06
 34809427,53.1569242967,36.2944155382\H,0,20.932755347,52.5676514402,36
 .5462704084\C,0,14.942234004,59.9265647361,34.254618469\H,0,14.7589513
 366,59.7385956317,33.1962570148\H,0,15.2586327222,60.9606830475,34.368
 6164306\H,0,14.0002256543,59.7956333587,34.7881973795\C,0,17.828160706
 ,60.5881504369,35.597451078\H,0,18.7661295749,60.6707771198,35.0471957
 95\H,0,18.0480166071,60.7093291182,36.6583935996\H,0,17.1777750262,61.
 4025643198,35.2873680475\C,0,12.2456447079,55.4866749689,33.2167487794
 \H,0,12.5350370107,56.0057546323,32.3023980684\H,0,11.8164589515,56.22
 1578325,33.8983824877\H,0,11.4806523386,54.7559598179,32.9659762087\C,
 0,12.7040363887,52.4104980818,33.7550541201\H,0,11.6585785879,52.63249
 36373,33.9444834082\C,0,13.0206108601,51.2308384803,33.2331246458\H,0,
 14.0320182494,50.9698275104,32.9716773759\H,0,12.268166925,50.48726331
 02,33.0266979927\C,0,16.6507813741,49.5053054112,36.0384741114\H,0,16.
 6494847296,48.9713557866,35.0863461736\H,0,15.6156034071,49.6806350897
 ,36.3270754633\H,0,17.118833571,48.8678113069,36.7862744168\C,0,19.711
 1186441,50.1661912555,36.7750146898\H,0,20.4411267391,50.6189680671,37
 .4364978315\C,0,19.8193177488,48.8706467062,36.4957268458\H,0,19.15611
 09154,48.374372817,35.8095560594\H,0,20.5982511796,48.2644764167,36.92
 82998762\C,0,22.6956289539,54.535493361,37.0489069634\H,0,23.009185396
 2,53.9160599473,36.2085571698\H,0,22.5933065458,53.8906294319,37.92292
 19714\H,0,23.4793869425,55.2616416922,37.2513659087\C,0,21.961162818,5
 7.7000023973,37.1537913983\H,0,22.9513146337,57.3662141897,37.45483188
 \H,0,21.519363243,58.2546310366,37.9819344672\H,0,22.071112292,58.3838
 11177,36.3113563237\C,0,19.8572604213,56.196454958,30.602477483\H,0,20
 .3209271345,57.1066062756,30.9698290423\H,0,19.2212459724,56.446360014
 3,29.753180843\H,0,20.639693688,55.5215223916,30.2552029931\N,0,18.355
 4090768,54.4092645462,31.5070375631\H,0,18.3009555679,53.8809091817,30
 .6517890619\C,0,19.0632083316,55.5689870979,31.6892795746\C,0,17.75061
 66924,54.111135446,32.6787557799\H,0,17.1262033708,53.2555583367,32.83
 19332453\N,0,18.0311483191,55.0096699149,33.5894561275\C,0,18.84682089
 46,55.9224780772,32.9901878977\H,0,19.220132697,56.7667792014,33.53167
 57479\C,0,14.3389163876,55.6789607182,40.1079178968\H,0,13.8936485716,
 54.7858917825,40.54652823\H,0,13.5615116001,56.2422640704,39.601315908
 1\H,0,14.7433348974,56.2897174899,40.9152598227\N,0,16.5126309579,54.5
 966845486,39.4953979222\H,0,16.7172775291,54.2496209757,40.4178960794\
 C,0,15.4021161458,55.3157070689,39.1367988683\C,0,17.2726247677,54.438
 8831999,38.3876277951\H,0,18.2040788432,53.9115699193,38.3684935143\N,
 0,16.7113320617,55.0126031663,37.3519957998\C,0,15.5480270906,55.56331
 95183,37.8022398779\H,0,14.8996680993,56.0954536489,37.1376378007\\Ver
 sion=ES64L-G16RevC.02\State=6-A\HF=-3172.8816685\S2=8.75804\S2-1=0.\S2
 A=8.75002\RMSD=6.602e-09\Dipole=0.1576564,0.1505977,0.1348746\Quadrupo
 le=-6.005535,-4.9101907,10.9157257,0.4822343,-2.0422508,-0.5706406\PG=
 C01 [X(C38H40Fe1N8)]\\@
 The archive entry for this job was punched.


 THE PROBLEM WITH THE LADDER OF SUCCESS IS YOU CAN'T
 CLIMB IT WHILE YOU'RE TWIDDLING YOUR THUMBS.
 Job cpu time:       0 days 15 hours 12 minutes 23.5 seconds.
 Elapsed time:       0 days  0 hours 14 minutes 34.9 seconds.
 File lengths (MBytes):  RWF=   2700 Int=      0 D2E=      0 Chk=    245 Scr=      1
 Normal termination of Gaussian 16 at Fri Sep 20 20:10:07 2024.
