 Entering Gaussian System, Link 0=g16
 Input=5eys12re.com
 Output=5eys12re.log
 Initial command:
 /sw/chem/gaussian/g16_C02/a100/g16/l1.exe "/local/becsleip_8020771/Gau-3248119.inp" -scrdir="/local/becsleip_8020771/"
 Entering Link 1 = /sw/chem/gaussian/g16_C02/a100/g16/l1.exe PID=   3248120.
  
 Copyright (c) 1988-2021, Gaussian, Inc.  All Rights Reserved.
  
 This is part of the Gaussian(R) 16 program.  It is based on
 the Gaussian(R) 09 system (copyright 2009, Gaussian, Inc.),
 the Gaussian(R) 03 system (copyright 2003, Gaussian, Inc.),
 the Gaussian(R) 98 system (copyright 1998, Gaussian, Inc.),
 the Gaussian(R) 94 system (copyright 1995, Gaussian, Inc.),
 the Gaussian 92(TM) system (copyright 1992, Gaussian, Inc.),
 the Gaussian 90(TM) system (copyright 1990, Gaussian, Inc.),
 the Gaussian 88(TM) system (copyright 1988, Gaussian, Inc.),
 the Gaussian 86(TM) system (copyright 1986, Carnegie Mellon
 University), and the Gaussian 82(TM) system (copyright 1983,
 Carnegie Mellon University). Gaussian is a federally registered
 trademark of Gaussian, Inc.
  
 This software contains proprietary and confidential information,
 including trade secrets, belonging to Gaussian, Inc.
  
 This software is provided under written license and may be
 used, copied, transmitted, or stored only in accord with that
 written license.
  
 The following legend is applicable only to US Government
 contracts under FAR:
  
                    RESTRICTED RIGHTS LEGEND
  
 Use, reproduction and disclosure by the US Government is
 subject to restrictions as set forth in subparagraphs (a)
 and (c) of the Commercial Computer Software - Restricted
 Rights clause in FAR 52.227-19.
  
 Gaussian, Inc.
 340 Quinnipiac St., Bldg. 40, Wallingford CT 06492
  
  
 ---------------------------------------------------------------
 Warning -- This program may not be used in any manner that
 competes with the business of Gaussian, Inc. or will provide
 assistance to any competitor of Gaussian, Inc.  The licensee
 of this program is prohibited from giving any competitor of
 Gaussian, Inc. access to this program.  By using this program,
 the user acknowledges that Gaussian, Inc. is engaged in the
 business of creating and licensing software in the field of
 computational chemistry and represents and warrants to the
 licensee that it is not a competitor of Gaussian, Inc. and that
 it will not use this program in any manner prohibited above.
 ---------------------------------------------------------------
  

 Cite this work as:
 Gaussian 16, Revision C.02,
 M. J. Frisch, G. W. Trucks, H. B. Schlegel, G. E. Scuseria, 
 M. A. Robb, J. R. Cheeseman, G. Scalmani, V. Barone, 
 G. A. Petersson, H. Nakatsuji, X. Li, M. Caricato, A. V. Marenich, 
 J. Bloino, B. G. Janesko, R. Gomperts, B. Mennucci, H. P. Hratchian, 
 J. V. Ortiz, A. F. Izmaylov, J. L. Sonnenberg, D. Williams-Young, 
 F. Ding, F. Lipparini, F. Egidi, J. Goings, B. Peng, A. Petrone, 
 T. Henderson, D. Ranasinghe, V. G. Zakrzewski, J. Gao, N. Rega, 
 G. Zheng, W. Liang, M. Hada, M. Ehara, K. Toyota, R. Fukuda, 
 J. Hasegawa, M. Ishida, T. Nakajima, Y. Honda, O. Kitao, H. Nakai, 
 T. Vreven, K. Throssell, J. A. Montgomery, Jr., J. E. Peralta, 
 F. Ogliaro, M. J. Bearpark, J. J. Heyd, E. N. Brothers, K. N. Kudin, 
 V. N. Staroverov, T. A. Keith, R. Kobayashi, J. Normand, 
 K. Raghavachari, A. P. Rendell, J. C. Burant, S. S. Iyengar, 
 J. Tomasi, M. Cossi, J. M. Millam, M. Klene, C. Adamo, R. Cammi, 
 J. W. Ochterski, R. L. Martin, K. Morokuma, O. Farkas, 
 J. B. Foresman, and D. J. Fox, Gaussian, Inc., Wallingford CT, 2019.
 
 ******************************************
 Gaussian 16:  ES64L-G16RevC.02  7-Dec-2021
                17-Sep-2024 
 ******************************************
 %mem=16GB
 %CPU=0-71
 SetSPE:  set environment variable "OMP_PROC_BIND" = "true"
 SetSPE:  set environment variable "OMP_PLACES" = "{0},{1},{2},{3},{4},{5},{6},{7},{8},{9},{10},{11},{12},{13},{14},{15},{16},{17},{18},{19},{20},{21},{22},{23},{24},{25},{26},{27},{28},{29},{30},{31},{32},{33},{34},{35},{36},{37},{38},{39},{40},{41},{42},{43},{44},{45},{46},{47},{48},{49},{50},{51},{52},{53},{54},{55},{56},{57},{58},{59},{60},{61},{62},{63},{64},{65},{66},{67},{68},{69},{70},{71}"
 Will use up to   72 processors via shared memory.
 %gpucpu=0,1,2,3=0,1,2,3
 Will use    4 GPUs:
 Thread  CPU   GPU
      0    0     0
      1    1     1
      2    2     2
      3    3     3
      4    4    -1
      5    5    -1
      6    6    -1
      7    7    -1
      8    8    -1
      9    9    -1
     10   10    -1
     11   11    -1
     12   12    -1
     13   13    -1
     14   14    -1
     15   15    -1
     16   16    -1
     17   17    -1
     18   18    -1
     19   19    -1
     20   20    -1
     21   21    -1
     22   22    -1
     23   23    -1
     24   24    -1
     25   25    -1
     26   26    -1
     27   27    -1
     28   28    -1
     29   29    -1
     30   30    -1
     31   31    -1
     32   32    -1
     33   33    -1
     34   34    -1
     35   35    -1
     36   36    -1
     37   37    -1
     38   38    -1
     39   39    -1
     40   40    -1
     41   41    -1
     42   42    -1
     43   43    -1
     44   44    -1
     45   45    -1
     46   46    -1
     47   47    -1
     48   48    -1
     49   49    -1
     50   50    -1
     51   51    -1
     52   52    -1
     53   53    -1
     54   54    -1
     55   55    -1
     56   56    -1
     57   57    -1
     58   58    -1
     59   59    -1
     60   60    -1
     61   61    -1
     62   62    -1
     63   63    -1
     64   64    -1
     65   65    -1
     66   66    -1
     67   67    -1
     68   68    -1
     69   69    -1
     70   70    -1
     71   71    -1
 SetGPE:  set environment variable "OMP_PROC_BIND" = "true"
 SetGPE:  set environment variable "OMP_PLACES" = "{0},{1},{2},{3},{4},{5},{6},{7},{8},{9},{10},{11},{12},{13},{14},{15},{16},{17},{18},{19},{20},{21},{22},{23},{24},{25},{26},{27},{28},{29},{30},{31},{32},{33},{34},{35},{36},{37},{38},{39},{40},{41},{42},{43},{44},{45},{46},{47},{48},{49},{50},{51},{52},{53},{54},{55},{56},{57},{58},{59},{60},{61},{62},{63},{64},{65},{66},{67},{68},{69},{70},{71}"
 %oldchk=5eys_II_S.chk
 %chk=5eys_II_Sre.chk
 Properties for Device   0
 Minimum vector length:                              32
 Maximum vector length:                            1024
 Number of SMPs:                                    108
 Maximum number of threads per SMP:                2048
 Number of ASync Engines:                             5
 Memory:                                           9207742464
 Properties for Device   1
 Minimum vector length:                              32
 Maximum vector length:                            1024
 Number of SMPs:                                    108
 Maximum number of threads per SMP:                2048
 Number of ASync Engines:                             5
 Memory:                                           9207742464
 Properties for Device   2
 Minimum vector length:                              32
 Maximum vector length:                            1024
 Number of SMPs:                                    108
 Maximum number of threads per SMP:                2048
 Number of ASync Engines:                             5
 Memory:                                           9207742464
 Properties for Device   3
 Minimum vector length:                              32
 Maximum vector length:                            1024
 Number of SMPs:                                    108
 Maximum number of threads per SMP:                2048
 Number of ASync Engines:                             5
 Memory:                                           9207742464
   8286968217 words of memory will be used on each GPU.
 Copying data from "5eys_II_S.chk" to current chk file "5eys_II_Sre.chk"
 IOpt=  2 FromEx=T IUOpen= 4 IOptOp= 5 NList=   0 IFRang= 0 IUIn= 4 IUOut= 2.
 --------------------------------------
 # apfd/gen scf=maxcycle=999 geom=check
 --------------------------------------
 1/29=2,38=1,172=1/1;
 2/12=2,40=1/2;
 3/5=7,11=2,14=-4,25=1,30=1,74=-44/1,2,3;
 4//1;
 5/5=2,7=999,38=5/2;
 6/7=2,8=2,9=2,10=2,28=1/1;
 99/5=1,9=1/99;
 ----------
 5eys_III_D
 ----------
 Structure from the checkpoint file:  "5eys_II_Sre.chk"
 Charge =  1 Multiplicity = 2
 Z-Matrix found in chk file.
 Fe,0,39.5427171262,-7.9123231484,2.4432053914
 N,0,41.428647233,-7.2490696519,2.5369015097
 N,0,40.1540845833,-9.7236082746,3.0362544511
 N,0,37.6480370754,-8.5877659389,2.3217131662
 N,0,38.9397529494,-6.1229280406,1.8051728964
 C,0,41.8701491054,-6.0081073083,2.2167692386
 C,0,43.2801525158,-5.8718761174,2.5151348457
 C,0,43.6759971859,-7.0664523667,3.0303070037
 C,0,42.5061076072,-7.9169408461,3.0260256048
 C,0,41.4162494899,-10.0826930915,3.3931932902
 C,0,41.4777340361,-11.4828388527,3.7257325231
 C,0,40.2117953961,-11.9762052869,3.5486192382
 C,0,39.4011619818,-10.8496278218,3.1297139377
 C,0,37.2290705842,-9.8681650326,2.5210017027
 C,0,35.8239178986,-9.9955897973,2.2434674428
 C,0,35.3838090403,-8.742013677,1.8956672905
 C,0,36.5468949758,-7.8794347751,1.970656204
 C,0,37.6639821429,-5.7353256665,1.5418626036
 C,0,37.629883866,-4.3620376376,1.0878949119
 C,0,38.9209957615,-3.9369258598,1.0645787195
 C,0,39.7233741848,-5.0479025654,1.5262263229
 C,0,41.0945800868,-4.989147358,1.6928881976
 H,0,41.5877451756,-4.0616085197,1.4450950316
 C,0,42.512122623,-9.23625899,3.4332935406
 H,0,43.450301774,-9.6463251027,3.7733416019
 C,0,38.045077244,-10.9282471503,2.8806240842
 H,0,37.577298441,-11.8984844725,2.9610538836
 C,0,36.5418843004,-6.5354753923,1.6379912984
 H,0,35.5929614557,-6.0882705981,1.3812258968
 C,0,45.0216939793,-7.4853090489,3.5177587952
 H,0,45.7234214922,-6.6558583131,3.4750952746
 H,0,45.4176920341,-8.2989358721,2.9099712774
 H,0,44.9634657905,-7.8326070058,4.5499465258
 C,0,44.0778576581,-4.6357375078,2.2757139097
 H,0,43.6468317871,-3.789215465,2.8107169663
 H,0,44.0945136076,-4.390620299,1.2137992107
 H,0,45.1037976278,-4.7660907063,2.6115301973
 C,0,42.6880827016,-12.1859893232,4.2350742281
 H,0,43.2354067973,-11.5504173107,4.9300872066
 H,0,43.3611620183,-12.448606443,3.4177505829
 H,0,42.4018708718,-13.0990694555,4.7518640084
 C,0,39.722725686,-13.3232371696,3.743588368
 H,0,38.7006307632,-13.406004118,4.0957313967
 C,0,40.4130944667,-14.4351221908,3.5122794638
 H,0,41.4127788484,-14.4176254399,3.1143110799
 H,0,39.9879174744,-15.4095586568,3.6884714372
 C,0,35.0306408559,-11.2478772631,2.3803718218
 H,0,35.4059335154,-11.8552651871,3.2030042636
 H,0,35.0854651241,-11.8467988902,1.4687311546
 H,0,33.9846025389,-11.0110432055,2.5719266168
 C,0,34.0530645583,-8.2860684231,1.5739378412
 H,0,33.8494045285,-7.2535976052,1.8306167969
 C,0,33.0829864018,-8.9975509363,1.0079622672
 H,0,33.222007097,-10.012091695,0.6833274465
 H,0,32.1106233401,-8.570555163,0.8272471706
 C,0,36.3877607915,-3.6261200408,0.7172804874
 H,0,35.7189403447,-3.5469784172,1.5736370741
 H,0,35.8558368834,-4.1465425013,-0.0790767258
 H,0,36.6225795392,-2.6224837183,0.3724539133
 C,0,39.4743516943,-2.6106273102,0.6682505319
 H,0,38.6867900959,-1.9526034668,0.3091072736
 H,0,40.2136783561,-2.7269999273,-0.1241036084
 H,0,39.9619288624,-2.1289564326,1.51651602
 C,0,39.3916855185,-5.1302914754,7.2844427681
 H,0,40.0061588276,-5.4939642709,8.108170307
 H,0,38.4165351762,-4.8525806987,7.6847112368
 H,0,39.8600855482,-4.24541212,6.8652966649
 N,0,38.7330110223,-7.4079262007,6.4709277093
 H,0,38.3998798372,-7.7411402959,7.3597838974
 C,0,39.2557923085,-6.165605112,6.2282234024
 C,0,38.7542310338,-8.0950328741,5.3056414065
 H,0,38.4031933776,-9.0997380494,5.196448768
 N,0,39.2579597927,-7.3651011789,4.3431852983
 C,0,39.5742115806,-6.1613990086,4.9010562754
 H,0,40.0046082221,-5.3808457538,4.3104088526
 C,0,41.5599727721,-10.0193208107,-2.3344924923
 H,0,41.7545901042,-9.3315384664,-3.1570566467
 H,0,41.0774602563,-10.9074691306,-2.7410700318
 H,0,42.5069812242,-10.309185505,-1.8917649632
 N,0,39.4446406104,-8.9189535024,-1.5766017313
 H,0,38.9777024407,-8.9741257933,-2.4666457724
 C,0,40.7064379256,-9.3766736808,-1.3039827804
 C,0,38.9485940127,-8.3833715752,-0.4379773931
 H,0,37.9755154247,-7.9450424352,-0.3582941339
 N,0,39.8171354146,-8.4761964466,0.5366494852
 C,0,40.9160048953,-9.0899527911,0.014022945
 H,0,41.7765887005,-9.2843189748,0.6184248254
 Recover connectivity data from disk.
 Stoichiometry    C38H40FeN8(1+,2)
 Framework group  C1[X(C38H40FeN8)]
 Deg. of freedom   255
 Full point group                 C1      NOp   1
 Largest Abelian subgroup         C1      NOp   1
 Largest concise Abelian subgroup C1      NOp   1
                         Standard orientation:                         
 ---------------------------------------------------------------------
 Center     Atomic      Atomic             Coordinates (Angstroms)
 Number     Number       Type             X           Y           Z
 ---------------------------------------------------------------------
      1         26           0       -0.146179    0.018399   -0.040434
      2          7           0       -1.677022   -1.250452    0.187498
      3          7           0        1.100726   -1.531516   -0.262301
      4          7           0        1.399668    1.295354   -0.241777
      5          7           0       -1.378424    1.561539    0.229521
      6          6           0       -2.969305   -0.927472    0.438666
      7          6           0       -3.804700   -2.109741    0.432071
      8          6           0       -2.978850   -3.156251    0.163934
      9          6           0       -1.651383   -2.599145    0.024453
     10          6           0        0.766830   -2.849386   -0.296035
     11          6           0        1.940163   -3.673617   -0.432801
     12          6           0        3.009436   -2.817629   -0.469145
     13          6           0        2.452999   -1.482295   -0.374032
     14          6           0        2.714679    0.963772   -0.366156
     15          6           0        3.539982    2.141229   -0.379809
     16          6           0        2.685524    3.212703   -0.290591
     17          6           0        1.350967    2.649883   -0.222588
     18          6           0       -1.062345    2.881853    0.166088
     19          6           0       -2.226245    3.699788    0.429692
     20          6           0       -3.249161    2.838308    0.674087
     21          6           0       -2.702041    1.507070    0.533864
     22          6           0       -3.450729    0.351249    0.656250
     23          1           0       -4.499642    0.458623    0.886887
     24          6           0       -0.519555   -3.355540   -0.206495
     25          1           0       -0.644663   -4.424154   -0.286373
     26          6           0        3.211261   -0.328659   -0.410853
     27          1           0        4.284355   -0.437202   -0.468597
     28          6           0        0.197264    3.399291   -0.066783
     29          1           0        0.295698    4.474756   -0.074497
     30          6           0       -3.304066   -4.605360    0.028786
     31          1           0       -4.375093   -4.770769    0.116950
     32          1           0       -2.803933   -5.188210    0.802325
     33          1           0       -2.977580   -4.981672   -0.941375
     34          6           0       -5.274257   -2.106117    0.681236
     35          1           0       -5.784735   -1.459936   -0.033238
     36          1           0       -5.491567   -1.738276    1.683978
     37          1           0       -5.684803   -3.108802    0.589628
     38          6           0        1.928508   -5.155553   -0.582878
     39          1           0        1.101442   -5.468985   -1.218709
     40          1           0        1.813740   -5.646059    0.384724
     41          1           0        2.859112   -5.494478   -1.032112
     42          6           0        4.417489   -3.122566   -0.596012
     43          1           0        5.008133   -2.397216   -1.144227
     44          6           0        5.023808   -4.190680   -0.088162
     45          1           0        4.500849   -4.918310    0.507759
     46          1           0        6.078642   -4.360348   -0.229173
     47          6           0        5.021397    2.151107   -0.526665
     48          1           0        5.351602    1.336170   -1.169574
     49          1           0        5.510939    2.033484    0.442518
     50          1           0        5.349429    3.093655   -0.963675
     51          6           0        2.970866    4.626964   -0.317489
     52          1           0        2.185185    5.243609   -0.736789
     53          6           0        4.078142    5.223914    0.112834
     54          1           0        4.881419    4.686730    0.582074
     55          1           0        4.205745    6.290285    0.028911
     56          6           0       -2.226912    5.190351    0.434502
     57          1           0       -1.956448    5.577134   -0.547424
     58          1           0       -1.506601    5.572670    1.157656
     59          1           0       -3.209669    5.574641    0.694964
     60          6           0       -4.671668    3.128816    1.012356
     61          1           0       -4.836618    4.198891    1.112174
     62          1           0       -4.946091    2.649118    1.951799
     63          1           0       -5.336160    2.751615    0.234240
     64          6           0       -2.474112    0.329381   -5.108383
     65          1           0       -2.475421   -0.565029   -5.731595
     66          1           0       -2.217768    1.181732   -5.737703
     67          1           0       -3.473349    0.478421   -4.711640
     68          7           0       -0.176588   -0.045937   -4.178976
     69          1           0        0.277959   -0.150770   -5.070307
     70          6           0       -1.511559    0.190898   -3.985772
     71          6           0        0.406487   -0.116792   -2.960180
     72          1           0        1.450234   -0.293188   -2.805068
     73          7           0       -0.476231    0.059664   -2.010161
     74          6           0       -1.674499    0.253174   -2.632128
     75          1           0       -2.564239    0.424516   -2.064347
     76          6           0        0.650859   -1.531774    5.279044
     77          1           0       -0.038564   -1.152602    6.033005
     78          1           0        1.661781   -1.467929    5.680156
     79          1           0        0.417574   -2.573615    5.086692
     80          7           0        0.778502    0.590130    3.959548
     81          1           0        1.065429    1.170945    4.729990
     82          6           0        0.529874   -0.755432    4.019631
     83          6           0        0.567546    0.988836    2.684438
     84          1           0        0.685225    1.997469    2.346539
     85          7           0        0.203483   -0.020848    1.935524
     86          6           0        0.173714   -1.112286    2.751139
     87          1           0       -0.098131   -2.074571    2.371940
 ---------------------------------------------------------------------
 Rotational constants (GHZ):           0.0760259           0.0758852           0.0583156
 General basis read from cards:  (5D, 7F)
 There are   806 symmetry adapted cartesian basis functions of A   symmetry.
 There are   757 symmetry adapted basis functions of A   symmetry.
   757 basis functions,  1534 primitive gaussians,   806 cartesian basis functions
   175 alpha electrons      174 beta electrons
       nuclear repulsion energy      7156.3171928319 Hartrees.
 NAtoms=   87 NActive=   87 NUniq=   87 SFac= 1.00D+00 NAtFMM=   60 NAOKFM=T Big=T
 Integral buffers will be    131072 words long.
 Raffenetti 2 integral format.
 Two-electron integral symmetry is turned on.
 R6APFD:  NTU= -4 IXU= 1 FactS= 1.050
 Nuclear repulsion after empirical dispersion term =     7156.1486318275 Hartrees.
 One-electron integrals computed using PRISM.
 NBasis=   757 RedAO= T EigKep=  2.50D-04  NBF=   757
 NBsUse=   757 1.00D-06 EigRej= -1.00D+00 NBFU=   757
 ExpMin= 4.20D-02 ExpMax= 3.01D+05 ExpMxC= 2.91D+03 IAcc=3 IRadAn=         5 AccDes= 0.00D+00
 Harris functional with IExCor= 3731 and IRadAn=       5 diagonalized for initial guess.
 HarFok:  IExCor= 3731 AccDes= 0.00D+00 IRadAn=         5 IDoV= 1 UseB2=F ITyADJ=14
 ICtDFT=  3500011 ScaDFX=  1.000000  1.000000  1.000000  1.000000
 FoFCou: FMM=F IPFlag=           0 FMFlag=      100000 FMFlg1=        2001
         NFxFlg=           0 DoJE=T BraDBF=F KetDBF=T FulRan=T
         wScrn=  0.000000 ICntrl=       500 IOpCl=  0 I1Cent=   200000004 NGrid=           0
         NMat0=    1 NMatS0=      1 NMatT0=    0 NMatD0=    1 NMtDS0=    0 NMtDT0=    0
 Petite list used in FoFCou.
 Initial guess <Sx>= 0.0000 <Sy>= 0.0000 <Sz>= 0.5000 <S**2>= 0.7500 S= 0.5000
 Requested convergence on RMS density matrix=1.00D-08 within 999 cycles.
 Requested convergence on MAX density matrix=1.00D-06.
 Requested convergence on             energy=1.00D-06.
 No special actions if energy rises.
 EnCoef did   100 forward-backward iterations
 EnCoef did   100 forward-backward iterations
 EnCoef did   100 forward-backward iterations
 EnCoef did   100 forward-backward iterations
 EnCoef did     2 forward-backward iterations
 Restarting incremental Fock formation.
 Rare condition: small coef for last iteration:  0.000D+00
 Rare condition: small coef for last iteration:  0.000D+00
 Rare condition: small coef for last iteration:  0.000D+00
 Rare condition: small coef for last iteration:  0.000D+00
 Restarting incremental Fock formation.
 Restarting incremental Fock formation.
 Restarting incremental Fock formation.
 Density matrix is not changing but DIIS error= 1.72D-06 CofLast= 4.92D-01.
 Restarting incremental Fock formation.
 Restarting incremental Fock formation.
 Restarting incremental Fock formation.
 SCF Done:  E(UAPFD) =  -3172.23188932     A.U. after  159 cycles
            NFock=159  Conv=0.22D-08     -V/T= 2.0039
 <Sx>= 0.0000 <Sy>= 0.0000 <Sz>= 0.5000 <S**2>= 0.7642 S= 0.5071
 <L.S>=  0.00000000000    
 Annihilation of the first spin contaminant:
 S**2 before annihilation     0.7642,   after     0.7501

 **********************************************************************

            Population analysis using the SCF Density.

 **********************************************************************

 Orbital symmetries:
 Alpha Orbitals:
       Occupied  (A) (A) (A) (A) (A) (A) (A) (A) (A) (A) (A) (A)
                 (A) (A) (A) (A) (A) (A) (A) (A) (A) (A) (A) (A)
                 (A) (A) (A) (A) (A) (A) (A) (A) (A) (A) (A) (A)
                 (A) (A) (A) (A) (A) (A) (A) (A) (A) (A) (A) (A)
                 (A) (A) (A) (A) (A) (A) (A) (A) (A) (A) (A) (A)
                 (A) (A) (A) (A) (A) (A) (A) (A) (A) (A) (A) (A)
                 (A) (A) (A) (A) (A) (A) (A) (A) (A) (A) (A) (A)
                 (A) (A) (A) (A) (A) (A) (A) (A) (A) (A) (A) (A)
                 (A) (A) (A) (A) (A) (A) (A) (A) (A) (A) (A) (A)
                 (A) (A) (A) (A) (A) (A) (A) (A) (A) (A) (A) (A)
                 (A) (A) (A) (A) (A) (A) (A) (A) (A) (A) (A) (A)
                 (A) (A) (A) (A) (A) (A) (A) (A) (A) (A) (A) (A)
                 (A) (A) (A) (A) (A) (A) (A) (A) (A) (A) (A) (A)
                 (A) (A) (A) (A) (A) (A) (A) (A) (A) (A) (A) (A)
                 (A) (A) (A) (A) (A) (A) (A)
       Virtual   (A) (A) (A) (A) (A) (A) (A) (A) (A) (A) (A) (A)
                 (A) (A) (A) (A) (A) (A) (A) (A) (A) (A) (A) (A)
                 (A) (A) (A) (A) (A) (A) (A) (A) (A) (A) (A) (A)
                 (A) (A) (A) (A) (A) (A) (A) (A) (A) (A) (A) (A)
                 (A) (A) (A) (A) (A) (A) (A) (A) (A) (A) (A) (A)
                 (A) (A) (A) (A) (A) (A) (A) (A) (A) (A) (A) (A)
                 (A) (A) (A) (A) (A) (A) (A) (A) (A) (A) (A) (A)
                 (A) (A) (A) (A) (A) (A) (A) (A) (A) (A) (A) (A)
                 (A) (A) (A) (A) (A) (A) (A) (A) (A) (A) (A) (A)
                 (A) (A) (A) (A) (A) (A) (A) (A) (A) (A) (A) (A)
                 (A) (A) (A) (A) (A) (A) (A) (A) (A) (A) (A) (A)
                 (A) (A) (A) (A) (A) (A) (A) (A) (A) (A) (A) (A)
                 (A) (A) (A) (A) (A) (A) (A) (A) (A) (A) (A) (A)
                 (A) (A) (A) (A) (A) (A) (A) (A) (A) (A) (A) (A)
                 (A) (A) (A) (A) (A) (A) (A) (A) (A) (A) (A) (A)
                 (A) (A) (A) (A) (A) (A) (A) (A) (A) (A) (A) (A)
                 (A) (A) (A) (A) (A) (A) (A) (A) (A) (A) (A) (A)
                 (A) (A) (A) (A) (A) (A) (A) (A) (A) (A) (A) (A)
                 (A) (A) (A) (A) (A) (A) (A) (A) (A) (A) (A) (A)
                 (A) (A) (A) (A) (A) (A) (A) (A) (A) (A) (A) (A)
                 (A) (A) (A) (A) (A) (A) (A) (A) (A) (A) (A) (A)
                 (A) (A) (A) (A) (A) (A) (A) (A) (A) (A) (A) (A)
                 (A) (A) (A) (A) (A) (A) (A) (A) (A) (A) (A) (A)
                 (A) (A) (A) (A) (A) (A) (A) (A) (A) (A) (A) (A)
                 (A) (A) (A) (A) (A) (A) (A) (A) (A) (A) (A) (A)
                 (A) (A) (A) (A) (A) (A) (A) (A) (A) (A) (A) (A)
                 (A) (A) (A) (A) (A) (A) (A) (A) (A) (A) (A) (A)
                 (A) (A) (A) (A) (A) (A) (A) (A) (A) (A) (A) (A)
                 (A) (A) (A) (A) (A) (A) (A) (A) (A) (A) (A) (A)
                 (A) (A) (A) (A) (A) (A) (A) (A) (A) (A) (A) (A)
                 (A) (A) (A) (A) (A) (A) (A) (A) (A) (A) (A) (A)
                 (A) (A) (A) (A) (A) (A) (A) (A) (A) (A) (A) (A)
                 (A) (A) (A) (A) (A) (A) (A) (A) (A) (A) (A) (A)
                 (A) (A) (A) (A) (A) (A) (A) (A) (A) (A) (A) (A)
                 (A) (A) (A) (A) (A) (A) (A) (A) (A) (A) (A) (A)
                 (A) (A) (A) (A) (A) (A) (A) (A) (A) (A) (A) (A)
                 (A) (A) (A) (A) (A) (A) (A) (A) (A) (A) (A) (A)
                 (A) (A) (A) (A) (A) (A) (A) (A) (A) (A) (A) (A)
                 (A) (A) (A) (A) (A) (A) (A) (A) (A) (A) (A) (A)
                 (A) (A) (A) (A) (A) (A) (A) (A) (A) (A) (A) (A)
                 (A) (A) (A) (A) (A) (A) (A) (A) (A) (A) (A) (A)
                 (A) (A) (A) (A) (A) (A) (A) (A) (A) (A) (A) (A)
                 (A) (A) (A) (A) (A) (A) (A) (A) (A) (A) (A) (A)
                 (A) (A) (A) (A) (A) (A) (A) (A) (A) (A) (A) (A)
                 (A) (A) (A) (A) (A) (A) (A) (A) (A) (A) (A) (A)
                 (A) (A) (A) (A) (A) (A) (A) (A) (A) (A) (A) (A)
                 (A) (A) (A) (A) (A) (A) (A) (A) (A) (A) (A) (A)
                 (A) (A) (A) (A) (A) (A) (A) (A) (A) (A) (A) (A)
                 (A) (A) (A) (A) (A) (A)
 Beta  Orbitals:
       Occupied  (A) (A) (A) (A) (A) (A) (A) (A) (A) (A) (A) (A)
                 (A) (A) (A) (A) (A) (A) (A) (A) (A) (A) (A) (A)
                 (A) (A) (A) (A) (A) (A) (A) (A) (A) (A) (A) (A)
                 (A) (A) (A) (A) (A) (A) (A) (A) (A) (A) (A) (A)
                 (A) (A) (A) (A) (A) (A) (A) (A) (A) (A) (A) (A)
                 (A) (A) (A) (A) (A) (A) (A) (A) (A) (A) (A) (A)
                 (A) (A) (A) (A) (A) (A) (A) (A) (A) (A) (A) (A)
                 (A) (A) (A) (A) (A) (A) (A) (A) (A) (A) (A) (A)
                 (A) (A) (A) (A) (A) (A) (A) (A) (A) (A) (A) (A)
                 (A) (A) (A) (A) (A) (A) (A) (A) (A) (A) (A) (A)
                 (A) (A) (A) (A) (A) (A) (A) (A) (A) (A) (A) (A)
                 (A) (A) (A) (A) (A) (A) (A) (A) (A) (A) (A) (A)
                 (A) (A) (A) (A) (A) (A) (A) (A) (A) (A) (A) (A)
                 (A) (A) (A) (A) (A) (A) (A) (A) (A) (A) (A) (A)
                 (A) (A) (A) (A) (A) (A)
       Virtual   (A) (A) (A) (A) (A) (A) (A) (A) (A) (A) (A) (A)
                 (A) (A) (A) (A) (A) (A) (A) (A) (A) (A) (A) (A)
                 (A) (A) (A) (A) (A) (A) (A) (A) (A) (A) (A) (A)
                 (A) (A) (A) (A) (A) (A) (A) (A) (A) (A) (A) (A)
                 (A) (A) (A) (A) (A) (A) (A) (A) (A) (A) (A) (A)
                 (A) (A) (A) (A) (A) (A) (A) (A) (A) (A) (A) (A)
                 (A) (A) (A) (A) (A) (A) (A) (A) (A) (A) (A) (A)
                 (A) (A) (A) (A) (A) (A) (A) (A) (A) (A) (A) (A)
                 (A) (A) (A) (A) (A) (A) (A) (A) (A) (A) (A) (A)
                 (A) (A) (A) (A) (A) (A) (A) (A) (A) (A) (A) (A)
                 (A) (A) (A) (A) (A) (A) (A) (A) (A) (A) (A) (A)
                 (A) (A) (A) (A) (A) (A) (A) (A) (A) (A) (A) (A)
                 (A) (A) (A) (A) (A) (A) (A) (A) (A) (A) (A) (A)
                 (A) (A) (A) (A) (A) (A) (A) (A) (A) (A) (A) (A)
                 (A) (A) (A) (A) (A) (A) (A) (A) (A) (A) (A) (A)
                 (A) (A) (A) (A) (A) (A) (A) (A) (A) (A) (A) (A)
                 (A) (A) (A) (A) (A) (A) (A) (A) (A) (A) (A) (A)
                 (A) (A) (A) (A) (A) (A) (A) (A) (A) (A) (A) (A)
                 (A) (A) (A) (A) (A) (A) (A) (A) (A) (A) (A) (A)
                 (A) (A) (A) (A) (A) (A) (A) (A) (A) (A) (A) (A)
                 (A) (A) (A) (A) (A) (A) (A) (A) (A) (A) (A) (A)
                 (A) (A) (A) (A) (A) (A) (A) (A) (A) (A) (A) (A)
                 (A) (A) (A) (A) (A) (A) (A) (A) (A) (A) (A) (A)
                 (A) (A) (A) (A) (A) (A) (A) (A) (A) (A) (A) (A)
                 (A) (A) (A) (A) (A) (A) (A) (A) (A) (A) (A) (A)
                 (A) (A) (A) (A) (A) (A) (A) (A) (A) (A) (A) (A)
                 (A) (A) (A) (A) (A) (A) (A) (A) (A) (A) (A) (A)
                 (A) (A) (A) (A) (A) (A) (A) (A) (A) (A) (A) (A)
                 (A) (A) (A) (A) (A) (A) (A) (A) (A) (A) (A) (A)
                 (A) (A) (A) (A) (A) (A) (A) (A) (A) (A) (A) (A)
                 (A) (A) (A) (A) (A) (A) (A) (A) (A) (A) (A) (A)
                 (A) (A) (A) (A) (A) (A) (A) (A) (A) (A) (A) (A)
                 (A) (A) (A) (A) (A) (A) (A) (A) (A) (A) (A) (A)
                 (A) (A) (A) (A) (A) (A) (A) (A) (A) (A) (A) (A)
                 (A) (A) (A) (A) (A) (A) (A) (A) (A) (A) (A) (A)
                 (A) (A) (A) (A) (A) (A) (A) (A) (A) (A) (A) (A)
                 (A) (A) (A) (A) (A) (A) (A) (A) (A) (A) (A) (A)
                 (A) (A) (A) (A) (A) (A) (A) (A) (A) (A) (A) (A)
                 (A) (A) (A) (A) (A) (A) (A) (A) (A) (A) (A) (A)
                 (A) (A) (A) (A) (A) (A) (A) (A) (A) (A) (A) (A)
                 (A) (A) (A) (A) (A) (A) (A) (A) (A) (A) (A) (A)
                 (A) (A) (A) (A) (A) (A) (A) (A) (A) (A) (A) (A)
                 (A) (A) (A) (A) (A) (A) (A) (A) (A) (A) (A) (A)
                 (A) (A) (A) (A) (A) (A) (A) (A) (A) (A) (A) (A)
                 (A) (A) (A) (A) (A) (A) (A) (A) (A) (A) (A) (A)
                 (A) (A) (A) (A) (A) (A) (A) (A) (A) (A) (A) (A)
                 (A) (A) (A) (A) (A) (A) (A) (A) (A) (A) (A) (A)
                 (A) (A) (A) (A) (A) (A) (A) (A) (A) (A) (A) (A)
                 (A) (A) (A) (A) (A) (A) (A)
 The electronic state is 2-A.
 Alpha  occ. eigenvalues -- -256.35980 -30.23084 -26.07709 -26.07580 -26.04761
 Alpha  occ. eigenvalues --  -14.52833 -14.52713 -14.48902 -14.48746 -14.46146
 Alpha  occ. eigenvalues --  -14.46060 -14.45566 -14.45412 -10.36796 -10.36638
 Alpha  occ. eigenvalues --  -10.34143 -10.34010 -10.32420 -10.32258 -10.32231
 Alpha  occ. eigenvalues --  -10.32220 -10.32177 -10.31978 -10.31931 -10.31880
 Alpha  occ. eigenvalues --  -10.31507 -10.31379 -10.29658 -10.29566 -10.29547
 Alpha  occ. eigenvalues --  -10.29377 -10.29298 -10.29293 -10.29272 -10.29239
 Alpha  occ. eigenvalues --  -10.29179 -10.29129 -10.29038 -10.28871 -10.28862
 Alpha  occ. eigenvalues --  -10.28803 -10.28778 -10.28512 -10.27638 -10.27636
 Alpha  occ. eigenvalues --  -10.27433 -10.27408 -10.27373 -10.27362 -10.27309
 Alpha  occ. eigenvalues --  -10.27106  -3.61643  -2.39816  -2.39553  -2.33649
 Alpha  occ. eigenvalues --   -1.15614  -1.15496  -1.07722  -1.06901  -1.06472
 Alpha  occ. eigenvalues --   -1.05697  -1.01374  -1.01203  -0.92325  -0.91228
 Alpha  occ. eigenvalues --   -0.90786  -0.90367  -0.89864  -0.89564  -0.89529
 Alpha  occ. eigenvalues --   -0.89495  -0.89398  -0.85795  -0.84593  -0.84058
 Alpha  occ. eigenvalues --   -0.83325  -0.82015  -0.81120  -0.81021  -0.80223
 Alpha  occ. eigenvalues --   -0.79285  -0.77618  -0.77382  -0.77048  -0.74700
 Alpha  occ. eigenvalues --   -0.74448  -0.74006  -0.73971  -0.71128  -0.71001
 Alpha  occ. eigenvalues --   -0.69746  -0.69126  -0.67572  -0.67009  -0.65706
 Alpha  occ. eigenvalues --   -0.65608  -0.64026  -0.63242  -0.62591  -0.62165
 Alpha  occ. eigenvalues --   -0.60781  -0.60630  -0.60254  -0.58109  -0.57815
 Alpha  occ. eigenvalues --   -0.57679  -0.57204  -0.57055  -0.56734  -0.56655
 Alpha  occ. eigenvalues --   -0.54693  -0.54027  -0.53853  -0.53614  -0.53084
 Alpha  occ. eigenvalues --   -0.53036  -0.52695  -0.52645  -0.52486  -0.52367
 Alpha  occ. eigenvalues --   -0.52255  -0.52071  -0.51979  -0.51670  -0.51200
 Alpha  occ. eigenvalues --   -0.51093  -0.51040  -0.50940  -0.50667  -0.50225
 Alpha  occ. eigenvalues --   -0.49926  -0.49614  -0.49395  -0.49297  -0.49182
 Alpha  occ. eigenvalues --   -0.49033  -0.48741  -0.48421  -0.48304  -0.48101
 Alpha  occ. eigenvalues --   -0.47753  -0.47518  -0.47096  -0.46929  -0.46730
 Alpha  occ. eigenvalues --   -0.46319  -0.46120  -0.45532  -0.45166  -0.44588
 Alpha  occ. eigenvalues --   -0.44484  -0.44323  -0.43777  -0.43381  -0.42669
 Alpha  occ. eigenvalues --   -0.42202  -0.41719  -0.41293  -0.40849  -0.40328
 Alpha  occ. eigenvalues --   -0.39117  -0.38444  -0.38304  -0.37660  -0.37518
 Alpha  occ. eigenvalues --   -0.36099  -0.35818  -0.33371  -0.33270  -0.32419
 Alpha  occ. eigenvalues --   -0.31710  -0.31100  -0.30470  -0.28074  -0.27506
 Alpha virt. eigenvalues --   -0.16186  -0.16104  -0.14903  -0.12150  -0.10611
 Alpha virt. eigenvalues --   -0.07588  -0.07349  -0.07053  -0.05758  -0.03436
 Alpha virt. eigenvalues --   -0.03362  -0.03145  -0.00858  -0.00609  -0.00470
 Alpha virt. eigenvalues --    0.00230   0.01372   0.01966   0.02622   0.02766
 Alpha virt. eigenvalues --    0.03699   0.04042   0.04383   0.04530   0.04636
 Alpha virt. eigenvalues --    0.05180   0.05625   0.05727   0.06041   0.06320
 Alpha virt. eigenvalues --    0.06634   0.06677   0.07094   0.07166   0.07447
 Alpha virt. eigenvalues --    0.07773   0.07986   0.08286   0.08593   0.09122
 Alpha virt. eigenvalues --    0.09286   0.09482   0.09614   0.09944   0.10279
 Alpha virt. eigenvalues --    0.10286   0.10381   0.10438   0.10669   0.10894
 Alpha virt. eigenvalues --    0.10969   0.11329   0.11929   0.12570   0.12749
 Alpha virt. eigenvalues --    0.13018   0.13252   0.13379   0.13714   0.14049
 Alpha virt. eigenvalues --    0.14277   0.14413   0.14622   0.15233   0.16005
 Alpha virt. eigenvalues --    0.16065   0.16812   0.17288   0.17362   0.17996
 Alpha virt. eigenvalues --    0.18029   0.18196   0.18305   0.18808   0.18961
 Alpha virt. eigenvalues --    0.20604   0.21207   0.21647   0.21912   0.22687
 Alpha virt. eigenvalues --    0.22945   0.23741   0.24362   0.25171   0.25909
 Alpha virt. eigenvalues --    0.26614   0.26704   0.26880   0.27776   0.28062
 Alpha virt. eigenvalues --    0.29472   0.29854   0.30739   0.31788   0.32300
 Alpha virt. eigenvalues --    0.32687   0.32994   0.33359   0.33989   0.34860
 Alpha virt. eigenvalues --    0.35003   0.35578   0.36581   0.37668   0.38933
 Alpha virt. eigenvalues --    0.39180   0.39231   0.39451   0.40423   0.40743
 Alpha virt. eigenvalues --    0.41456   0.41716   0.41982   0.42220   0.42820
 Alpha virt. eigenvalues --    0.43067   0.43266   0.43677   0.43853   0.44053
 Alpha virt. eigenvalues --    0.44475   0.44657   0.44820   0.45062   0.45267
 Alpha virt. eigenvalues --    0.45842   0.45945   0.46344   0.46999   0.47230
 Alpha virt. eigenvalues --    0.47502   0.47856   0.48402   0.48554   0.48718
 Alpha virt. eigenvalues --    0.49160   0.49484   0.50393   0.51104   0.51223
 Alpha virt. eigenvalues --    0.51502   0.51603   0.51940   0.52294   0.52799
 Alpha virt. eigenvalues --    0.53240   0.53527   0.54018   0.54212   0.54420
 Alpha virt. eigenvalues --    0.54681   0.55537   0.55799   0.56370   0.56660
 Alpha virt. eigenvalues --    0.56901   0.57121   0.57493   0.57795   0.58069
 Alpha virt. eigenvalues --    0.58202   0.58316   0.58810   0.58924   0.59212
 Alpha virt. eigenvalues --    0.59349   0.60098   0.60653   0.61355   0.62064
 Alpha virt. eigenvalues --    0.62583   0.62783   0.63166   0.63628   0.63757
 Alpha virt. eigenvalues --    0.64388   0.64599   0.64833   0.65326   0.65465
 Alpha virt. eigenvalues --    0.66278   0.67006   0.67445   0.67744   0.68013
 Alpha virt. eigenvalues --    0.68482   0.68767   0.69309   0.69531   0.69905
 Alpha virt. eigenvalues --    0.70183   0.70282   0.70916   0.71247   0.71563
 Alpha virt. eigenvalues --    0.71834   0.72249   0.72325   0.73191   0.73713
 Alpha virt. eigenvalues --    0.74410   0.74870   0.75213   0.76312   0.76830
 Alpha virt. eigenvalues --    0.76963   0.77037   0.77717   0.77927   0.78151
 Alpha virt. eigenvalues --    0.78576   0.78976   0.79334   0.79497   0.80000
 Alpha virt. eigenvalues --    0.80220   0.80388   0.80684   0.80945   0.81156
 Alpha virt. eigenvalues --    0.81778   0.81790   0.82208   0.82479   0.82803
 Alpha virt. eigenvalues --    0.83003   0.83519   0.83780   0.84013   0.84546
 Alpha virt. eigenvalues --    0.84965   0.85330   0.85450   0.85672   0.86027
 Alpha virt. eigenvalues --    0.86739   0.87154   0.87862   0.88099   0.88221
 Alpha virt. eigenvalues --    0.88338   0.88778   0.89126   0.89489   0.90262
 Alpha virt. eigenvalues --    0.90566   0.90854   0.91239   0.91641   0.91681
 Alpha virt. eigenvalues --    0.91835   0.92176   0.92503   0.92669   0.93133
 Alpha virt. eigenvalues --    0.94139   0.94378   0.95022   0.95249   0.95694
 Alpha virt. eigenvalues --    0.96298   0.96564   0.97407   0.98183   0.98714
 Alpha virt. eigenvalues --    0.99003   0.99820   1.00548   1.00831   1.01600
 Alpha virt. eigenvalues --    1.01730   1.02611   1.03702   1.04800   1.04870
 Alpha virt. eigenvalues --    1.06540   1.07051   1.07337   1.07982   1.08588
 Alpha virt. eigenvalues --    1.09145   1.09640   1.09999   1.10320   1.11076
 Alpha virt. eigenvalues --    1.11342   1.11698   1.12027   1.12472   1.13403
 Alpha virt. eigenvalues --    1.13938   1.14738   1.15195   1.15742   1.16107
 Alpha virt. eigenvalues --    1.17259   1.17866   1.18400   1.18792   1.19815
 Alpha virt. eigenvalues --    1.20421   1.20554   1.21221   1.21834   1.22134
 Alpha virt. eigenvalues --    1.22535   1.22690   1.23081   1.24264   1.25028
 Alpha virt. eigenvalues --    1.25571   1.26312   1.26590   1.26828   1.27266
 Alpha virt. eigenvalues --    1.27798   1.28337   1.28707   1.29083   1.29288
 Alpha virt. eigenvalues --    1.29702   1.29846   1.30430   1.31038   1.32186
 Alpha virt. eigenvalues --    1.32878   1.32950   1.33815   1.34420   1.35392
 Alpha virt. eigenvalues --    1.35616   1.35986   1.36470   1.37291   1.38316
 Alpha virt. eigenvalues --    1.39336   1.40042   1.40648   1.41020   1.41708
 Alpha virt. eigenvalues --    1.41896   1.43280   1.43791   1.43807   1.45198
 Alpha virt. eigenvalues --    1.45683   1.45699   1.45811   1.46088   1.46678
 Alpha virt. eigenvalues --    1.48269   1.48823   1.49857   1.50752   1.52082
 Alpha virt. eigenvalues --    1.52891   1.54241   1.54461   1.55319   1.55472
 Alpha virt. eigenvalues --    1.56146   1.58053   1.58802   1.59363   1.60692
 Alpha virt. eigenvalues --    1.61337   1.61678   1.62890   1.63786   1.65032
 Alpha virt. eigenvalues --    1.67099   1.67439   1.70098   1.71297   1.71636
 Alpha virt. eigenvalues --    1.72060   1.72186   1.72856   1.72965   1.73335
 Alpha virt. eigenvalues --    1.73747   1.74350   1.74494   1.75191   1.75782
 Alpha virt. eigenvalues --    1.75892   1.76509   1.76710   1.77497   1.77933
 Alpha virt. eigenvalues --    1.78151   1.79144   1.79380   1.79537   1.80359
 Alpha virt. eigenvalues --    1.80569   1.81305   1.81617   1.81823   1.82678
 Alpha virt. eigenvalues --    1.82733   1.84449   1.85035   1.86029   1.86238
 Alpha virt. eigenvalues --    1.87187   1.87517   1.87644   1.87847   1.88309
 Alpha virt. eigenvalues --    1.88872   1.89499   1.91086   1.91505   1.91750
 Alpha virt. eigenvalues --    1.92292   1.93311   1.93835   1.95011   1.95356
 Alpha virt. eigenvalues --    1.96511   1.96842   1.96986   1.97412   1.97763
 Alpha virt. eigenvalues --    1.98747   1.99337   1.99377   1.99939   2.00601
 Alpha virt. eigenvalues --    2.00805   2.02552   2.02881   2.03377   2.03505
 Alpha virt. eigenvalues --    2.03916   2.04776   2.05498   2.06101   2.06585
 Alpha virt. eigenvalues --    2.06780   2.07381   2.07877   2.08541   2.10203
 Alpha virt. eigenvalues --    2.10525   2.12094   2.12926   2.13198   2.13598
 Alpha virt. eigenvalues --    2.13825   2.14403   2.14814   2.15337   2.16417
 Alpha virt. eigenvalues --    2.16670   2.17411   2.17804   2.18108   2.18346
 Alpha virt. eigenvalues --    2.18574   2.18771   2.19384   2.19751   2.20441
 Alpha virt. eigenvalues --    2.20611   2.21653   2.21854   2.21949   2.22112
 Alpha virt. eigenvalues --    2.23098   2.23418   2.23790   2.24564   2.26017
 Alpha virt. eigenvalues --    2.26203   2.26913   2.27210   2.27384   2.27929
 Alpha virt. eigenvalues --    2.28167   2.28603   2.29149   2.29712   2.29982
 Alpha virt. eigenvalues --    2.30287   2.30689   2.31139   2.31485   2.32599
 Alpha virt. eigenvalues --    2.33025   2.33345   2.34146   2.34791   2.35319
 Alpha virt. eigenvalues --    2.35379   2.35694   2.35958   2.36646   2.39111
 Alpha virt. eigenvalues --    2.39256   2.40092   2.40381   2.43101   2.43631
 Alpha virt. eigenvalues --    2.44111   2.44624   2.45031   2.45222   2.45467
 Alpha virt. eigenvalues --    2.45958   2.47045   2.47810   2.48462   2.49078
 Alpha virt. eigenvalues --    2.49833   2.50354   2.51635   2.51715   2.52261
 Alpha virt. eigenvalues --    2.53945   2.54636   2.55971   2.57776   2.59172
 Alpha virt. eigenvalues --    2.60432   2.60437   2.60620   2.61395   2.63199
 Alpha virt. eigenvalues --    2.63998   2.66119   2.66483   2.67275   2.67712
 Alpha virt. eigenvalues --    2.68099   2.69581   2.71334   2.71560   2.72436
 Alpha virt. eigenvalues --    2.72995   2.78422   2.78693   2.79509   2.81057
 Alpha virt. eigenvalues --    2.81242   2.83385   2.85153   2.85566   2.87210
 Alpha virt. eigenvalues --    2.88378   2.88723   2.90483   2.90878   2.91642
 Alpha virt. eigenvalues --    2.92815   2.95104   2.96552   2.97417   2.98672
 Alpha virt. eigenvalues --    2.99492   3.00969   3.04136   3.05593   3.06394
 Alpha virt. eigenvalues --    3.06742   3.12321   3.14606   3.16857   3.21688
 Alpha virt. eigenvalues --    3.21903   3.30359   3.30750   3.32123   3.38195
 Alpha virt. eigenvalues --    3.38317   3.56723   3.60756   3.81009   3.97341
 Alpha virt. eigenvalues --    4.13409   4.18829
  Beta  occ. eigenvalues -- -256.35944 -30.20911 -26.05348 -26.05198 -26.04064
  Beta  occ. eigenvalues --  -14.52832 -14.52710 -14.48952 -14.48797 -14.46190
  Beta  occ. eigenvalues --  -14.46097 -14.45616 -14.45465 -10.36786 -10.36624
  Beta  occ. eigenvalues --  -10.34144 -10.34011 -10.32415 -10.32251 -10.32223
  Beta  occ. eigenvalues --  -10.32215 -10.32176 -10.31978 -10.31927 -10.31877
  Beta  occ. eigenvalues --  -10.31503 -10.31379 -10.29658 -10.29552 -10.29547
  Beta  occ. eigenvalues --  -10.29358 -10.29281 -10.29275 -10.29273 -10.29242
  Beta  occ. eigenvalues --  -10.29185 -10.29133 -10.29045 -10.28873 -10.28865
  Beta  occ. eigenvalues --  -10.28806 -10.28785 -10.28512 -10.27639 -10.27638
  Beta  occ. eigenvalues --  -10.27420 -10.27410 -10.27374 -10.27363 -10.27309
  Beta  occ. eigenvalues --  -10.27106  -3.56368  -2.32444  -2.32128  -2.31642
  Beta  occ. eigenvalues --   -1.15620  -1.15500  -1.07736  -1.06893  -1.06518
  Beta  occ. eigenvalues --   -1.05719  -1.01396  -1.01227  -0.92325  -0.91207
  Beta  occ. eigenvalues --   -0.90796  -0.90343  -0.89870  -0.89574  -0.89530
  Beta  occ. eigenvalues --   -0.89496  -0.89397  -0.85791  -0.84591  -0.84069
  Beta  occ. eigenvalues --   -0.83321  -0.82013  -0.81114  -0.81019  -0.80223
  Beta  occ. eigenvalues --   -0.79289  -0.77624  -0.77386  -0.77064  -0.74704
  Beta  occ. eigenvalues --   -0.74465  -0.74005  -0.73968  -0.71124  -0.71000
  Beta  occ. eigenvalues --   -0.69744  -0.69130  -0.67566  -0.67007  -0.65691
  Beta  occ. eigenvalues --   -0.65607  -0.64028  -0.63250  -0.62594  -0.62164
  Beta  occ. eigenvalues --   -0.60793  -0.60651  -0.60269  -0.58091  -0.57803
  Beta  occ. eigenvalues --   -0.57659  -0.57166  -0.57047  -0.56698  -0.56614
  Beta  occ. eigenvalues --   -0.54692  -0.53996  -0.53766  -0.53605  -0.53064
  Beta  occ. eigenvalues --   -0.53021  -0.52611  -0.52588  -0.52458  -0.52367
  Beta  occ. eigenvalues --   -0.52234  -0.52055  -0.51974  -0.51651  -0.51169
  Beta  occ. eigenvalues --   -0.51058  -0.51025  -0.50907  -0.50622  -0.50227
  Beta  occ. eigenvalues --   -0.49910  -0.49606  -0.49352  -0.49269  -0.49178
  Beta  occ. eigenvalues --   -0.48789  -0.48592  -0.48422  -0.48253  -0.48040
  Beta  occ. eigenvalues --   -0.47728  -0.47481  -0.46974  -0.46866  -0.46663
  Beta  occ. eigenvalues --   -0.46219  -0.45993  -0.45453  -0.45067  -0.44475
  Beta  occ. eigenvalues --   -0.44432  -0.43778  -0.43318  -0.42727  -0.42060
  Beta  occ. eigenvalues --   -0.41747  -0.41467  -0.41131  -0.40252  -0.39517
  Beta  occ. eigenvalues --   -0.38486  -0.38258  -0.36775  -0.36324  -0.35134
  Beta  occ. eigenvalues --   -0.35102  -0.33440  -0.33306  -0.32611  -0.31650
  Beta  occ. eigenvalues --   -0.31147  -0.30253  -0.28117  -0.27438
  Beta virt. eigenvalues --   -0.18924  -0.16035  -0.14947  -0.12986  -0.10564
  Beta virt. eigenvalues --   -0.09116  -0.07360  -0.07197  -0.07004  -0.05719
  Beta virt. eigenvalues --   -0.03405  -0.03235  -0.03064  -0.00811  -0.00568
  Beta virt. eigenvalues --   -0.00374   0.00350   0.01375   0.02032   0.02622
  Beta virt. eigenvalues --    0.02766   0.03702   0.04050   0.04393   0.04538
  Beta virt. eigenvalues --    0.04639   0.05200   0.05631   0.05787   0.06071
  Beta virt. eigenvalues --    0.06328   0.06644   0.06691   0.07105   0.07184
  Beta virt. eigenvalues --    0.07483   0.07788   0.07993   0.08293   0.08599
  Beta virt. eigenvalues --    0.09126   0.09296   0.09489   0.09626   0.09958
  Beta virt. eigenvalues --    0.10283   0.10298   0.10383   0.10459   0.10682
  Beta virt. eigenvalues --    0.10902   0.10979   0.11343   0.11941   0.12580
  Beta virt. eigenvalues --    0.12769   0.13041   0.13258   0.13395   0.13727
  Beta virt. eigenvalues --    0.14068   0.14280   0.14455   0.14636   0.15255
  Beta virt. eigenvalues --    0.16026   0.16080   0.16813   0.17303   0.17388
  Beta virt. eigenvalues --    0.17999   0.18051   0.18204   0.18322   0.18823
  Beta virt. eigenvalues --    0.18965   0.20636   0.21238   0.21713   0.21947
  Beta virt. eigenvalues --    0.22803   0.23135   0.23784   0.24405   0.25332
  Beta virt. eigenvalues --    0.25948   0.26646   0.26734   0.26940   0.27788
  Beta virt. eigenvalues --    0.28066   0.29523   0.29876   0.30785   0.31870
  Beta virt. eigenvalues --    0.32378   0.32780   0.33087   0.33464   0.34009
  Beta virt. eigenvalues --    0.34872   0.35027   0.35599   0.36957   0.37892
  Beta virt. eigenvalues --    0.38995   0.39234   0.39270   0.39468   0.40488
  Beta virt. eigenvalues --    0.40763   0.41533   0.41797   0.42028   0.42254
  Beta virt. eigenvalues --    0.42843   0.43083   0.43299   0.43695   0.43866
  Beta virt. eigenvalues --    0.44051   0.44519   0.44715   0.44850   0.45153
  Beta virt. eigenvalues --    0.45295   0.45879   0.45970   0.46379   0.47035
  Beta virt. eigenvalues --    0.47267   0.47579   0.47967   0.48454   0.48569
  Beta virt. eigenvalues --    0.48751   0.49174   0.49489   0.50435   0.51133
  Beta virt. eigenvalues --    0.51266   0.51519   0.51625   0.51968   0.52384
  Beta virt. eigenvalues --    0.52806   0.53242   0.53564   0.54028   0.54230
  Beta virt. eigenvalues --    0.54433   0.54703   0.55547   0.55829   0.56383
  Beta virt. eigenvalues --    0.56674   0.57020   0.57152   0.57546   0.57802
  Beta virt. eigenvalues --    0.58091   0.58219   0.58400   0.58815   0.59008
  Beta virt. eigenvalues --    0.59220   0.59381   0.60113   0.60692   0.61369
  Beta virt. eigenvalues --    0.62108   0.62681   0.62839   0.63216   0.63663
  Beta virt. eigenvalues --    0.63891   0.64468   0.64716   0.64857   0.65422
  Beta virt. eigenvalues --    0.65543   0.66306   0.67016   0.67457   0.67770
  Beta virt. eigenvalues --    0.68083   0.68528   0.68797   0.69325   0.69553
  Beta virt. eigenvalues --    0.69970   0.70223   0.70320   0.70945   0.71261
  Beta virt. eigenvalues --    0.71581   0.71874   0.72383   0.72578   0.73286
  Beta virt. eigenvalues --    0.73734   0.74432   0.74952   0.75247   0.76317
  Beta virt. eigenvalues --    0.76843   0.77003   0.77052   0.77731   0.77951
  Beta virt. eigenvalues --    0.78161   0.78586   0.78994   0.79349   0.79547
  Beta virt. eigenvalues --    0.80007   0.80275   0.80402   0.80691   0.81013
  Beta virt. eigenvalues --    0.81305   0.81803   0.81833   0.82232   0.82496
  Beta virt. eigenvalues --    0.82811   0.83015   0.83533   0.83825   0.84033
  Beta virt. eigenvalues --    0.84562   0.84998   0.85426   0.85499   0.85677
  Beta virt. eigenvalues --    0.86068   0.86757   0.87244   0.87909   0.88133
  Beta virt. eigenvalues --    0.88234   0.88571   0.88792   0.89238   0.89516
  Beta virt. eigenvalues --    0.90296   0.90590   0.90883   0.91253   0.91687
  Beta virt. eigenvalues --    0.91721   0.91883   0.92322   0.92525   0.92765
  Beta virt. eigenvalues --    0.93175   0.94145   0.94403   0.95166   0.95266
  Beta virt. eigenvalues --    0.95781   0.96376   0.96574   0.97435   0.98192
  Beta virt. eigenvalues --    0.98733   0.99028   0.99835   1.00614   1.00860
  Beta virt. eigenvalues --    1.01663   1.01761   1.02658   1.03714   1.04845
  Beta virt. eigenvalues --    1.04972   1.06552   1.07053   1.07368   1.08051
  Beta virt. eigenvalues --    1.08624   1.09171   1.09657   1.10035   1.10354
  Beta virt. eigenvalues --    1.11100   1.11363   1.11723   1.12045   1.12484
  Beta virt. eigenvalues --    1.13423   1.13944   1.14767   1.15247   1.16032
  Beta virt. eigenvalues --    1.16153   1.17515   1.17892   1.18478   1.18821
  Beta virt. eigenvalues --    1.19857   1.20477   1.20577   1.21277   1.21895
  Beta virt. eigenvalues --    1.22151   1.22574   1.22711   1.23098   1.24275
  Beta virt. eigenvalues --    1.25053   1.25589   1.26378   1.26626   1.26927
  Beta virt. eigenvalues --    1.27300   1.27812   1.28354   1.28729   1.29093
  Beta virt. eigenvalues --    1.29297   1.29745   1.29906   1.30495   1.31059
  Beta virt. eigenvalues --    1.32236   1.32949   1.32967   1.33882   1.34476
  Beta virt. eigenvalues --    1.35415   1.35620   1.35985   1.36487   1.37290
  Beta virt. eigenvalues --    1.38320   1.39348   1.40044   1.40648   1.41047
  Beta virt. eigenvalues --    1.41755   1.41916   1.43288   1.43787   1.43800
  Beta virt. eigenvalues --    1.45189   1.45691   1.45695   1.45825   1.46083
  Beta virt. eigenvalues --    1.46685   1.48314   1.48853   1.49884   1.50759
  Beta virt. eigenvalues --    1.52132   1.52896   1.54322   1.54705   1.55321
  Beta virt. eigenvalues --    1.55477   1.56184   1.58060   1.59073   1.59583
  Beta virt. eigenvalues --    1.60716   1.61354   1.61696   1.62947   1.63823
  Beta virt. eigenvalues --    1.65056   1.67109   1.67458   1.70099   1.71309
  Beta virt. eigenvalues --    1.71653   1.72065   1.72214   1.72868   1.73006
  Beta virt. eigenvalues --    1.73365   1.73848   1.74371   1.74513   1.75189
  Beta virt. eigenvalues --    1.75785   1.75895   1.76505   1.76699   1.77492
  Beta virt. eigenvalues --    1.77936   1.78143   1.79136   1.79385   1.79537
  Beta virt. eigenvalues --    1.80362   1.80575   1.81308   1.81634   1.81817
  Beta virt. eigenvalues --    1.82687   1.82767   1.84494   1.85103   1.86074
  Beta virt. eigenvalues --    1.86254   1.87249   1.87527   1.87684   1.87866
  Beta virt. eigenvalues --    1.88348   1.88921   1.89564   1.91231   1.91564
  Beta virt. eigenvalues --    1.91817   1.92324   1.93438   1.93903   1.95085
  Beta virt. eigenvalues --    1.95383   1.96527   1.96886   1.97079   1.97486
  Beta virt. eigenvalues --    1.97948   1.98827   1.99361   1.99453   2.00032
  Beta virt. eigenvalues --    2.00708   2.00853   2.02566   2.02899   2.03408
  Beta virt. eigenvalues --    2.03527   2.03933   2.04811   2.05532   2.06103
  Beta virt. eigenvalues --    2.06587   2.06796   2.07399   2.07894   2.08547
  Beta virt. eigenvalues --    2.10222   2.10575   2.12130   2.12958   2.13219
  Beta virt. eigenvalues --    2.13616   2.13879   2.14556   2.14966   2.15363
  Beta virt. eigenvalues --    2.16431   2.16691   2.17442   2.17816   2.18159
  Beta virt. eigenvalues --    2.18360   2.18588   2.18903   2.19500   2.19881
  Beta virt. eigenvalues --    2.20457   2.20821   2.21695   2.21853   2.21965
  Beta virt. eigenvalues --    2.22130   2.23114   2.23556   2.24385   2.24819
  Beta virt. eigenvalues --    2.26039   2.26315   2.26976   2.27267   2.27410
  Beta virt. eigenvalues --    2.28215   2.28291   2.28649   2.29245   2.29828
  Beta virt. eigenvalues --    2.30000   2.30330   2.30733   2.31189   2.31549
  Beta virt. eigenvalues --    2.32635   2.33051   2.33388   2.34176   2.34827
  Beta virt. eigenvalues --    2.35333   2.35400   2.35739   2.35993   2.36676
  Beta virt. eigenvalues --    2.39175   2.39307   2.40109   2.40395   2.43329
  Beta virt. eigenvalues --    2.43691   2.44138   2.44664   2.45095   2.45340
  Beta virt. eigenvalues --    2.45843   2.46117   2.47090   2.47866   2.48505
  Beta virt. eigenvalues --    2.49181   2.49903   2.50352   2.51682   2.51770
  Beta virt. eigenvalues --    2.52373   2.53967   2.54671   2.55972   2.57786
  Beta virt. eigenvalues --    2.59196   2.60447   2.60467   2.60661   2.61506
  Beta virt. eigenvalues --    2.63234   2.64000   2.66139   2.66497   2.67289
  Beta virt. eigenvalues --    2.67785   2.68125   2.69589   2.71374   2.71565
  Beta virt. eigenvalues --    2.72441   2.72993   2.78416   2.78688   2.79523
  Beta virt. eigenvalues --    2.81082   2.81247   2.83413   2.85161   2.85608
  Beta virt. eigenvalues --    2.87212   2.88380   2.88720   2.90473   2.90875
  Beta virt. eigenvalues --    2.91662   2.92816   2.95188   2.96536   2.97411
  Beta virt. eigenvalues --    2.98757   2.99538   3.01093   3.04127   3.05615
  Beta virt. eigenvalues --    3.06405   3.06751   3.12313   3.14626   3.16958
  Beta virt. eigenvalues --    3.21696   3.21904   3.30345   3.30743   3.32191
  Beta virt. eigenvalues --    3.38180   3.38329   3.62350   3.64411   3.82555
  Beta virt. eigenvalues --    3.99760   4.14652   4.20590
          Condensed to atoms (all electrons):
          Atomic-Atomic Spin Densities.
 Mulliken charges and spin densities:
               1          2
     1  Fe   0.815740   1.071195
     2  N   -0.630097  -0.024750
     3  N   -0.659629  -0.027384
     4  N   -0.629881  -0.023248
     5  N   -0.657333  -0.025226
     6  C    0.309286   0.004605
     7  C    0.035803  -0.001163
     8  C    0.038258  -0.000916
     9  C    0.307821   0.003710
    10  C    0.308400   0.005502
    11  C    0.038126   0.009093
    12  C    0.004961   0.013574
    13  C    0.309770   0.003301
    14  C    0.301073   0.001584
    15  C    0.038386  -0.001285
    16  C    0.002617  -0.001504
    17  C    0.290532   0.002539
    18  C    0.313134   0.003632
    19  C    0.038300   0.012842
    20  C    0.037592   0.010060
    21  C    0.312745   0.006180
    22  C   -0.306439  -0.005273
    23  H    0.185949   0.000223
    24  C   -0.305009  -0.002798
    25  H    0.186193   0.000119
    26  C   -0.308348  -0.001753
    27  H    0.187224   0.000080
    28  C   -0.306839  -0.003823
    29  H    0.185874   0.000170
    30  C   -0.610623  -0.000075
    31  H    0.200780  -0.000107
    32  H    0.199815   0.000017
    33  H    0.199300   0.000026
    34  C   -0.610287  -0.000044
    35  H    0.196631   0.000012
    36  H    0.202079   0.000013
    37  H    0.200656  -0.000109
    38  C   -0.613586  -0.001135
    39  H    0.195293   0.000488
    40  H    0.202396   0.000753
    41  H    0.209706   0.000010
    42  C   -0.152288  -0.005913
    43  H    0.174642   0.000486
    44  C   -0.391196   0.009274
    45  H    0.186295  -0.000460
    46  H    0.190605  -0.000455
    47  C   -0.613083  -0.000038
    48  H    0.189376  -0.000033
    49  H    0.203182   0.000001
    50  H    0.209124  -0.000068
    51  C   -0.150443   0.000010
    52  H    0.176007  -0.000019
    53  C   -0.399552   0.000104
    54  H    0.184012  -0.000002
    55  H    0.188706  -0.000032
    56  C   -0.611056  -0.001398
    57  H    0.204637   0.000821
    58  H    0.199702   0.000786
    59  H    0.201727  -0.000074
    60  C   -0.610576  -0.001180
    61  H    0.201484  -0.000077
    62  H    0.202417   0.000652
    63  H    0.201102   0.000736
    64  C   -0.602218  -0.000038
    65  H    0.210450   0.000043
    66  H    0.212304  -0.000054
    67  H    0.218660  -0.000014
    68  N   -0.631829   0.000908
    69  H    0.384127  -0.000198
    70  C    0.281222  -0.000317
    71  C    0.256037   0.007108
    72  H    0.232268  -0.000484
    73  N   -0.430657  -0.024983
    74  C   -0.042452   0.001930
    75  H    0.208567  -0.000249
    76  C   -0.602369  -0.000115
    77  H    0.211325   0.000054
    78  H    0.210732  -0.000075
    79  H    0.218647  -0.000015
    80  N   -0.631899   0.001391
    81  H    0.383612  -0.000169
    82  C    0.280339  -0.000567
    83  C    0.257099   0.008966
    84  H    0.233701  -0.000576
    85  N   -0.424882  -0.025668
    86  C   -0.042269   0.001077
    87  H    0.208288  -0.000210
 Sum of Mulliken charges =   1.00000   1.00000
 Mulliken charges and spin densities with hydrogens summed into heavy atoms:
               1          2
     1  Fe   0.815740   1.071195
     2  N   -0.630097  -0.024750
     3  N   -0.659629  -0.027384
     4  N   -0.629881  -0.023248
     5  N   -0.657333  -0.025226
     6  C    0.309286   0.004605
     7  C    0.035803  -0.001163
     8  C    0.038258  -0.000916
     9  C    0.307821   0.003710
    10  C    0.308400   0.005502
    11  C    0.038126   0.009093
    12  C    0.004961   0.013574
    13  C    0.309770   0.003301
    14  C    0.301073   0.001584
    15  C    0.038386  -0.001285
    16  C    0.002617  -0.001504
    17  C    0.290532   0.002539
    18  C    0.313134   0.003632
    19  C    0.038300   0.012842
    20  C    0.037592   0.010060
    21  C    0.312745   0.006180
    22  C   -0.120490  -0.005050
    24  C   -0.118816  -0.002679
    26  C   -0.121124  -0.001672
    28  C   -0.120965  -0.003653
    30  C   -0.010727  -0.000139
    34  C   -0.010920  -0.000128
    38  C   -0.006190   0.000116
    42  C    0.022353  -0.005428
    44  C   -0.014296   0.008359
    47  C   -0.011401  -0.000138
    51  C    0.025564  -0.000010
    53  C   -0.026833   0.000070
    56  C   -0.004990   0.000135
    60  C   -0.005573   0.000131
    64  C    0.039197  -0.000064
    68  N   -0.247703   0.000710
    70  C    0.281222  -0.000317
    71  C    0.488305   0.006624
    73  N   -0.430657  -0.024983
    74  C    0.166115   0.001682
    76  C    0.038336  -0.000151
    80  N   -0.248287   0.001222
    82  C    0.280339  -0.000567
    83  C    0.490800   0.008390
    85  N   -0.424882  -0.025668
    86  C    0.166018   0.000867
 Electronic spatial extent (au):  <R**2>=          22440.1070
 Charge=              1.0000 electrons
 Dipole moment (field-independent basis, Debye):
    X=             -0.2702    Y=              0.2656    Z=             -0.0158  Tot=              0.3792
 Quadrupole moment (field-independent basis, Debye-Ang):
   XX=           -219.6400   YY=           -220.5826   ZZ=           -198.1427
   XY=             -1.5553   XZ=              6.2605   YZ=              3.7282
 Traceless Quadrupole moment (field-independent basis, Debye-Ang):
   XX=             -6.8516   YY=             -7.7942   ZZ=             14.6457
   XY=             -1.5553   XZ=              6.2605   YZ=              3.7282
 Octapole moment (field-independent basis, Debye-Ang**2):
  XXX=            -16.9202  YYY=              8.0162  ZZZ=            -22.2646  XYY=              6.6608
  XXY=              0.2800  XXZ=             -7.3788  XZZ=              4.9613  YZZ=              4.5240
  YYZ=             33.9614  XYZ=              7.9589
 Hexadecapole moment (field-independent basis, Debye-Ang**3):
 XXXX=         -10626.9991 YYYY=         -10562.0286 ZZZZ=          -4093.9065 XXXY=            -45.9047
 XXXZ=            -65.8143 YYYX=            -11.8287 YYYZ=            -15.1929 ZZZX=            354.6482
 ZZZY=             26.6171 XXYY=          -3386.6884 XXZZ=          -2954.5574 YYZZ=          -3026.7162
 XXYZ=             50.7084 YYXZ=             13.7499 ZZXY=             -6.7973
 N-N= 7.156148631827D+03 E-N=-2.172286163270D+04  KE= 3.159918889069D+03
                          Isotropic Fermi Contact Couplings
        Atom                 a.u.       MegaHertz       Gauss      10(-4) cm-1
     1  Fe(57)             0.11819      17.14285       6.11699       5.71824
     2  N(14)             -0.02156      -6.96647      -2.48581      -2.32376
     3  N(14)             -0.02285      -7.38160      -2.63394      -2.46224
     4  N(14)             -0.02096      -6.77170      -2.41631      -2.25880
     5  N(14)             -0.02176      -7.03162      -2.50906      -2.34549
     6  C(13)             -0.00025      -0.28375      -0.10125      -0.09465
     7  C(13)             -0.00079      -0.88618      -0.31621      -0.29560
     8  C(13)             -0.00071      -0.80163      -0.28604      -0.26739
     9  C(13)             -0.00032      -0.36525      -0.13033      -0.12184
    10  C(13)             -0.00013      -0.14403      -0.05139      -0.04804
    11  C(13)              0.00046       0.52229       0.18637       0.17422
    12  C(13)              0.00112       1.25814       0.44894       0.41967
    13  C(13)             -0.00054      -0.60520      -0.21595      -0.20187
    14  C(13)             -0.00063      -0.70889      -0.25295      -0.23646
    15  C(13)             -0.00072      -0.80902      -0.28868      -0.26986
    16  C(13)             -0.00081      -0.91563      -0.32672      -0.30542
    17  C(13)             -0.00057      -0.63779      -0.22758      -0.21274
    18  C(13)             -0.00050      -0.56636      -0.20209      -0.18892
    19  C(13)              0.00103       1.15340       0.41156       0.38473
    20  C(13)              0.00061       0.68521       0.24450       0.22856
    21  C(13)             -0.00005      -0.05570      -0.01988      -0.01858
    22  C(13)             -0.00096      -1.07829      -0.38476      -0.35968
    23  H(1)               0.00008       0.36302       0.12954       0.12109
    24  C(13)             -0.00062      -0.69424      -0.24772      -0.23157
    25  H(1)               0.00004       0.19750       0.07047       0.06588
    26  C(13)             -0.00044      -0.49408      -0.17630      -0.16481
    27  H(1)               0.00004       0.17421       0.06216       0.05811
    28  C(13)             -0.00071      -0.80200      -0.28617      -0.26752
    29  H(1)               0.00006       0.28668       0.10229       0.09563
    30  C(13)             -0.00005      -0.06052      -0.02159      -0.02019
    31  H(1)              -0.00005      -0.20179      -0.07200      -0.06731
    32  H(1)               0.00002       0.07734       0.02760       0.02580
    33  H(1)               0.00002       0.09817       0.03503       0.03275
    34  C(13)             -0.00005      -0.05299      -0.01891      -0.01767
    35  H(1)               0.00002       0.09533       0.03402       0.03180
    36  H(1)               0.00002       0.09164       0.03270       0.03057
    37  H(1)              -0.00005      -0.20554      -0.07334      -0.06856
    38  C(13)             -0.00045      -0.50938      -0.18176      -0.16991
    39  H(1)               0.00019       0.85425       0.30482       0.28495
    40  H(1)               0.00037       1.64447       0.58679       0.54853
    41  H(1)              -0.00001      -0.03404      -0.01215      -0.01135
    42  C(13)             -0.00116      -1.30828      -0.46683      -0.43640
    43  H(1)               0.00017       0.77939       0.27810       0.25998
    44  C(13)              0.00131       1.47684       0.52697       0.49262
    45  H(1)              -0.00014      -0.62775      -0.22400      -0.20940
    46  H(1)              -0.00015      -0.65184      -0.23259      -0.21743
    47  C(13)             -0.00004      -0.04015      -0.01433      -0.01339
    48  H(1)              -0.00001      -0.05380      -0.01920      -0.01794
    49  H(1)               0.00000       0.01717       0.00613       0.00573
    50  H(1)              -0.00002      -0.11065      -0.03948      -0.03691
    51  C(13)             -0.00004      -0.04730      -0.01688      -0.01578
    52  H(1)              -0.00000      -0.00950      -0.00339      -0.00317
    53  C(13)             -0.00005      -0.05230      -0.01866      -0.01745
    54  H(1)              -0.00000      -0.00203      -0.00073      -0.00068
    55  H(1)              -0.00001      -0.05620      -0.02005      -0.01875
    56  C(13)             -0.00056      -0.63395      -0.22621      -0.21146
    57  H(1)               0.00039       1.73529       0.61920       0.57883
    58  H(1)               0.00036       1.61774       0.57725       0.53962
    59  H(1)              -0.00003      -0.15558      -0.05551      -0.05190
    60  C(13)             -0.00048      -0.54468      -0.19436      -0.18169
    61  H(1)              -0.00003      -0.15594      -0.05564      -0.05202
    62  H(1)               0.00030       1.32423       0.47252       0.44172
    63  H(1)               0.00034       1.53019       0.54601       0.51042
    64  C(13)              0.00000       0.00240       0.00086       0.00080
    65  H(1)               0.00003       0.12104       0.04319       0.04037
    66  H(1)              -0.00001      -0.06524      -0.02328      -0.02176
    67  H(1)              -0.00001      -0.02763      -0.00986      -0.00921
    68  N(14)             -0.00092      -0.29623      -0.10570      -0.09881
    69  H(1)              -0.00009      -0.41556      -0.14828      -0.13862
    70  C(13)             -0.00057      -0.63996      -0.22835      -0.21347
    71  C(13)              0.00023       0.25386       0.09058       0.08468
    72  H(1)              -0.00019      -0.83597      -0.29830      -0.27885
    73  N(14)             -0.02328      -7.52231      -2.68415      -2.50917
    74  C(13)              0.00083       0.92871       0.33139       0.30979
    75  H(1)              -0.00012      -0.52479      -0.18726      -0.17505
    76  C(13)             -0.00007      -0.08325      -0.02970      -0.02777
    77  H(1)               0.00004       0.16682       0.05953       0.05565
    78  H(1)              -0.00002      -0.10241      -0.03654      -0.03416
    79  H(1)              -0.00001      -0.04086      -0.01458      -0.01363
    80  N(14)             -0.00058      -0.18874      -0.06735      -0.06296
    81  H(1)              -0.00008      -0.34684      -0.12376      -0.11569
    82  C(13)             -0.00073      -0.82003      -0.29261      -0.27353
    83  C(13)              0.00127       1.42736       0.50932       0.47612
    84  H(1)              -0.00022      -0.99685      -0.35570      -0.33251
    85  N(14)             -0.02353      -7.60408      -2.71332      -2.53645
    86  C(13)             -0.00030      -0.34012      -0.12136      -0.11345
    87  H(1)              -0.00010      -0.43326      -0.15460      -0.14452
 --------------------------------------------------------
       Center         ----  Spin Dipole Couplings  ----
                      3XX-RR        3YY-RR        3ZZ-RR
 --------------------------------------------------------
     1   Atom       -0.901708     -0.267000      1.168708
     2   Atom       -0.002462      0.000279      0.002183
     3   Atom       -0.004386     -0.004718      0.009104
     4   Atom       -0.003228     -0.000235      0.003463
     5   Atom       -0.005960     -0.007855      0.013816
     6   Atom        0.003749     -0.004327      0.000578
     7   Atom        0.001864     -0.001128     -0.000736
     8   Atom       -0.000787      0.001308     -0.000520
     9   Atom       -0.001820      0.001656      0.000164
    10   Atom       -0.006598      0.003594      0.003003
    11   Atom       -0.007389     -0.004021      0.011410
    12   Atom       -0.006582     -0.008761      0.015342
    13   Atom        0.001484     -0.003522      0.002037
    14   Atom        0.005050     -0.003152     -0.001898
    15   Atom        0.002092     -0.000867     -0.001225
    16   Atom       -0.000320      0.001594     -0.001274
    17   Atom       -0.001289      0.002416     -0.001127
    18   Atom       -0.005568      0.003976      0.001592
    19   Atom       -0.008110     -0.005822      0.013932
    20   Atom       -0.004197     -0.007506      0.011703
    21   Atom        0.000160     -0.004966      0.004805
    22   Atom        0.008459     -0.001474     -0.006985
    23   Atom        0.002606     -0.001183     -0.001423
    24   Atom       -0.002531      0.007741     -0.005210
    25   Atom       -0.001252      0.002854     -0.001602
    26   Atom        0.007566     -0.003064     -0.004503
    27   Atom        0.002943     -0.001404     -0.001539
    28   Atom       -0.001959      0.008507     -0.006548
    29   Atom       -0.001195      0.002769     -0.001574
    30   Atom        0.000012      0.000616     -0.000628
    31   Atom        0.000175      0.000340     -0.000516
    32   Atom       -0.000219      0.000853     -0.000634
    33   Atom       -0.000160      0.000838     -0.000677
    34   Atom        0.000921     -0.000364     -0.000557
    35   Atom        0.001243     -0.000538     -0.000705
    36   Atom        0.000983     -0.000466     -0.000517
    37   Atom        0.000642     -0.000142     -0.000499
    38   Atom       -0.000589      0.001290     -0.000701
    39   Atom       -0.000678      0.001436     -0.000758
    40   Atom       -0.000576      0.001302     -0.000726
    41   Atom       -0.000300      0.000973     -0.000673
    42   Atom        0.002885      0.000451     -0.003336
    43   Atom        0.001226     -0.000408     -0.000819
    44   Atom       -0.003585     -0.000183      0.003769
    45   Atom        0.000051      0.000460     -0.000511
    46   Atom        0.000981     -0.000439     -0.000541
    47   Atom        0.000934     -0.000336     -0.000598
    48   Atom        0.001207     -0.000565     -0.000642
    49   Atom        0.001010     -0.000380     -0.000630
    50   Atom        0.000628     -0.000134     -0.000494
    51   Atom        0.000013      0.000588     -0.000601
    52   Atom       -0.000303      0.000989     -0.000686
    53   Atom        0.000149      0.000261     -0.000410
    54   Atom        0.000259      0.000152     -0.000412
    55   Atom        0.000006      0.000313     -0.000319
    56   Atom       -0.000691      0.001279     -0.000588
    57   Atom       -0.000660      0.001401     -0.000741
    58   Atom       -0.000674      0.001426     -0.000752
    59   Atom       -0.000368      0.001047     -0.000680
    60   Atom        0.000908     -0.000356     -0.000552
    61   Atom        0.000592      0.000024     -0.000616
    62   Atom        0.000929     -0.000432     -0.000497
    63   Atom        0.001237     -0.000418     -0.000819
    64   Atom       -0.000362     -0.000740      0.001101
    65   Atom       -0.000332     -0.000600      0.000932
    66   Atom       -0.000406     -0.000559      0.000964
    67   Atom       -0.000001     -0.000739      0.000739
    68   Atom       -0.003990      0.002920      0.001070
    69   Atom       -0.001227     -0.001083      0.002311
    70   Atom       -0.001288     -0.001389      0.002676
    71   Atom       -0.007694      0.000307      0.007387
    72   Atom       -0.000679     -0.004226      0.004905
    73   Atom       -0.001049     -0.004996      0.006045
    74   Atom       -0.000667     -0.005374      0.006041
    75   Atom        0.003349     -0.004312      0.000964
    76   Atom       -0.000644     -0.000543      0.001187
    77   Atom       -0.000619     -0.000508      0.001128
    78   Atom       -0.000491     -0.000477      0.000968
    79   Atom       -0.000716     -0.000297      0.001012
    80   Atom        0.003464     -0.003647      0.000183
    81   Atom       -0.000948     -0.000988      0.001936
    82   Atom       -0.001796     -0.001202      0.002998
    83   Atom        0.005798     -0.009262      0.003463
    84   Atom       -0.003246      0.001018      0.002228
    85   Atom       -0.005223      0.001039      0.004183
    86   Atom       -0.004051     -0.004170      0.008221
    87   Atom       -0.004279      0.001135      0.003144
 --------------------------------------------------------
                        XY            XZ            YZ
 --------------------------------------------------------
     1   Atom       -1.911580      0.550207      0.465479
     2   Atom       -0.005717      0.000022      0.000516
     3   Atom       -0.000423      0.002600      0.001700
     4   Atom       -0.005403     -0.001273     -0.000974
     5   Atom       -0.000953      0.006936      0.000380
     6   Atom        0.004580      0.000020     -0.001959
     7   Atom        0.001211     -0.000653     -0.000620
     8   Atom        0.001862     -0.000411     -0.000393
     9   Atom        0.006023      0.000649     -0.000720
    10   Atom       -0.004720      0.000624     -0.002294
    11   Atom       -0.001315      0.001999     -0.001626
    12   Atom       -0.001766      0.001543      0.000207
    13   Atom       -0.006000     -0.003431      0.001610
    14   Atom        0.004686     -0.000446     -0.000921
    15   Atom        0.001316     -0.000595     -0.000486
    16   Atom        0.001775     -0.000446     -0.000331
    17   Atom        0.005983     -0.000326     -0.000436
    18   Atom       -0.004737      0.001475     -0.000347
    19   Atom       -0.001101      0.005474      0.000326
    20   Atom       -0.001629      0.004050      0.000624
    21   Atom       -0.005915     -0.000804      0.001510
    22   Atom       -0.000570     -0.003435      0.000483
    23   Atom       -0.000231     -0.000905      0.000068
    24   Atom        0.001518     -0.000126      0.000690
    25   Atom        0.000652      0.000010      0.000206
    26   Atom       -0.000757     -0.001208      0.000181
    27   Atom       -0.000268     -0.000449      0.000041
    28   Atom        0.001442     -0.000624     -0.000154
    29   Atom        0.000543     -0.000070     -0.000064
    30   Atom        0.000976     -0.000041     -0.000098
    31   Atom        0.000792     -0.000027     -0.000040
    32   Atom        0.000824     -0.000140     -0.000244
    33   Atom        0.000906      0.000160      0.000252
    34   Atom        0.000770     -0.000251     -0.000136
    35   Atom        0.000551     -0.000021      0.000002
    36   Atom        0.000581     -0.000520     -0.000186
    37   Atom        0.000683     -0.000133     -0.000082
    38   Atom       -0.000591     -0.000013      0.000107
    39   Atom       -0.000292     -0.000041      0.000506
    40   Atom       -0.000484      0.000012     -0.000243
    41   Atom       -0.000737     -0.000084      0.000348
    42   Atom       -0.001782     -0.000979     -0.002608
    43   Atom       -0.000923     -0.000331      0.000127
    44   Atom        0.000157      0.001181      0.006226
    45   Atom       -0.000349     -0.000058     -0.000287
    46   Atom       -0.000588     -0.000093      0.000276
    47   Atom        0.000756     -0.000194     -0.000094
    48   Atom        0.000531     -0.000379     -0.000116
    49   Atom        0.000621      0.000116      0.000062
    50   Atom        0.000672     -0.000193     -0.000099
    51   Atom        0.001012     -0.000075     -0.000140
    52   Atom        0.000828     -0.000125     -0.000225
    53   Atom        0.000608     -0.000179     -0.000029
    54   Atom        0.000616      0.000070      0.000058
    55   Atom        0.000448     -0.000005      0.000004
    56   Atom       -0.000587      0.000020      0.000122
    57   Atom       -0.000472     -0.000006     -0.000332
    58   Atom       -0.000271     -0.000028      0.000482
    59   Atom       -0.000823     -0.000080      0.000202
    60   Atom       -0.000909     -0.000362      0.000227
    61   Atom       -0.001001     -0.000322      0.000241
    62   Atom       -0.000711     -0.000781      0.000259
    63   Atom       -0.000769     -0.000046      0.000068
    64   Atom       -0.000036      0.000907     -0.000047
    65   Atom        0.000055      0.000655      0.000166
    66   Atom       -0.000143      0.000575     -0.000321
    67   Atom       -0.000107      0.001056     -0.000117
    68   Atom       -0.000043     -0.000771     -0.001893
    69   Atom       -0.000099     -0.000409      0.000128
    70   Atom       -0.000582      0.001830      0.000708
    71   Atom        0.005188     -0.003588     -0.004267
    72   Atom       -0.000555     -0.005495      0.000655
    73   Atom       -0.004028      0.000745      0.000239
    74   Atom        0.000888      0.007735      0.000314
    75   Atom       -0.001215      0.006547     -0.000754
    76   Atom       -0.000077      0.000145     -0.000558
    77   Atom       -0.000010      0.000017     -0.000367
    78   Atom       -0.000155      0.000492     -0.000418
    79   Atom       -0.000100      0.000158     -0.000860
    80   Atom       -0.002006      0.000203      0.001130
    81   Atom        0.000151      0.000840      0.000945
    82   Atom       -0.000799     -0.000444     -0.001021
    83   Atom        0.000331      0.003026      0.004354
    84   Atom        0.002177      0.002640      0.005586
    85   Atom       -0.001606      0.001967      0.001297
    86   Atom        0.000877     -0.001000     -0.004471
    87   Atom       -0.000006     -0.000209     -0.006394
 --------------------------------------------------------


 ---------------------------------------------------------------------------------
              Anisotropic Spin Dipole Couplings in Principal Axis System
 ---------------------------------------------------------------------------------

       Atom             a.u.   MegaHertz   Gauss  10(-4) cm-1        Axes

              Baa    -2.6578   -46.015   -16.419   -15.349  0.7497  0.6354 -0.1851
     1 Fe(57) Bbb     1.3044    22.583     8.058     7.533  0.1321  0.1304  0.9826
              Bcc     1.3534    23.431     8.361     7.816 -0.6485  0.7611 -0.0138
 
              Baa    -0.0070    -0.269    -0.096    -0.090  0.7839  0.6198 -0.0368
     2 N(14)  Bbb     0.0021     0.082     0.029     0.027  0.1191 -0.0920  0.9886
              Bcc     0.0048     0.187     0.067     0.062 -0.6093  0.7794  0.1460
 
              Baa    -0.0056    -0.216    -0.077    -0.072  0.6761  0.7088 -0.2014
     3 N(14)  Bbb    -0.0042    -0.160    -0.057    -0.054  0.7154 -0.6969 -0.0510
              Bcc     0.0098     0.377     0.134     0.126  0.1765  0.1097  0.9782
 
              Baa    -0.0076    -0.292    -0.104    -0.097  0.7876  0.5992  0.1438
     4 N(14)  Bbb     0.0037     0.143     0.051     0.048 -0.1292 -0.0676  0.9893
              Bcc     0.0039     0.149     0.053     0.050 -0.6025  0.7978 -0.0241
 
              Baa    -0.0090    -0.349    -0.124    -0.116  0.7202  0.6547 -0.2295
     5 N(14)  Bbb    -0.0070    -0.269    -0.096    -0.090 -0.6251  0.7559  0.1948
[...]
    28 C(13)  Bbb    -0.0021    -0.278    -0.099    -0.093  0.9819 -0.1357 -0.1324
              Bcc     0.0087     1.168     0.417     0.390  0.1349  0.9907 -0.0155
 
              Baa    -0.0016    -0.847    -0.302    -0.282  0.1888 -0.0090  0.9820
    29 H(1)   Bbb    -0.0013    -0.670    -0.239    -0.224  0.9729 -0.1342 -0.1883
              Bcc     0.0028     1.517     0.541     0.506  0.1335  0.9909 -0.0165
 
              Baa    -0.0007    -0.096    -0.034    -0.032  0.7607 -0.5790 -0.2936
    30 C(13)  Bbb    -0.0006    -0.084    -0.030    -0.028  0.2666 -0.1338  0.9545
              Bcc     0.0013     0.180     0.064     0.060  0.5919  0.8043 -0.0526
 
              Baa    -0.0005    -0.288    -0.103    -0.096  0.7066 -0.6485 -0.2831
    31 H(1)   Bbb    -0.0005    -0.275    -0.098    -0.092  0.2301 -0.1677  0.9586
              Bcc     0.0011     0.563     0.201     0.188  0.6691  0.7425 -0.0307
 
              Baa    -0.0007    -0.362    -0.129    -0.121  0.4820 -0.1212  0.8677
    32 H(1)   Bbb    -0.0007    -0.353    -0.126    -0.118  0.7378 -0.4780 -0.4766
              Bcc     0.0013     0.715     0.255     0.238  0.4725  0.8700 -0.1410
 
              Baa    -0.0007    -0.386    -0.138    -0.129 -0.3386  0.0447  0.9399
    33 H(1)   Bbb    -0.0007    -0.370    -0.132    -0.123  0.7945 -0.5215  0.3110
              Bcc     0.0014     0.755     0.269     0.252  0.5041  0.8521  0.1411
 
              Baa    -0.0007    -0.097    -0.035    -0.033 -0.4041  0.9059  0.1269
    34 C(13)  Bbb    -0.0006    -0.080    -0.029    -0.027  0.1891 -0.0530  0.9805
              Bcc     0.0013     0.178     0.063     0.059  0.8950  0.4202 -0.1499
 
              Baa    -0.0007    -0.378    -0.135    -0.126  0.1336 -0.4401  0.8880
    35 H(1)   Bbb    -0.0007    -0.369    -0.132    -0.123 -0.2388  0.8553  0.4598
              Bcc     0.0014     0.747     0.267     0.249  0.9618  0.2735 -0.0092
 
              Baa    -0.0007    -0.364    -0.130    -0.121  0.1577  0.3683  0.9162
    36 H(1)   Bbb    -0.0007    -0.357    -0.127    -0.119 -0.3960  0.8736 -0.2830
              Bcc     0.0014     0.721     0.257     0.240  0.9046  0.3182 -0.2836
 
              Baa    -0.0005    -0.287    -0.103    -0.096 -0.4767  0.8597  0.1834
    37 H(1)   Bbb    -0.0005    -0.274    -0.098    -0.092  0.1777 -0.1101  0.9779
              Bcc     0.0011     0.562     0.200     0.187  0.8609  0.4988 -0.1003
 
              Baa    -0.0008    -0.103    -0.037    -0.034  0.9166  0.2787 -0.2867
    38 C(13)  Bbb    -0.0007    -0.094    -0.034    -0.031  0.2889  0.0343  0.9568
              Bcc     0.0015     0.197     0.070     0.066 -0.2764  0.9598  0.0491
 
              Baa    -0.0009    -0.465    -0.166    -0.155 -0.1372 -0.2285  0.9638
    39 H(1)   Bbb    -0.0007    -0.380    -0.136    -0.127  0.9821  0.0951  0.1624
              Bcc     0.0016     0.846     0.302     0.282 -0.1288  0.9689  0.2114
 
              Baa    -0.0008    -0.414    -0.148    -0.138  0.4378  0.2040  0.8756
    40 H(1)   Bbb    -0.0007    -0.357    -0.127    -0.119  0.8687  0.1552 -0.4705
              Bcc     0.0014     0.771     0.275     0.257 -0.2319  0.9666 -0.1093
 
              Baa    -0.0008    -0.410    -0.146    -0.137 -0.3540 -0.3251  0.8769
    41 H(1)   Bbb    -0.0006    -0.322    -0.115    -0.107  0.8430  0.2952  0.4497
              Bcc     0.0014     0.731     0.261     0.244 -0.4050  0.8984  0.1696
 
              Baa    -0.0050    -0.675    -0.241    -0.225  0.2125  0.4753  0.8538
    42 C(13)  Bbb     0.0012     0.159     0.057     0.053  0.4593  0.7226 -0.5166
              Bcc     0.0038     0.516     0.184     0.172  0.8625 -0.5019  0.0647
 
              Baa    -0.0009    -0.468    -0.167    -0.156  0.2658  0.2736  0.9244
    43 H(1)   Bbb    -0.0008    -0.435    -0.155    -0.145  0.3367  0.8721 -0.3550
              Bcc     0.0017     0.903     0.322     0.301  0.9033 -0.4056 -0.1397
 
              Baa    -0.0050    -0.669    -0.239    -0.223  0.3968  0.7219 -0.5669
    44 C(13)  Bbb    -0.0034    -0.460    -0.164    -0.154  0.9138 -0.3692  0.1694
              Bcc     0.0084     1.129     0.403     0.377  0.0870  0.5853  0.8062
 
              Baa    -0.0006    -0.334    -0.119    -0.112  0.2432  0.3202  0.9156
    45 H(1)   Bbb    -0.0001    -0.040    -0.014    -0.013  0.8584  0.3685 -0.3569
              Bcc     0.0007     0.374     0.133     0.125 -0.4516  0.8728 -0.1852
 
              Baa    -0.0008    -0.447    -0.159    -0.149  0.2093  0.7469 -0.6312
    46 H(1)   Bbb    -0.0004    -0.199    -0.071    -0.067  0.2982  0.5660  0.7686
              Bcc     0.0012     0.646     0.231     0.216  0.9313 -0.3491 -0.1043
 
              Baa    -0.0007    -0.092    -0.033    -0.031 -0.4163  0.9077  0.0533
    47 C(13)  Bbb    -0.0006    -0.083    -0.030    -0.028  0.1241 -0.0014  0.9923
              Bcc     0.0013     0.176     0.063     0.059  0.9007  0.4197 -0.1121
 
              Baa    -0.0007    -0.387    -0.138    -0.129 -0.0216  0.6316  0.7750
    48 H(1)   Bbb    -0.0007    -0.376    -0.134    -0.125 -0.3222  0.7294 -0.6034
              Bcc     0.0014     0.763     0.272     0.254  0.9464  0.2627 -0.1878
 
              Baa    -0.0006    -0.345    -0.123    -0.115  0.1122 -0.4637  0.8789
    49 H(1)   Bbb    -0.0006    -0.325    -0.116    -0.108 -0.3451  0.8112  0.4721
              Bcc     0.0013     0.670     0.239     0.223  0.9318  0.3563  0.0690
 
              Baa    -0.0005    -0.286    -0.102    -0.095  0.4420 -0.5665  0.6954
    50 H(1)   Bbb    -0.0005    -0.274    -0.098    -0.091 -0.2671  0.6570  0.7050
              Bcc     0.0010     0.560     0.200     0.187  0.8563  0.4974 -0.1391
 
              Baa    -0.0008    -0.101    -0.036    -0.034  0.7786 -0.6039 -0.1704
    51 C(13)  Bbb    -0.0006    -0.082    -0.029    -0.027  0.1836 -0.0405  0.9822
              Bcc     0.0014     0.183     0.065     0.061  0.6001  0.7960 -0.0793
 
              Baa    -0.0007    -0.388    -0.138    -0.129  0.5460 -0.1555  0.8232
    52 H(1)   Bbb    -0.0007    -0.372    -0.133    -0.124  0.7153 -0.4250 -0.5547
              Bcc     0.0014     0.760     0.271     0.253  0.4361  0.8917 -0.1208
 
              Baa    -0.0005    -0.071    -0.025    -0.024  0.5500 -0.3962  0.7352
    53 C(13)  Bbb    -0.0003    -0.041    -0.015    -0.014 -0.4892  0.5607  0.6681
              Bcc     0.0008     0.112     0.040     0.037  0.6769  0.7271 -0.1146
 
              Baa    -0.0004    -0.225    -0.080    -0.075 -0.3656  0.3038  0.8798
    54 H(1)   Bbb    -0.0004    -0.219    -0.078    -0.073 -0.5707  0.6736 -0.4697
              Bcc     0.0008     0.443     0.158     0.148  0.7353  0.6738  0.0729
 
              Baa    -0.0003    -0.172    -0.061    -0.057  0.4615 -0.3295  0.8236
    55 H(1)   Bbb    -0.0003    -0.165    -0.059    -0.055  0.6704 -0.4785 -0.5671
              Bcc     0.0006     0.337     0.120     0.113  0.5810  0.8139  0.0001
 
              Baa    -0.0009    -0.116    -0.041    -0.039  0.9443  0.2694 -0.1890
    56 C(13)  Bbb    -0.0006    -0.078    -0.028    -0.026  0.1969 -0.0024  0.9804
              Bcc     0.0014     0.194     0.069     0.065 -0.2637  0.9630  0.0553
 
              Baa    -0.0009    -0.455    -0.162    -0.152  0.6156  0.2396  0.7507
    57 H(1)   Bbb    -0.0007    -0.372    -0.133    -0.124  0.7605  0.0690 -0.6457
              Bcc     0.0015     0.827     0.295     0.276 -0.2066  0.9684 -0.1397
 
              Baa    -0.0009    -0.458    -0.164    -0.153 -0.1819 -0.2237  0.9575
    58 H(1)   Bbb    -0.0007    -0.374    -0.134    -0.125  0.9759  0.0780  0.2036
              Bcc     0.0016     0.833     0.297     0.278 -0.1202  0.9715  0.2041
 
              Baa    -0.0007    -0.399    -0.142    -0.133  0.8706  0.4265 -0.2454
    59 H(1)   Bbb    -0.0007    -0.373    -0.133    -0.124  0.2652  0.0134  0.9641
              Bcc     0.0014     0.772     0.275     0.257 -0.4145  0.9044  0.1014
 
              Baa    -0.0008    -0.112    -0.040    -0.037  0.4291  0.8885 -0.1629
    60 C(13)  Bbb    -0.0006    -0.085    -0.030    -0.028  0.2574  0.0526  0.9649
              Bcc     0.0015     0.198     0.070     0.066  0.8658 -0.4559 -0.2061
 
              Baa    -0.0007    -0.391    -0.139    -0.130  0.6095  0.7913  0.0482
    61 H(1)   Bbb    -0.0007    -0.371    -0.132    -0.124  0.1241 -0.1553  0.9800
              Bcc     0.0014     0.762     0.272     0.254  0.7830 -0.5914 -0.1929
 
              Baa    -0.0009    -0.457    -0.163    -0.153  0.4797  0.2987  0.8250
    62 H(1)   Bbb    -0.0007    -0.375    -0.134    -0.125  0.1817  0.8861 -0.4265
              Bcc     0.0016     0.832     0.297     0.278  0.8584 -0.3544 -0.3707
 
              Baa    -0.0008    -0.448    -0.160    -0.149 -0.1088 -0.3494  0.9306
    63 H(1)   Bbb    -0.0007    -0.375    -0.134    -0.125  0.3510  0.8624  0.3648
              Bcc     0.0015     0.822     0.293     0.274  0.9300 -0.3663 -0.0288
 
              Baa    -0.0008    -0.107    -0.038    -0.036  0.8843  0.2095 -0.4173
    64 C(13)  Bbb    -0.0007    -0.099    -0.035    -0.033 -0.1783  0.9775  0.1128
              Bcc     0.0015     0.206     0.074     0.069  0.4315 -0.0253  0.9017
 
              Baa    -0.0006    -0.335    -0.120    -0.112  0.5373  0.7848 -0.3089
    65 H(1)   Bbb    -0.0006    -0.319    -0.114    -0.106  0.7487 -0.6124 -0.2538
              Bcc     0.0012     0.654     0.234     0.218  0.3884  0.0949  0.9166
 
              Baa    -0.0006    -0.344    -0.123    -0.115  0.6317  0.7719 -0.0718
    66 H(1)   Bbb    -0.0006    -0.318    -0.114    -0.106  0.6975 -0.6064 -0.3818
              Bcc     0.0012     0.663     0.237     0.221  0.3383 -0.1911  0.9214
 
              Baa    -0.0008    -0.410    -0.146    -0.137  0.6058  0.7047 -0.3693
    67 H(1)   Bbb    -0.0007    -0.390    -0.139    -0.130 -0.5472  0.7060  0.4496
              Bcc     0.0015     0.800     0.285     0.267  0.5776 -0.0703  0.8133
 
              Baa    -0.0041    -0.159    -0.057    -0.053  0.9851  0.0502  0.1647
    68 N(14)  Bbb     0.0000     0.000     0.000     0.000 -0.1658  0.5350  0.8284
              Bcc     0.0041     0.159     0.057     0.053  0.0465  0.8433 -0.5354
 
              Baa    -0.0013    -0.697    -0.249    -0.233  0.9284  0.3599  0.0923
    69 H(1)   Bbb    -0.0011    -0.564    -0.201    -0.188 -0.3535  0.9321 -0.0783
              Bcc     0.0024     1.261     0.450     0.421 -0.1142  0.0401  0.9927
 
              Baa    -0.0026    -0.344    -0.123    -0.115  0.7463  0.5734 -0.3380
    70 C(13)  Bbb    -0.0009    -0.117    -0.042    -0.039 -0.5665  0.8138  0.1298
              Bcc     0.0034     0.461     0.164     0.154  0.3495  0.0946  0.9321
 
              Baa    -0.0104    -1.390    -0.496    -0.464  0.9090 -0.4079  0.0857
    71 C(13)  Bbb    -0.0007    -0.092    -0.033    -0.031  0.2994  0.7822  0.5464
              Bcc     0.0110     1.483     0.529     0.495 -0.2899 -0.4710  0.8331
 
              Baa    -0.0043    -2.316    -0.827    -0.773  0.3805  0.9105  0.1617
    72 H(1)   Bbb    -0.0040    -2.130    -0.760    -0.711  0.7631 -0.4079  0.5013
              Bcc     0.0083     4.447     1.587     1.483 -0.5224  0.0674  0.8500
 
              Baa    -0.0075    -0.291    -0.104    -0.097  0.5307  0.8464 -0.0440
    73 N(14)  Bbb     0.0014     0.054     0.019     0.018  0.8398 -0.5322 -0.1075
              Bcc     0.0061     0.236     0.084     0.079  0.1144 -0.0200  0.9932
 
              Baa    -0.0062    -0.828    -0.295    -0.276  0.6837 -0.5984 -0.4177
    74 C(13)  Bbb    -0.0050    -0.669    -0.239    -0.223  0.4803  0.7999 -0.3598
              Bcc     0.0112     1.497     0.534     0.499  0.5494  0.0454  0.8343
 
              Baa    -0.0047    -2.497    -0.891    -0.833  0.5268  0.6713 -0.5214
    75 H(1)   Bbb    -0.0043    -2.285    -0.815    -0.762 -0.3715  0.7336  0.5691
              Bcc     0.0090     4.782     1.706     1.595  0.7645 -0.1061  0.6358
 
              Baa    -0.0007    -0.097    -0.035    -0.032  0.4397  0.8706  0.2208
    76 C(13)  Bbb    -0.0006    -0.086    -0.031    -0.029  0.8946 -0.4026 -0.1939
              Bcc     0.0014     0.183     0.065     0.061  0.0800 -0.2828  0.9558
 
              Baa    -0.0006    -0.331    -0.118    -0.110  0.9850  0.1707  0.0261
    77 H(1)   Bbb    -0.0006    -0.313    -0.112    -0.104 -0.1724  0.9628  0.2080
              Bcc     0.0012     0.644     0.230     0.215  0.0104 -0.2093  0.9778
 
              Baa    -0.0007    -0.348    -0.124    -0.116  0.9094  0.3752 -0.1796
    78 H(1)   Bbb    -0.0006    -0.310    -0.111    -0.104 -0.3016  0.8921  0.3365
              Bcc     0.0012     0.659     0.235     0.220  0.2865 -0.2518  0.9244
 
              Baa    -0.0007    -0.398    -0.142    -0.133  0.7795  0.5876  0.2171
    79 H(1)   Bbb    -0.0007    -0.378    -0.135    -0.126 -0.6206  0.6771  0.3956
              Bcc     0.0015     0.776     0.277     0.259  0.0854 -0.4431  0.8924
 
              Baa    -0.0045    -0.172    -0.061    -0.057  0.2441  0.9397 -0.2396
    80 N(14)  Bbb     0.0005     0.018     0.006     0.006  0.0850  0.2254  0.9706
              Bcc     0.0040     0.154     0.055     0.051  0.9660 -0.2573 -0.0249
 
              Baa    -0.0013    -0.704    -0.251    -0.235  0.4832  0.7995 -0.3568
    81 H(1)   Bbb    -0.0011    -0.592    -0.211    -0.198  0.8408 -0.5374 -0.0653
              Bcc     0.0024     1.296     0.462     0.432  0.2439  0.2685  0.9319
 
              Baa    -0.0025    -0.338    -0.121    -0.113  0.7761  0.6060  0.1746
    82 C(13)  Bbb    -0.0007    -0.097    -0.035    -0.033 -0.6285  0.7660  0.1352
              Bcc     0.0032     0.436     0.155     0.145 -0.0518 -0.2146  0.9753
 
              Baa    -0.0106    -1.426    -0.509    -0.476  0.0364  0.9526 -0.3021
    83 C(13)  Bbb     0.0023     0.307     0.109     0.102 -0.6450  0.2533  0.7209
              Bcc     0.0083     1.120     0.400     0.373  0.7633  0.1686  0.6237
 
              Baa    -0.0043    -2.305    -0.823    -0.769  0.8830  0.1160 -0.4549
    84 H(1)   Bbb    -0.0039    -2.101    -0.750    -0.701 -0.3731  0.7614 -0.5301
              Bcc     0.0083     4.406     1.572     1.470  0.2849  0.6378  0.7156
 
              Baa    -0.0061    -0.235    -0.084    -0.078  0.9443  0.2513 -0.2124
    85 N(14)  Bbb     0.0013     0.048     0.017     0.016 -0.2958  0.9311 -0.2134
              Bcc     0.0048     0.187     0.067     0.062  0.1442  0.2644  0.9536
 
              Baa    -0.0058    -0.776    -0.277    -0.259 -0.3065  0.9129  0.2695
    86 C(13)  Bbb    -0.0040    -0.535    -0.191    -0.179  0.9478  0.2665  0.1752
              Bcc     0.0098     1.312     0.468     0.437 -0.0881 -0.3092  0.9469
 
              Baa    -0.0044    -2.374    -0.847    -0.792  0.6392  0.5795  0.5055
    87 H(1)   Bbb    -0.0042    -2.222    -0.793    -0.741  0.7689 -0.4919 -0.4084
              Bcc     0.0086     4.596     1.640     1.533 -0.0120 -0.6498  0.7600
 

 ---------------------------------------------------------------------------------

 Unable to Open any file for archive entry.
 1\1\GINC-BGN1027\SP\UAPFD\Gen\C38H40Fe1N8(1+,2)\BECSLEIP\17-Sep-2024\0
 \\# apfd/gen scf=maxcycle=999 geom=check\\5eys_III_D\\1,2\Fe,0,39.5427
 171262,-7.9123231484,2.4432053914\N,0,41.428647233,-7.2490696519,2.536
 9015097\N,0,40.1540845833,-9.7236082746,3.0362544511\N,0,37.6480370754
 ,-8.5877659389,2.3217131662\N,0,38.9397529494,-6.1229280406,1.80517289
 64\C,0,41.8701491054,-6.0081073083,2.2167692386\C,0,43.2801525158,-5.8
 718761174,2.5151348457\C,0,43.6759971859,-7.0664523667,3.0303070037\C,
 0,42.5061076072,-7.9169408461,3.0260256048\C,0,41.4162494899,-10.08269
 30915,3.3931932902\C,0,41.4777340361,-11.4828388527,3.7257325231\C,0,4
 0.2117953961,-11.9762052869,3.5486192382\C,0,39.4011619818,-10.8496278
 218,3.1297139377\C,0,37.2290705842,-9.8681650326,2.5210017027\C,0,35.8
 239178986,-9.9955897973,2.2434674428\C,0,35.3838090403,-8.742013677,1.
 8956672905\C,0,36.5468949758,-7.8794347751,1.970656204\C,0,37.66398214
 29,-5.7353256665,1.5418626036\C,0,37.629883866,-4.3620376376,1.0878949
 119\C,0,38.9209957615,-3.9369258598,1.0645787195\C,0,39.7233741848,-5.
 0479025654,1.5262263229\C,0,41.0945800868,-4.989147358,1.6928881976\H,
 0,41.5877451756,-4.0616085197,1.4450950316\C,0,42.512122623,-9.2362589
 9,3.4332935406\H,0,43.450301774,-9.6463251027,3.7733416019\C,0,38.0450
 77244,-10.9282471503,2.8806240842\H,0,37.577298441,-11.8984844725,2.96
 10538836\C,0,36.5418843004,-6.5354753923,1.6379912984\H,0,35.592961455
 7,-6.0882705981,1.3812258968\C,0,45.0216939793,-7.4853090489,3.5177587
 952\H,0,45.7234214922,-6.6558583131,3.4750952746\H,0,45.4176920341,-8.
 2989358721,2.9099712774\H,0,44.9634657905,-7.8326070058,4.5499465258\C
 ,0,44.0778576581,-4.6357375078,2.2757139097\H,0,43.6468317871,-3.78921
 5465,2.8107169663\H,0,44.0945136076,-4.390620299,1.2137992107\H,0,45.1
 037976278,-4.7660907063,2.6115301973\C,0,42.6880827016,-12.1859893232,
 4.2350742281\H,0,43.2354067973,-11.5504173107,4.9300872066\H,0,43.3611
 620183,-12.448606443,3.4177505829\H,0,42.4018708718,-13.0990694555,4.7
 518640084\C,0,39.722725686,-13.3232371696,3.743588368\H,0,38.700630763
 2,-13.406004118,4.0957313967\C,0,40.4130944667,-14.4351221908,3.512279
 4638\H,0,41.4127788484,-14.4176254399,3.1143110799\H,0,39.9879174744,-
 15.4095586568,3.6884714372\C,0,35.0306408559,-11.2478772631,2.38037182
 18\H,0,35.4059335154,-11.8552651871,3.2030042636\H,0,35.0854651241,-11
 .8467988902,1.4687311546\H,0,33.9846025389,-11.0110432055,2.5719266168
 \C,0,34.0530645583,-8.2860684231,1.5739378412\H,0,33.8494045285,-7.253
 5976052,1.8306167969\C,0,33.0829864018,-8.9975509363,1.0079622672\H,0,
 33.222007097,-10.012091695,0.6833274465\H,0,32.1106233401,-8.570555163
 ,0.8272471706\C,0,36.3877607915,-3.6261200408,0.7172804874\H,0,35.7189
 403447,-3.5469784172,1.5736370741\H,0,35.8558368834,-4.1465425013,-0.0
 790767258\H,0,36.6225795392,-2.6224837183,0.3724539133\C,0,39.47435169
 43,-2.6106273102,0.6682505319\H,0,38.6867900959,-1.9526034668,0.309107
 2736\H,0,40.2136783561,-2.7269999273,-0.1241036084\H,0,39.9619288624,-
 2.1289564326,1.51651602\C,0,39.3916855185,-5.1302914754,7.2844427681\H
 ,0,40.0061588276,-5.4939642709,8.108170307\H,0,38.4165351762,-4.852580
 6987,7.6847112368\H,0,39.8600855482,-4.24541212,6.8652966649\N,0,38.73
 30110223,-7.4079262007,6.4709277093\H,0,38.3998798372,-7.7411402959,7.
 3597838974\C,0,39.2557923085,-6.165605112,6.2282234024\C,0,38.75423103
 38,-8.0950328741,5.3056414065\H,0,38.4031933776,-9.0997380494,5.196448
 768\N,0,39.2579597927,-7.3651011789,4.3431852983\C,0,39.5742115806,-6.
 1613990086,4.9010562754\H,0,40.0046082221,-5.3808457538,4.3104088526\C
 ,0,41.5599727721,-10.0193208107,-2.3344924923\H,0,41.7545901042,-9.331
 5384664,-3.1570566467\H,0,41.0774602563,-10.9074691306,-2.7410700318\H
 ,0,42.5069812242,-10.309185505,-1.8917649632\N,0,39.4446406104,-8.9189
 535024,-1.5766017313\H,0,38.9777024407,-8.9741257933,-2.4666457724\C,0
 ,40.7064379256,-9.3766736808,-1.3039827804\C,0,38.9485940127,-8.383371
 5752,-0.4379773931\H,0,37.9755154247,-7.9450424352,-0.3582941339\N,0,3
 9.8171354146,-8.4761964466,0.5366494852\C,0,40.9160048953,-9.089952791
 1,0.014022945\H,0,41.7765887005,-9.2843189748,0.6184248254\\Version=ES
 64L-G16RevC.02\State=2-A\HF=-3172.2318893\S2=0.764208\S2-1=0.\S2A=0.75
 0143\RMSD=2.153e-09\Dipole=-0.0343877,0.1438856,-0.0194145\Quadrupole=
 -7.8307676,-3.3889526,11.2197202,-0.6529319,0.810923,4.3934978\PG=C01 
 [X(C38H40Fe1N8)]\\@
 The archive entry for this job was punched.


 DEPRESSION IS WAITING FOR YOUR SHIP TO COME IN,
 AND FINDING OUT IT'S THE TITANIC.
 Job cpu time:       0 days 11 hours 56 minutes 16.1 seconds.
 Elapsed time:       0 days  0 hours 12 minutes 27.1 seconds.
 File lengths (MBytes):  RWF=    533 Int=      0 D2E=      0 Chk=    233 Scr=      1
 Normal termination of Gaussian 16 at Tue Sep 17 13:21:44 2024.
