 Entering Gaussian System, Link 0=g16
 Input=5f2a16.com
 Output=5f2a16.log
 Initial command:
 /sw/chem/gaussian/g16_C02/a100/g16/l1.exe "/local/becsleip_8033637/Gau-903246.inp" -scrdir="/local/becsleip_8033637/"
 Entering Link 1 = /sw/chem/gaussian/g16_C02/a100/g16/l1.exe PID=    903247.
  
 Copyright (c) 1988-2021, Gaussian, Inc.  All Rights Reserved.
  
 This is part of the Gaussian(R) 16 program.  It is based on
 the Gaussian(R) 09 system (copyright 2009, Gaussian, Inc.),
 the Gaussian(R) 03 system (copyright 2003, Gaussian, Inc.),
 the Gaussian(R) 98 system (copyright 1998, Gaussian, Inc.),
 the Gaussian(R) 94 system (copyright 1995, Gaussian, Inc.),
 the Gaussian 92(TM) system (copyright 1992, Gaussian, Inc.),
 the Gaussian 90(TM) system (copyright 1990, Gaussian, Inc.),
 the Gaussian 88(TM) system (copyright 1988, Gaussian, Inc.),
 the Gaussian 86(TM) system (copyright 1986, Carnegie Mellon
 University), and the Gaussian 82(TM) system (copyright 1983,
 Carnegie Mellon University). Gaussian is a federally registered
 trademark of Gaussian, Inc.
  
 This software contains proprietary and confidential information,
 including trade secrets, belonging to Gaussian, Inc.
  
 This software is provided under written license and may be
 used, copied, transmitted, or stored only in accord with that
 written license.
  
 The following legend is applicable only to US Government
 contracts under FAR:
  
                    RESTRICTED RIGHTS LEGEND
  
 Use, reproduction and disclosure by the US Government is
 subject to restrictions as set forth in subparagraphs (a)
 and (c) of the Commercial Computer Software - Restricted
 Rights clause in FAR 52.227-19.
  
 Gaussian, Inc.
 340 Quinnipiac St., Bldg. 40, Wallingford CT 06492
  
  
 ---------------------------------------------------------------
 Warning -- This program may not be used in any manner that
 competes with the business of Gaussian, Inc. or will provide
 assistance to any competitor of Gaussian, Inc.  The licensee
 of this program is prohibited from giving any competitor of
 Gaussian, Inc. access to this program.  By using this program,
 the user acknowledges that Gaussian, Inc. is engaged in the
 business of creating and licensing software in the field of
 computational chemistry and represents and warrants to the
 licensee that it is not a competitor of Gaussian, Inc. and that
 it will not use this program in any manner prohibited above.
 ---------------------------------------------------------------
  

 Cite this work as:
 Gaussian 16, Revision C.02,
 M. J. Frisch, G. W. Trucks, H. B. Schlegel, G. E. Scuseria, 
 M. A. Robb, J. R. Cheeseman, G. Scalmani, V. Barone, 
 G. A. Petersson, H. Nakatsuji, X. Li, M. Caricato, A. V. Marenich, 
 J. Bloino, B. G. Janesko, R. Gomperts, B. Mennucci, H. P. Hratchian, 
 J. V. Ortiz, A. F. Izmaylov, J. L. Sonnenberg, D. Williams-Young, 
 F. Ding, F. Lipparini, F. Egidi, J. Goings, B. Peng, A. Petrone, 
 T. Henderson, D. Ranasinghe, V. G. Zakrzewski, J. Gao, N. Rega, 
 G. Zheng, W. Liang, M. Hada, M. Ehara, K. Toyota, R. Fukuda, 
 J. Hasegawa, M. Ishida, T. Nakajima, Y. Honda, O. Kitao, H. Nakai, 
 T. Vreven, K. Throssell, J. A. Montgomery, Jr., J. E. Peralta, 
 F. Ogliaro, M. J. Bearpark, J. J. Heyd, E. N. Brothers, K. N. Kudin, 
 V. N. Staroverov, T. A. Keith, R. Kobayashi, J. Normand, 
 K. Raghavachari, A. P. Rendell, J. C. Burant, S. S. Iyengar, 
 J. Tomasi, M. Cossi, J. M. Millam, M. Klene, C. Adamo, R. Cammi, 
 J. W. Ochterski, R. L. Martin, K. Morokuma, O. Farkas, 
 J. B. Foresman, and D. J. Fox, Gaussian, Inc., Wallingford CT, 2019.
 
 ******************************************
 Gaussian 16:  ES64L-G16RevC.02  7-Dec-2021
                29-Sep-2024 
 ******************************************
 %mem=16GB
 %CPU=0-71
 SetSPE:  set environment variable "OMP_PROC_BIND" = "true"
 SetSPE:  set environment variable "OMP_PLACES" = "{0},{1},{2},{3},{4},{5},{6},{7},{8},{9},{10},{11},{12},{13},{14},{15},{16},{17},{18},{19},{20},{21},{22},{23},{24},{25},{26},{27},{28},{29},{30},{31},{32},{33},{34},{35},{36},{37},{38},{39},{40},{41},{42},{43},{44},{45},{46},{47},{48},{49},{50},{51},{52},{53},{54},{55},{56},{57},{58},{59},{60},{61},{62},{63},{64},{65},{66},{67},{68},{69},{70},{71}"
 Will use up to   72 processors via shared memory.
 %gpucpu=0,1,2,3=0,1,2,3
 Will use    4 GPUs:
 Thread  CPU   GPU
      0    0     0
      1    1     1
      2    2     2
      3    3     3
      4    4    -1
      5    5    -1
      6    6    -1
      7    7    -1
      8    8    -1
      9    9    -1
     10   10    -1
     11   11    -1
     12   12    -1
     13   13    -1
     14   14    -1
     15   15    -1
     16   16    -1
     17   17    -1
     18   18    -1
     19   19    -1
     20   20    -1
     21   21    -1
     22   22    -1
     23   23    -1
     24   24    -1
     25   25    -1
     26   26    -1
     27   27    -1
     28   28    -1
     29   29    -1
     30   30    -1
     31   31    -1
     32   32    -1
     33   33    -1
     34   34    -1
     35   35    -1
     36   36    -1
     37   37    -1
     38   38    -1
     39   39    -1
     40   40    -1
     41   41    -1
     42   42    -1
     43   43    -1
     44   44    -1
     45   45    -1
     46   46    -1
     47   47    -1
     48   48    -1
     49   49    -1
     50   50    -1
     51   51    -1
     52   52    -1
     53   53    -1
     54   54    -1
     55   55    -1
     56   56    -1
     57   57    -1
     58   58    -1
     59   59    -1
     60   60    -1
     61   61    -1
     62   62    -1
     63   63    -1
     64   64    -1
     65   65    -1
     66   66    -1
     67   67    -1
     68   68    -1
     69   69    -1
     70   70    -1
     71   71    -1
 SetGPE:  set environment variable "OMP_PROC_BIND" = "true"
 SetGPE:  set environment variable "OMP_PLACES" = "{0},{1},{2},{3},{4},{5},{6},{7},{8},{9},{10},{11},{12},{13},{14},{15},{16},{17},{18},{19},{20},{21},{22},{23},{24},{25},{26},{27},{28},{29},{30},{31},{32},{33},{34},{35},{36},{37},{38},{39},{40},{41},{42},{43},{44},{45},{46},{47},{48},{49},{50},{51},{52},{53},{54},{55},{56},{57},{58},{59},{60},{61},{62},{63},{64},{65},{66},{67},{68},{69},{70},{71}"
 %oldchk=5f2a_III_Dre.chk
 %chk=5f2a_III_Hn.chk
 Properties for Device   0
 Minimum vector length:                              32
 Maximum vector length:                            1024
 Number of SMPs:                                    108
 Maximum number of threads per SMP:                2048
 Number of ASync Engines:                             5
 Memory:                                           9207742464
 Properties for Device   1
 Minimum vector length:                              32
 Maximum vector length:                            1024
 Number of SMPs:                                    108
 Maximum number of threads per SMP:                2048
 Number of ASync Engines:                             5
 Memory:                                           9207742464
 Properties for Device   2
 Minimum vector length:                              32
 Maximum vector length:                            1024
 Number of SMPs:                                    108
 Maximum number of threads per SMP:                2048
 Number of ASync Engines:                             5
 Memory:                                           9207742464
 Properties for Device   3
 Minimum vector length:                              32
 Maximum vector length:                            1024
 Number of SMPs:                                    108
 Maximum number of threads per SMP:                2048
 Number of ASync Engines:                             5
 Memory:                                           9207742464
   8286968217 words of memory will be used on each GPU.
 Copying data from "5f2a_III_Dre.chk" to current chk file "5f2a_III_Hn.chk"
 IOpt=  2 FromEx=T IUOpen= 4 IOptOp= 5 NList=   0 IFRang= 0 IUIn= 4 IUOut= 2.
 --------------------------------------------------------------
 # apfd/def2TZVP guess=read scf=maxcycle=999 geom=check pop=nbo
 --------------------------------------------------------------
 1/29=2,38=1,172=1/1;
 2/12=2,40=1/2;
 3/5=44,7=101,11=2,14=-4,25=1,30=1,74=-44,116=-2/1,2,3;
 4/5=1/1;
 5/5=2,7=999,38=6/2;
 6/7=2,8=2,9=2,10=2,28=1,40=1/1,7;
 99/5=1,9=1/99;
 ----------
 5f2a_III_H
 ----------
 Structure from the checkpoint file:  "5f2a_III_Hn.chk"
 Charge =  1 Multiplicity = 6
 Z-Matrix found in chk file.
 Fe,0,17.2363085605,54.2732102879,35.3055195741
 N,0,16.8877635224,56.2300078658,35.1861567997
 N,0,15.3777383543,53.8887432239,34.635173482
 N,0,17.5550340005,52.2920388506,35.4668441882
 N,0,19.0743107543,54.6275654745,35.994058788
 C,0,17.7017853116,57.2301692357,35.6110226945
 C,0,17.1499792792,58.5198659184,35.2545203201
 C,0,15.9448823227,58.2717640928,34.6753577256
 C,0,15.7853074899,56.8335694365,34.6719961843
 C,0,14.4672208161,54.8127919883,34.2278832907
 C,0,13.2439509372,54.1742314099,33.8201832899
 C,0,13.4091477979,52.8354234764,34.053314146
 C,0,14.7628112086,52.6821960963,34.5516304642
 C,0,16.647915062,51.291829904,35.2899889177
 C,0,17.2494440234,50.0056623562,35.5275916825
 C,0,18.5432151661,50.2510881862,35.9080672371
 C,0,18.7118592691,51.6898889068,35.8427374866
 C,0,20.0241151929,53.7104195749,36.30740666
 C,0,21.1967227821,54.3569710487,36.8562227448
 C,0,20.9362469397,55.6917299778,36.8429073028
 C,0,19.593531663,55.8388998318,36.3243303833
 C,0,18.9505625922,57.0552390417,36.1837245523
 H,0,19.4862143553,57.9392167016,36.4958173698
 C,0,14.6710863642,56.182480021,34.1807128154
 H,0,13.8695352823,56.791064213,33.7897402843
 C,0,15.3408074087,51.467667854,34.8681561711
 H,0,14.7392408159,50.5826074768,34.7329258779
 C,0,19.8830532747,52.3401622879,36.1904796357
 H,0,20.7279545426,51.7301624812,36.4715763063
 C,0,14.9404358818,59.2295073961,34.1305845666
 H,0,15.2891092577,60.2549854933,34.2290296279
 H,0,13.9937292905,59.1390546628,34.6654447934
 H,0,14.7523944046,59.0287008554,33.0750185202
 C,0,17.8196520265,59.8254374479,35.5180196072
 H,0,18.7842163734,59.8714129071,35.0111315634
 H,0,17.9930387014,59.9596875458,36.5862608605
 H,0,17.2078114279,60.6519646257,35.1642688148
 C,0,12.026729003,54.8846653168,33.3352703817
 H,0,12.2602908148,55.5050769483,32.4697271579
 H,0,11.6264388317,55.533426718,34.1153111287
 H,0,11.2534690839,54.1729503656,33.0563214842
 C,0,12.4158434586,51.7952418189,33.8749400855
 H,0,11.8000347547,51.8850988404,32.9855110994
 C,0,12.1802578377,50.8023712081,34.7246815432
 H,0,12.724287356,50.7032279948,35.6486886949
 H,0,11.4166171919,50.065774827,34.5369343275
 C,0,16.5726558936,48.6899606342,35.3545568437
 H,0,15.9230319089,48.702408303,34.480480554
 H,0,15.9596590381,48.4449986553,36.2241082406
 H,0,17.3144751733,47.9040318684,35.2273423759
 C,0,19.5842868688,49.3125378125,36.2641525015
 H,0,20.589574391,49.5957564788,35.9723932639
 C,0,19.4019920136,48.1677094862,36.9150963273
 H,0,18.4339868752,47.8610099051,37.2713618537
 H,0,20.2228963883,47.5061663537,37.1372880611
 C,0,22.4279998466,53.6382299617,37.2902664225
 H,0,22.8623332332,53.0869069949,36.4562173959
 H,0,22.1996311092,52.9244036714,38.0819097873
 H,0,23.1726681599,54.3366354549,37.664378876
 C,0,21.7921278278,56.8265089296,37.2925254215
 H,0,22.7530792967,56.4687313921,37.6541969593
 H,0,21.3063817846,57.3788649738,38.0974409878
 H,0,21.9718571242,57.5189338152,36.4695566973
 C,0,19.7370089794,55.5145468715,30.4619703119
 H,0,20.2027056423,56.4158741695,30.84797782
 H,0,19.1005527296,55.7841925811,29.6189551576
 H,0,20.5180284257,54.8465606386,30.0981674717
 N,0,18.2366170383,53.7077567966,31.3303476373
 H,0,18.1854422998,53.1965198887,30.4646958581
 C,0,18.9437067938,54.8640863339,31.5361433295
 C,0,17.633039228,53.3845652849,32.4967845535
 H,0,17.0093309144,52.5250895886,32.6313865131
 N,0,17.9128025965,54.2643608252,33.4255860023
 C,0,18.7285523185,55.1899760063,32.8444548449
 H,0,19.0997744257,56.0224637382,33.4050230497
 C,0,14.1991770688,55.0236028823,39.943361363
 H,0,13.7064684914,54.1489739041,40.3680104677
 H,0,13.4541526411,55.6328281454,39.4414354985
 H,0,14.6311262466,55.6018682388,40.7602234268
 N,0,16.3180773424,53.8406588003,39.3246789478
 H,0,16.5048534334,53.4759183925,40.2441597485
 C,0,15.2463350208,54.6189299582,38.9715673653
 C,0,17.0724151389,53.6574373365,38.2174708336
 H,0,17.9764640799,53.0848458236,38.1958406361
 N,0,16.5443354776,54.2704026808,37.1874543701
 C,0,15.4086404508,54.8732384599,37.640162046
 H,0,14.787655498,55.4452557711,36.9826795461
 Recover connectivity data from disk.
 Stoichiometry    C38H40FeN8(1+,6)
 Framework group  C1[X(C38H40FeN8)]
 Deg. of freedom   255
 Full point group                 C1      NOp   1
 Largest Abelian subgroup         C1      NOp   1
 Largest concise Abelian subgroup C1      NOp   1
                         Standard orientation:                         
 ---------------------------------------------------------------------
 Center     Atomic      Atomic             Coordinates (Angstroms)
 Number     Number       Type             X           Y           Z
 ---------------------------------------------------------------------
      1         26           0       -0.152326   -0.054586    0.059804
      2          7           0       -2.040911    0.536289   -0.161335
      3          7           0        0.434425    1.859012    0.272711
      4          7           0        1.768381   -0.631165    0.236134
      5          7           0       -0.704788   -1.956937   -0.172038
      6          6           0       -3.105616   -0.241642   -0.484896
      7          6           0       -4.328950    0.530974   -0.447218
      8          6           0       -3.962744    1.811113   -0.170850
      9          6           0       -2.522851    1.798821   -0.027901
     10          6           0       -0.381376    2.946051    0.312802
     11          6           0        0.387711    4.152032    0.469276
     12          6           0        1.704141    3.776665    0.456610
     13          6           0        1.704606    2.330276    0.346332
     14          6           0        2.869024    0.168398    0.298129
     15          6           0        4.070938   -0.619049    0.386718
     16          6           0        3.676580   -1.930296    0.323859
     17          6           0        2.228564   -1.907955    0.248985
     18          6           0        0.090034   -3.055222   -0.112883
     19          6           0       -0.666838   -4.250177   -0.418600
     20          6           0       -1.945622   -3.843901   -0.640541
     21          6           0       -1.943534   -2.403171   -0.507275
     22          6           0       -3.061879   -1.610500   -0.690682
     23          1           0       -3.982080   -2.105212   -0.963136
     24          6           0       -1.764738    2.921846    0.238267
     25          1           0       -2.283962    3.863993    0.330377
     26          6           0        2.846471    1.552146    0.344245
     27          1           0        3.793265    2.061710    0.430424
     28          6           0        1.450035   -3.046551    0.135104
     29          1           0        1.954449   -4.000459    0.159597
     30          6           0       -4.810613    3.029105   -0.027402
     31          1           0       -5.862554    2.787351   -0.160985
     32          1           0       -4.536294    3.778114   -0.771878
     33          1           0       -4.681076    3.472174    0.960936
     34          6           0       -5.688335   -0.030042   -0.691645
     35          1           0       -5.918877   -0.808832    0.036208
     36          1           0       -5.749025   -0.470216   -1.687531
     37          1           0       -6.446357    0.745834   -0.613827
     38          6           0       -0.180306    5.528599    0.531755
     39          1           0       -0.903695    5.611838    1.343178
     40          1           0       -0.691154    5.774096   -0.400100
     41          1           0        0.607487    6.261204    0.689726
     42          6           0        2.856488    4.654390    0.502930
     43          1           0        2.776459    5.494595    1.185593
     44          6           0        3.945745    4.534465   -0.247063
     45          1           0        4.048425    3.752392   -0.980142
     46          1           0        4.764917    5.230256   -0.170881
     47          6           0        5.449518   -0.076957    0.543906
     48          1           0        5.452041    0.782475    1.212895
     49          1           0        5.858145    0.244533   -0.416073
     50          1           0        6.105239   -0.841802    0.955253
     51          6           0        4.483172   -3.129856    0.368213
     52          1           0        4.032439   -3.978622    0.870583
     53          6           0        5.696476   -3.264246   -0.158498
     54          1           0        6.170795   -2.471320   -0.710144
     55          1           0        6.249817   -4.185173   -0.077254
     56          6           0       -0.097269   -5.627324   -0.427679
     57          1           0        0.307761   -5.879465    0.552431
     58          1           0        0.710731   -5.706227   -1.155217
     59          1           0       -0.859206   -6.359972   -0.682512
     60          6           0       -3.146783   -4.653041   -0.993978
     61          1           0       -2.900378   -5.710653   -1.048560
     62          1           0       -3.548038   -4.343746   -1.959518
     63          1           0       -3.929500   -4.521623   -0.246237
     64          6           0       -2.175061   -0.986359    5.187643
     65          1           0       -3.095561   -1.432291    4.824203
     66          1           0       -2.425063   -0.118310    5.797931
     67          1           0       -1.662626   -1.710854    5.820941
     68          7           0       -0.099350    0.003461    4.196974
     69          1           0        0.333477    0.228437    5.077531
     70          6           0       -1.322305   -0.594838    4.036212
     71          6           0        0.411861    0.226352    2.964773
     72          1           0        1.361057    0.686777    2.783494
     73          7           0       -0.411447   -0.191731    2.036144
     74          6           0       -1.493964   -0.706834    2.686336
     75          1           0       -2.317188   -1.117806    2.140000
     76          6           0       -0.033259    1.675056   -5.259124
     77          1           0        0.938182    1.929830   -5.682748
     78          1           0       -0.571321    2.593380   -5.046250
     79          1           0       -0.591569    1.107201   -6.003480
     80          7           0        0.770211   -0.317973   -3.972992
     81          1           0        1.185813   -0.788047   -4.760184
     82          6           0        0.126252    0.891623   -4.007936
     83          6           0        0.741574   -0.759337   -2.695149
     84          1           0        1.173191   -1.683281   -2.370083
     85          7           0        0.120699    0.095464   -1.920967
     86          6           0       -0.268245    1.127227   -2.722433
     87          1           0       -0.801642    1.964965   -2.323945
 ---------------------------------------------------------------------
 Rotational constants (GHZ):           0.0779380           0.0749360           0.0591287
 Standard basis: def2TZVP (5D, 7F)
 There are  1948 symmetry adapted cartesian basis functions of A   symmetry.
 There are  1711 symmetry adapted basis functions of A   symmetry.
  1711 basis functions,  2768 primitive gaussians,  1948 cartesian basis functions
   177 alpha electrons      172 beta electrons
       nuclear repulsion energy      7168.3169123906 Hartrees.
 NAtoms=   87 NActive=   87 NUniq=   87 SFac= 1.00D+00 NAtFMM=   60 NAOKFM=T Big=T
 Integral buffers will be    131072 words long.
 Raffenetti 2 integral format.
 Two-electron integral symmetry is turned on.
 R6APFD:  NTU= -4 IXU= 1 FactS= 1.050
 Nuclear repulsion after empirical dispersion term =     7168.1478680847 Hartrees.
 One-electron integrals computed using PRISM.
   1 Symmetry operations used in ECPInt.
 ECPInt:  NShTT=  232221 NPrTT=  716997 LenC2=  183300 LenP2D=  371655.
 LDataN:  DoStor=T MaxTD1= 6 Len=  172
 Number of processors reduced to  20 by ecpmxn.
 NBasis=  1711 RedAO= T EigKep=  3.60D-06  NBF=  1711
 NBsUse=  1711 1.00D-06 EigRej= -1.00D+00 NBFU=  1711
 Initial guess from the checkpoint file:  "5f2a_III_Hn.chk"
 B after Tr=     0.000000    0.000000    0.000000
         Rot=    1.000000    0.000000    0.000000    0.000000 Ang=   0.00 deg.
 Initial guess <Sx>= 0.0000 <Sy>= 0.0000 <Sz>= 2.5000 <S**2>= 8.7577 S= 2.5013
 Requested convergence on RMS density matrix=1.00D-08 within 999 cycles.
 Requested convergence on MAX density matrix=1.00D-06.
 Requested convergence on             energy=1.00D-06.
 No special actions if energy rises.
 SCF Done:  E(UAPFD) =  -3172.88295393     A.U. after   16 cycles
            NFock= 16  Conv=0.64D-08     -V/T= 2.0032
 <Sx>= 0.0000 <Sy>= 0.0000 <Sz>= 2.5000 <S**2>= 8.7579 S= 2.5013
 <L.S>=  0.00000000000    
 Annihilation of the first spin contaminant:
 S**2 before annihilation     8.7579,   after     8.7500

 **********************************************************************

            Population analysis using the SCF Density.

 **********************************************************************

 Orbital symmetries:
 Alpha Orbitals:
       Occupied  (A) (A) (A) (A) (A) (A) (A) (A) (A) (A) (A) (A)
                 (A) (A) (A) (A) (A) (A) (A) (A) (A) (A) (A) (A)
                 (A) (A) (A) (A) (A) (A) (A) (A) (A) (A) (A) (A)
                 (A) (A) (A) (A) (A) (A) (A) (A) (A) (A) (A) (A)
                 (A) (A) (A) (A) (A) (A) (A) (A) (A) (A) (A) (A)
                 (A) (A) (A) (A) (A) (A) (A) (A) (A) (A) (A) (A)
                 (A) (A) (A) (A) (A) (A) (A) (A) (A) (A) (A) (A)
                 (A) (A) (A) (A) (A) (A) (A) (A) (A) (A) (A) (A)
                 (A) (A) (A) (A) (A) (A) (A) (A) (A) (A) (A) (A)
                 (A) (A) (A) (A) (A) (A) (A) (A) (A) (A) (A) (A)
                 (A) (A) (A) (A) (A) (A) (A) (A) (A) (A) (A) (A)
                 (A) (A) (A) (A) (A) (A) (A) (A) (A) (A) (A) (A)
                 (A) (A) (A) (A) (A) (A) (A) (A) (A) (A) (A) (A)
                 (A) (A) (A) (A) (A) (A) (A) (A) (A) (A) (A) (A)
                 (A) (A) (A) (A) (A) (A) (A) (A) (A)
       Virtual   (A) (A) (A) (A) (A) (A) (A) (A) (A) (A) (A) (A)
                 (A) (A) (A) (A) (A) (A) (A) (A) (A) (A) (A) (A)
                 (A) (A) (A) (A) (A) (A) (A) (A) (A) (A) (A) (A)
                 (A) (A) (A) (A) (A) (A) (A) (A) (A) (A) (A) (A)
                 (A) (A) (A) (A) (A) (A) (A) (A) (A) (A) (A) (A)
                 (A) (A) (A) (A) (A) (A) (A) (A) (A) (A) (A) (A)
                 (A) (A) (A) (A) (A) (A) (A) (A) (A) (A) (A) (A)
                 (A) (A) (A) (A) (A) (A) (A) (A) (A) (A) (A) (A)
                 (A) (A) (A) (A) (A) (A) (A) (A) (A) (A) (A) (A)
                 (A) (A) (A) (A) (A) (A) (A) (A) (A) (A) (A) (A)
                 (A) (A) (A) (A) (A) (A) (A) (A) (A) (A) (A) (A)
                 (A) (A) (A) (A) (A) (A) (A) (A) (A) (A) (A) (A)
                 (A) (A) (A) (A) (A) (A) (A) (A) (A) (A) (A) (A)
                 (A) (A) (A) (A) (A) (A) (A) (A) (A) (A) (A) (A)
                 (A) (A) (A) (A) (A) (A) (A) (A) (A) (A) (A) (A)
                 (A) (A) (A) (A) (A) (A) (A) (A) (A) (A) (A) (A)
                 (A) (A) (A) (A) (A) (A) (A) (A) (A) (A) (A) (A)
                 (A) (A) (A) (A) (A) (A) (A) (A) (A) (A) (A) (A)
                 (A) (A) (A) (A) (A) (A) (A) (A) (A) (A) (A) (A)
                 (A) (A) (A) (A) (A) (A) (A) (A) (A) (A) (A) (A)
                 (A) (A) (A) (A) (A) (A) (A) (A) (A) (A) (A) (A)
                 (A) (A) (A) (A) (A) (A) (A) (A) (A) (A) (A) (A)
                 (A) (A) (A) (A) (A) (A) (A) (A) (A) (A) (A) (A)
                 (A) (A) (A) (A) (A) (A) (A) (A) (A) (A) (A) (A)
                 (A) (A) (A) (A) (A) (A) (A) (A) (A) (A) (A) (A)
                 (A) (A) (A) (A) (A) (A) (A) (A) (A) (A) (A) (A)
                 (A) (A) (A) (A) (A) (A) (A) (A) (A) (A) (A) (A)
                 (A) (A) (A) (A) (A) (A) (A) (A) (A) (A) (A) (A)
                 (A) (A) (A) (A) (A) (A) (A) (A) (A) (A) (A) (A)
                 (A) (A) (A) (A) (A) (A) (A) (A) (A) (A) (A) (A)
                 (A) (A) (A) (A) (A) (A) (A) (A) (A) (A) (A) (A)
                 (A) (A) (A) (A) (A) (A) (A) (A) (A) (A) (A) (A)
                 (A) (A) (A) (A) (A) (A) (A) (A) (A) (A) (A) (A)
                 (A) (A) (A) (A) (A) (A) (A) (A) (A) (A) (A) (A)
                 (A) (A) (A) (A) (A) (A) (A) (A) (A) (A) (A) (A)
                 (A) (A) (A) (A) (A) (A) (A) (A) (A) (A) (A) (A)
                 (A) (A) (A) (A) (A) (A) (A) (A) (A) (A) (A) (A)
                 (A) (A) (A) (A) (A) (A) (A) (A) (A) (A) (A) (A)
                 (A) (A) (A) (A) (A) (A) (A) (A) (A) (A) (A) (A)
                 (A) (A) (A) (A) (A) (A) (A) (A) (A) (A) (A) (A)
                 (A) (A) (A) (A) (A) (A) (A) (A) (A) (A) (A) (A)
                 (A) (A) (A) (A) (A) (A) (A) (A) (A) (A) (A) (A)
                 (A) (A) (A) (A) (A) (A) (A) (A) (A) (A) (A) (A)
                 (A) (A) (A) (A) (A) (A) (A) (A) (A) (A) (A) (A)
                 (A) (A) (A) (A) (A) (A) (A) (A) (A) (A) (A) (A)
                 (A) (A) (A) (A) (A) (A) (A) (A) (A) (A) (A) (A)
                 (A) (A) (A) (A) (A) (A) (A) (A) (A) (A) (A) (A)
                 (A) (A) (A) (A) (A) (A) (A) (A) (A) (A) (A) (A)
                 (A) (A) (A) (A) (A) (A) (A) (A) (A) (A) (A) (A)
                 (A) (A) (A) (A) (A) (A) (A) (A) (A) (A) (A) (A)
                 (A) (A) (A) (A) (A) (A) (A) (A) (A) (A) (A) (A)
                 (A) (A) (A) (A) (A) (A) (A) (A) (A) (A) (A) (A)
                 (A) (A) (A) (A) (A) (A) (A) (A) (A) (A) (A) (A)
                 (A) (A) (A) (A) (A) (A) (A) (A) (A) (A) (A) (A)
                 (A) (A) (A) (A) (A) (A) (A) (A) (A) (A) (A) (A)
                 (A) (A) (A) (A) (A) (A) (A) (A) (A) (A) (A) (A)
                 (A) (A) (A) (A) (A) (A) (A) (A) (A) (A) (A) (A)
                 (A) (A) (A) (A) (A) (A) (A) (A) (A) (A) (A) (A)
                 (A) (A) (A) (A) (A) (A) (A) (A) (A) (A) (A) (A)
                 (A) (A) (A) (A) (A) (A) (A) (A) (A) (A) (A) (A)
                 (A) (A) (A) (A) (A) (A) (A) (A) (A) (A) (A) (A)
                 (A) (A) (A) (A) (A) (A) (A) (A) (A) (A) (A) (A)
                 (A) (A) (A) (A) (A) (A) (A) (A) (A) (A) (A) (A)
                 (A) (A) (A) (A) (A) (A) (A) (A) (A) (A) (A) (A)
                 (A) (A) (A) (A) (A) (A) (A) (A) (A) (A) (A) (A)
                 (A) (A) (A) (A) (A) (A) (A) (A) (A) (A) (A) (A)
                 (A) (A) (A) (A) (A) (A) (A) (A) (A) (A) (A) (A)
                 (A) (A) (A) (A) (A) (A) (A) (A) (A) (A) (A) (A)
                 (A) (A) (A) (A) (A) (A) (A) (A) (A) (A) (A) (A)
                 (A) (A) (A) (A) (A) (A) (A) (A) (A) (A) (A) (A)
                 (A) (A) (A) (A) (A) (A) (A) (A) (A) (A) (A) (A)
                 (A) (A) (A) (A) (A) (A) (A) (A) (A) (A) (A) (A)
                 (A) (A) (A) (A) (A) (A) (A) (A) (A) (A) (A) (A)
                 (A) (A) (A) (A) (A) (A) (A) (A) (A) (A) (A) (A)
                 (A) (A) (A) (A) (A) (A) (A) (A) (A) (A) (A) (A)
                 (A) (A) (A) (A) (A) (A) (A) (A) (A) (A) (A) (A)
                 (A) (A) (A) (A) (A) (A) (A) (A) (A) (A) (A) (A)
                 (A) (A) (A) (A) (A) (A) (A) (A) (A) (A) (A) (A)
                 (A) (A) (A) (A) (A) (A) (A) (A) (A) (A) (A) (A)
                 (A) (A) (A) (A) (A) (A) (A) (A) (A) (A) (A) (A)
                 (A) (A) (A) (A) (A) (A) (A) (A) (A) (A) (A) (A)
                 (A) (A) (A) (A) (A) (A) (A) (A) (A) (A) (A) (A)
                 (A) (A) (A) (A) (A) (A) (A) (A) (A) (A) (A) (A)
                 (A) (A) (A) (A) (A) (A) (A) (A) (A) (A) (A) (A)
                 (A) (A) (A) (A) (A) (A) (A) (A) (A) (A) (A) (A)
                 (A) (A) (A) (A) (A) (A) (A) (A) (A) (A) (A) (A)
                 (A) (A) (A) (A) (A) (A) (A) (A) (A) (A) (A) (A)
                 (A) (A) (A) (A) (A) (A) (A) (A) (A) (A) (A) (A)
                 (A) (A) (A) (A) (A) (A) (A) (A) (A) (A) (A) (A)
                 (A) (A) (A) (A) (A) (A) (A) (A) (A) (A) (A) (A)
                 (A) (A) (A) (A) (A) (A) (A) (A) (A) (A) (A) (A)
                 (A) (A) (A) (A) (A) (A) (A) (A) (A) (A) (A) (A)
                 (A) (A) (A) (A) (A) (A) (A) (A) (A) (A) (A) (A)
                 (A) (A) (A) (A) (A) (A) (A) (A) (A) (A) (A) (A)
                 (A) (A) (A) (A) (A) (A) (A) (A) (A) (A) (A) (A)
                 (A) (A) (A) (A) (A) (A) (A) (A) (A) (A) (A) (A)
                 (A) (A) (A) (A) (A) (A) (A) (A) (A) (A) (A) (A)
                 (A) (A) (A) (A) (A) (A) (A) (A) (A) (A) (A) (A)
                 (A) (A) (A) (A) (A) (A) (A) (A) (A) (A) (A) (A)
                 (A) (A) (A) (A) (A) (A) (A) (A) (A) (A) (A) (A)
                 (A) (A) (A) (A) (A) (A) (A) (A) (A) (A) (A) (A)
                 (A) (A) (A) (A) (A) (A) (A) (A) (A) (A) (A) (A)
                 (A) (A) (A) (A) (A) (A) (A) (A) (A) (A) (A) (A)
                 (A) (A) (A) (A) (A) (A) (A) (A) (A) (A) (A) (A)
                 (A) (A) (A) (A) (A) (A) (A) (A) (A) (A) (A) (A)
                 (A) (A) (A) (A) (A) (A) (A) (A) (A) (A) (A) (A)
                 (A) (A) (A) (A) (A) (A) (A) (A) (A) (A) (A) (A)
                 (A) (A) (A) (A) (A) (A) (A) (A) (A) (A) (A) (A)
                 (A) (A) (A) (A) (A) (A) (A) (A) (A) (A) (A) (A)
                 (A) (A) (A) (A) (A) (A) (A) (A) (A) (A) (A) (A)
                 (A) (A) (A) (A) (A) (A) (A) (A) (A) (A) (A) (A)
                 (A) (A) (A) (A) (A) (A) (A) (A) (A) (A) (A) (A)
                 (A) (A) (A) (A) (A) (A) (A) (A) (A) (A) (A) (A)
                 (A) (A) (A) (A) (A) (A) (A) (A) (A) (A) (A) (A)
                 (A) (A) (A) (A) (A) (A) (A) (A) (A) (A) (A) (A)
                 (A) (A) (A) (A) (A) (A) (A) (A) (A) (A) (A) (A)
                 (A) (A) (A) (A) (A) (A) (A) (A) (A) (A) (A) (A)
                 (A) (A) (A) (A) (A) (A) (A) (A) (A) (A) (A) (A)
                 (A) (A) (A) (A) (A) (A) (A) (A) (A) (A) (A) (A)
                 (A) (A) (A) (A) (A) (A) (A) (A) (A) (A) (A) (A)
                 (A) (A) (A) (A) (A) (A) (A) (A) (A) (A) (A) (A)
                 (A) (A) (A) (A) (A) (A) (A) (A) (A) (A) (A) (A)
                 (A) (A) (A) (A) (A) (A) (A) (A) (A) (A) (A) (A)
                 (A) (A) (A) (A) (A) (A) (A) (A) (A) (A) (A) (A)
                 (A) (A) (A) (A) (A) (A) (A) (A) (A) (A) (A) (A)
                 (A) (A) (A) (A) (A) (A) (A) (A) (A) (A) (A) (A)
                 (A) (A) (A) (A) (A) (A) (A) (A) (A) (A) (A) (A)
                 (A) (A) (A) (A) (A) (A) (A) (A) (A) (A)
 Beta  Orbitals:
       Occupied  (A) (A) (A) (A) (A) (A) (A) (A) (A) (A) (A) (A)
                 (A) (A) (A) (A) (A) (A) (A) (A) (A) (A) (A) (A)
                 (A) (A) (A) (A) (A) (A) (A) (A) (A) (A) (A) (A)
                 (A) (A) (A) (A) (A) (A) (A) (A) (A) (A) (A) (A)
                 (A) (A) (A) (A) (A) (A) (A) (A) (A) (A) (A) (A)
                 (A) (A) (A) (A) (A) (A) (A) (A) (A) (A) (A) (A)
                 (A) (A) (A) (A) (A) (A) (A) (A) (A) (A) (A) (A)
                 (A) (A) (A) (A) (A) (A) (A) (A) (A) (A) (A) (A)
                 (A) (A) (A) (A) (A) (A) (A) (A) (A) (A) (A) (A)
                 (A) (A) (A) (A) (A) (A) (A) (A) (A) (A) (A) (A)
                 (A) (A) (A) (A) (A) (A) (A) (A) (A) (A) (A) (A)
                 (A) (A) (A) (A) (A) (A) (A) (A) (A) (A) (A) (A)
                 (A) (A) (A) (A) (A) (A) (A) (A) (A) (A) (A) (A)
                 (A) (A) (A) (A) (A) (A) (A) (A) (A) (A) (A) (A)
                 (A) (A) (A) (A)
       Virtual   (A) (A) (A) (A) (A) (A) (A) (A) (A) (A) (A) (A)
                 (A) (A) (A) (A) (A) (A) (A) (A) (A) (A) (A) (A)
                 (A) (A) (A) (A) (A) (A) (A) (A) (A) (A) (A) (A)
                 (A) (A) (A) (A) (A) (A) (A) (A) (A) (A) (A) (A)
                 (A) (A) (A) (A) (A) (A) (A) (A) (A) (A) (A) (A)
                 (A) (A) (A) (A) (A) (A) (A) (A) (A) (A) (A) (A)
                 (A) (A) (A) (A) (A) (A) (A) (A) (A) (A) (A) (A)
                 (A) (A) (A) (A) (A) (A) (A) (A) (A) (A) (A) (A)
                 (A) (A) (A) (A) (A) (A) (A) (A) (A) (A) (A) (A)
                 (A) (A) (A) (A) (A) (A) (A) (A) (A) (A) (A) (A)
                 (A) (A) (A) (A) (A) (A) (A) (A) (A) (A) (A) (A)
                 (A) (A) (A) (A) (A) (A) (A) (A) (A) (A) (A) (A)
                 (A) (A) (A) (A) (A) (A) (A) (A) (A) (A) (A) (A)
                 (A) (A) (A) (A) (A) (A) (A) (A) (A) (A) (A) (A)
                 (A) (A) (A) (A) (A) (A) (A) (A) (A) (A) (A) (A)
                 (A) (A) (A) (A) (A) (A) (A) (A) (A) (A) (A) (A)
                 (A) (A) (A) (A) (A) (A) (A) (A) (A) (A) (A) (A)
                 (A) (A) (A) (A) (A) (A) (A) (A) (A) (A) (A) (A)
                 (A) (A) (A) (A) (A) (A) (A) (A) (A) (A) (A) (A)
                 (A) (A) (A) (A) (A) (A) (A) (A) (A) (A) (A) (A)
                 (A) (A) (A) (A) (A) (A) (A) (A) (A) (A) (A) (A)
                 (A) (A) (A) (A) (A) (A) (A) (A) (A) (A) (A) (A)
                 (A) (A) (A) (A) (A) (A) (A) (A) (A) (A) (A) (A)
                 (A) (A) (A) (A) (A) (A) (A) (A) (A) (A) (A) (A)
                 (A) (A) (A) (A) (A) (A) (A) (A) (A) (A) (A) (A)
                 (A) (A) (A) (A) (A) (A) (A) (A) (A) (A) (A) (A)
                 (A) (A) (A) (A) (A) (A) (A) (A) (A) (A) (A) (A)
                 (A) (A) (A) (A) (A) (A) (A) (A) (A) (A) (A) (A)
                 (A) (A) (A) (A) (A) (A) (A) (A) (A) (A) (A) (A)
                 (A) (A) (A) (A) (A) (A) (A) (A) (A) (A) (A) (A)
                 (A) (A) (A) (A) (A) (A) (A) (A) (A) (A) (A) (A)
                 (A) (A) (A) (A) (A) (A) (A) (A) (A) (A) (A) (A)
                 (A) (A) (A) (A) (A) (A) (A) (A) (A) (A) (A) (A)
                 (A) (A) (A) (A) (A) (A) (A) (A) (A) (A) (A) (A)
                 (A) (A) (A) (A) (A) (A) (A) (A) (A) (A) (A) (A)
                 (A) (A) (A) (A) (A) (A) (A) (A) (A) (A) (A) (A)
                 (A) (A) (A) (A) (A) (A) (A) (A) (A) (A) (A) (A)
                 (A) (A) (A) (A) (A) (A) (A) (A) (A) (A) (A) (A)
                 (A) (A) (A) (A) (A) (A) (A) (A) (A) (A) (A) (A)
                 (A) (A) (A) (A) (A) (A) (A) (A) (A) (A) (A) (A)
                 (A) (A) (A) (A) (A) (A) (A) (A) (A) (A) (A) (A)
                 (A) (A) (A) (A) (A) (A) (A) (A) (A) (A) (A) (A)
                 (A) (A) (A) (A) (A) (A) (A) (A) (A) (A) (A) (A)
                 (A) (A) (A) (A) (A) (A) (A) (A) (A) (A) (A) (A)
                 (A) (A) (A) (A) (A) (A) (A) (A) (A) (A) (A) (A)
                 (A) (A) (A) (A) (A) (A) (A) (A) (A) (A) (A) (A)
                 (A) (A) (A) (A) (A) (A) (A) (A) (A) (A) (A) (A)
                 (A) (A) (A) (A) (A) (A) (A) (A) (A) (A) (A) (A)
                 (A) (A) (A) (A) (A) (A) (A) (A) (A) (A) (A) (A)
                 (A) (A) (A) (A) (A) (A) (A) (A) (A) (A) (A) (A)
                 (A) (A) (A) (A) (A) (A) (A) (A) (A) (A) (A) (A)
                 (A) (A) (A) (A) (A) (A) (A) (A) (A) (A) (A) (A)
                 (A) (A) (A) (A) (A) (A) (A) (A) (A) (A) (A) (A)
                 (A) (A) (A) (A) (A) (A) (A) (A) (A) (A) (A) (A)
                 (A) (A) (A) (A) (A) (A) (A) (A) (A) (A) (A) (A)
                 (A) (A) (A) (A) (A) (A) (A) (A) (A) (A) (A) (A)
                 (A) (A) (A) (A) (A) (A) (A) (A) (A) (A) (A) (A)
                 (A) (A) (A) (A) (A) (A) (A) (A) (A) (A) (A) (A)
                 (A) (A) (A) (A) (A) (A) (A) (A) (A) (A) (A) (A)
                 (A) (A) (A) (A) (A) (A) (A) (A) (A) (A) (A) (A)
                 (A) (A) (A) (A) (A) (A) (A) (A) (A) (A) (A) (A)
                 (A) (A) (A) (A) (A) (A) (A) (A) (A) (A) (A) (A)
                 (A) (A) (A) (A) (A) (A) (A) (A) (A) (A) (A) (A)
                 (A) (A) (A) (A) (A) (A) (A) (A) (A) (A) (A) (A)
                 (A) (A) (A) (A) (A) (A) (A) (A) (A) (A) (A) (A)
                 (A) (A) (A) (A) (A) (A) (A) (A) (A) (A) (A) (A)
                 (A) (A) (A) (A) (A) (A) (A) (A) (A) (A) (A) (A)
                 (A) (A) (A) (A) (A) (A) (A) (A) (A) (A) (A) (A)
                 (A) (A) (A) (A) (A) (A) (A) (A) (A) (A) (A) (A)
                 (A) (A) (A) (A) (A) (A) (A) (A) (A) (A) (A) (A)
                 (A) (A) (A) (A) (A) (A) (A) (A) (A) (A) (A) (A)
                 (A) (A) (A) (A) (A) (A) (A) (A) (A) (A) (A) (A)
                 (A) (A) (A) (A) (A) (A) (A) (A) (A) (A) (A) (A)
                 (A) (A) (A) (A) (A) (A) (A) (A) (A) (A) (A) (A)
                 (A) (A) (A) (A) (A) (A) (A) (A) (A) (A) (A) (A)
                 (A) (A) (A) (A) (A) (A) (A) (A) (A) (A) (A) (A)
                 (A) (A) (A) (A) (A) (A) (A) (A) (A) (A) (A) (A)
                 (A) (A) (A) (A) (A) (A) (A) (A) (A) (A) (A) (A)
                 (A) (A) (A) (A) (A) (A) (A) (A) (A) (A) (A) (A)
                 (A) (A) (A) (A) (A) (A) (A) (A) (A) (A) (A) (A)
                 (A) (A) (A) (A) (A) (A) (A) (A) (A) (A) (A) (A)
                 (A) (A) (A) (A) (A) (A) (A) (A) (A) (A) (A) (A)
                 (A) (A) (A) (A) (A) (A) (A) (A) (A) (A) (A) (A)
                 (A) (A) (A) (A) (A) (A) (A) (A) (A) (A) (A) (A)
                 (A) (A) (A) (A) (A) (A) (A) (A) (A) (A) (A) (A)
                 (A) (A) (A) (A) (A) (A) (A) (A) (A) (A) (A) (A)
                 (A) (A) (A) (A) (A) (A) (A) (A) (A) (A) (A) (A)
                 (A) (A) (A) (A) (A) (A) (A) (A) (A) (A) (A) (A)
                 (A) (A) (A) (A) (A) (A) (A) (A) (A) (A) (A) (A)
                 (A) (A) (A) (A) (A) (A) (A) (A) (A) (A) (A) (A)
                 (A) (A) (A) (A) (A) (A) (A) (A) (A) (A) (A) (A)
                 (A) (A) (A) (A) (A) (A) (A) (A) (A) (A) (A) (A)
                 (A) (A) (A) (A) (A) (A) (A) (A) (A) (A) (A) (A)
                 (A) (A) (A) (A) (A) (A) (A) (A) (A) (A) (A) (A)
                 (A) (A) (A) (A) (A) (A) (A) (A) (A) (A) (A) (A)
                 (A) (A) (A) (A) (A) (A) (A) (A) (A) (A) (A) (A)
                 (A) (A) (A) (A) (A) (A) (A) (A) (A) (A) (A) (A)
                 (A) (A) (A) (A) (A) (A) (A) (A) (A) (A) (A) (A)
                 (A) (A) (A) (A) (A) (A) (A) (A) (A) (A) (A) (A)
                 (A) (A) (A) (A) (A) (A) (A) (A) (A) (A) (A) (A)
                 (A) (A) (A) (A) (A) (A) (A) (A) (A) (A) (A) (A)
                 (A) (A) (A) (A) (A) (A) (A) (A) (A) (A) (A) (A)
                 (A) (A) (A) (A) (A) (A) (A) (A) (A) (A) (A) (A)
                 (A) (A) (A) (A) (A) (A) (A) (A) (A) (A) (A) (A)
                 (A) (A) (A) (A) (A) (A) (A) (A) (A) (A) (A) (A)
                 (A) (A) (A) (A) (A) (A) (A) (A) (A) (A) (A) (A)
                 (A) (A) (A) (A) (A) (A) (A) (A) (A) (A) (A) (A)
                 (A) (A) (A) (A) (A) (A) (A) (A) (A) (A) (A) (A)
                 (A) (A) (A) (A) (A) (A) (A) (A) (A) (A) (A) (A)
                 (A) (A) (A) (A) (A) (A) (A) (A) (A) (A) (A) (A)
                 (A) (A) (A) (A) (A) (A) (A) (A) (A) (A) (A) (A)
                 (A) (A) (A) (A) (A) (A) (A) (A) (A) (A) (A) (A)
                 (A) (A) (A) (A) (A) (A) (A) (A) (A) (A) (A) (A)
                 (A) (A) (A) (A) (A) (A) (A) (A) (A) (A) (A) (A)
                 (A) (A) (A) (A) (A) (A) (A) (A) (A) (A) (A) (A)
                 (A) (A) (A) (A) (A) (A) (A) (A) (A) (A) (A) (A)
                 (A) (A) (A) (A) (A) (A) (A) (A) (A) (A) (A) (A)
                 (A) (A) (A) (A) (A) (A) (A) (A) (A) (A) (A) (A)
                 (A) (A) (A) (A) (A) (A) (A) (A) (A) (A) (A) (A)
                 (A) (A) (A) (A) (A) (A) (A) (A) (A) (A) (A) (A)
                 (A) (A) (A) (A) (A) (A) (A) (A) (A) (A) (A) (A)
                 (A) (A) (A) (A) (A) (A) (A) (A) (A) (A) (A) (A)
                 (A) (A) (A) (A) (A) (A) (A) (A) (A) (A) (A) (A)
                 (A) (A) (A) (A) (A) (A) (A) (A) (A) (A) (A) (A)
                 (A) (A) (A) (A) (A) (A) (A) (A) (A) (A) (A) (A)
                 (A) (A) (A) (A) (A) (A) (A) (A) (A) (A) (A) (A)
                 (A) (A) (A) (A) (A) (A) (A) (A) (A) (A) (A) (A)
                 (A) (A) (A) (A) (A) (A) (A) (A) (A) (A) (A) (A)
                 (A) (A) (A)
 The electronic state is 6-A.
 Alpha  occ. eigenvalues -- -256.39881 -30.30944 -26.13871 -26.13869 -26.13824
 Alpha  occ. eigenvalues --  -14.51550 -14.51435 -14.46193 -14.46018 -14.43578
 Alpha  occ. eigenvalues --  -14.43573 -14.43501 -14.43488 -10.35988 -10.35820
 Alpha  occ. eigenvalues --  -10.33422 -10.33286 -10.31910 -10.31892 -10.31759
 Alpha  occ. eigenvalues --  -10.31720 -10.31667 -10.31656 -10.31629 -10.31613
 Alpha  occ. eigenvalues --  -10.30815 -10.30661 -10.29276 -10.29186 -10.29100
 Alpha  occ. eigenvalues --  -10.29000 -10.28839 -10.28837 -10.28822 -10.28760
 Alpha  occ. eigenvalues --  -10.28755 -10.28732 -10.28725 -10.28725 -10.28658
 Alpha  occ. eigenvalues --  -10.28620 -10.28442 -10.28337 -10.27351 -10.27347
 Alpha  occ. eigenvalues --  -10.27338 -10.27336 -10.27328 -10.27113 -10.27049
 Alpha  occ. eigenvalues --  -10.27011  -3.76445  -2.53066  -2.53060  -2.52956
 Alpha  occ. eigenvalues --   -1.15465  -1.15341  -1.08101  -1.07058  -1.07046
 Alpha  occ. eigenvalues --   -1.06074  -1.01350  -1.01160  -0.92733  -0.91632
 Alpha  occ. eigenvalues --   -0.91344  -0.90730  -0.90418  -0.89952  -0.89893
 Alpha  occ. eigenvalues --   -0.89541  -0.89450  -0.86337  -0.85136  -0.84404
 Alpha  occ. eigenvalues --   -0.83731  -0.82343  -0.81180  -0.81060  -0.80414
 Alpha  occ. eigenvalues --   -0.79557  -0.78002  -0.77722  -0.77591  -0.74937
 Alpha  occ. eigenvalues --   -0.74605  -0.74490  -0.74298  -0.71241  -0.71137
 Alpha  occ. eigenvalues --   -0.70256  -0.69911  -0.67879  -0.67556  -0.65921
 Alpha  occ. eigenvalues --   -0.65812  -0.64443  -0.64087  -0.63521  -0.62812
 Alpha  occ. eigenvalues --   -0.61325  -0.61119  -0.60842  -0.60443  -0.59360
 Alpha  occ. eigenvalues --   -0.58186  -0.57920  -0.57900  -0.57455  -0.57175
 Alpha  occ. eigenvalues --   -0.56656  -0.55638  -0.55149  -0.54857  -0.54705
 Alpha  occ. eigenvalues --   -0.54614  -0.54328  -0.53612  -0.53311  -0.53279
 Alpha  occ. eigenvalues --   -0.53208  -0.52905  -0.52694  -0.52567  -0.52306
 Alpha  occ. eigenvalues --   -0.52197  -0.52046  -0.51866  -0.51606  -0.51511
 Alpha  occ. eigenvalues --   -0.50862  -0.50833  -0.50691  -0.50571  -0.50455
 Alpha  occ. eigenvalues --   -0.50147  -0.50028  -0.49545  -0.49309  -0.49194
 Alpha  occ. eigenvalues --   -0.48946  -0.48906  -0.48549  -0.48331  -0.48188
 Alpha  occ. eigenvalues --   -0.48049  -0.47752  -0.47415  -0.47180  -0.46452
 Alpha  occ. eigenvalues --   -0.46229  -0.46055  -0.45420  -0.45016  -0.44497
 Alpha  occ. eigenvalues --   -0.44350  -0.43359  -0.43151  -0.42348  -0.42264
 Alpha  occ. eigenvalues --   -0.41995  -0.40494  -0.40372  -0.39057  -0.38714
 Alpha  occ. eigenvalues --   -0.36907  -0.36864  -0.33871  -0.33806  -0.33200
 Alpha  occ. eigenvalues --   -0.32914  -0.32815  -0.32026  -0.31712  -0.31273
 Alpha  occ. eigenvalues --   -0.28938  -0.28222
 Alpha virt. eigenvalues --   -0.17134  -0.17041  -0.11497  -0.08848  -0.08498
 Alpha virt. eigenvalues --   -0.08403  -0.07336  -0.06214  -0.05126  -0.04978
 Alpha virt. eigenvalues --   -0.04760  -0.04595  -0.04010  -0.03431  -0.02975
 Alpha virt. eigenvalues --   -0.02472  -0.01931  -0.01762  -0.01507  -0.01405
 Alpha virt. eigenvalues --   -0.00629  -0.00408  -0.00247   0.00410   0.00576
 Alpha virt. eigenvalues --    0.00800   0.00968   0.01235   0.01533   0.02002
 Alpha virt. eigenvalues --    0.02369   0.02457   0.02876   0.03060   0.03145
 Alpha virt. eigenvalues --    0.03439   0.03687   0.04004   0.04025   0.04142
 Alpha virt. eigenvalues --    0.04382   0.04500   0.04677   0.04896   0.04963
 Alpha virt. eigenvalues --    0.05321   0.05380   0.05738   0.05820   0.06146
 Alpha virt. eigenvalues --    0.06266   0.06276   0.06468   0.06763   0.07226
 Alpha virt. eigenvalues --    0.07414   0.07510   0.07785   0.08065   0.08116
 Alpha virt. eigenvalues --    0.08381   0.08484   0.08621   0.08834   0.09122
 Alpha virt. eigenvalues --    0.09220   0.09324   0.09892   0.09985   0.10413
 Alpha virt. eigenvalues --    0.10890   0.10949   0.11104   0.11213   0.11314
 Alpha virt. eigenvalues --    0.11622   0.11892   0.12015   0.12439   0.12590
 Alpha virt. eigenvalues --    0.12779   0.13271   0.13497   0.13628   0.13711
 Alpha virt. eigenvalues --    0.14115   0.14253   0.14725   0.14888   0.15121
 Alpha virt. eigenvalues --    0.15190   0.15386   0.15918   0.16222   0.16546
 Alpha virt. eigenvalues --    0.16692   0.16973   0.17326   0.17442   0.17665
 Alpha virt. eigenvalues --    0.17830   0.18339   0.18384   0.18593   0.18709
 Alpha virt. eigenvalues --    0.19159   0.19383   0.19646   0.19936   0.20082
 Alpha virt. eigenvalues --    0.20389   0.20785   0.20865   0.21190   0.21259
 Alpha virt. eigenvalues --    0.21412   0.21671   0.21980   0.22114   0.22279
 Alpha virt. eigenvalues --    0.22454   0.22787   0.22996   0.23349   0.23605
 Alpha virt. eigenvalues --    0.23955   0.23985   0.24180   0.24519   0.24693
 Alpha virt. eigenvalues --    0.24857   0.25119   0.25364   0.25709   0.26203
 Alpha virt. eigenvalues --    0.26555   0.26986   0.27110   0.27413   0.27496
 Alpha virt. eigenvalues --    0.27729   0.27928   0.28090   0.28289   0.28597
 Alpha virt. eigenvalues --    0.28811   0.28926   0.29183   0.29360   0.29596
 Alpha virt. eigenvalues --    0.30013   0.30072   0.30744   0.30931   0.31136
 Alpha virt. eigenvalues --    0.31286   0.31514   0.31682   0.31794   0.32253
 Alpha virt. eigenvalues --    0.32361   0.32561   0.32838   0.32904   0.33177
 Alpha virt. eigenvalues --    0.33300   0.33462   0.33602   0.33718   0.33780
 Alpha virt. eigenvalues --    0.34015   0.34283   0.34455   0.34572   0.34822
 Alpha virt. eigenvalues --    0.34912   0.35119   0.35353   0.35441   0.35470
 Alpha virt. eigenvalues --    0.35754   0.36039   0.36349   0.36561   0.36734
 Alpha virt. eigenvalues --    0.36773   0.37237   0.37304   0.37692   0.37851
 Alpha virt. eigenvalues --    0.38078   0.38188   0.38395   0.38547   0.38600
 Alpha virt. eigenvalues --    0.38896   0.39063   0.39255   0.39434   0.39564
 Alpha virt. eigenvalues --    0.39796   0.39943   0.40222   0.40260   0.40541
 Alpha virt. eigenvalues --    0.40620   0.40765   0.41006   0.41279   0.41422
 Alpha virt. eigenvalues --    0.41574   0.41818   0.42242   0.42364   0.42615
 Alpha virt. eigenvalues --    0.42656   0.42829   0.43219   0.43444   0.43651
 Alpha virt. eigenvalues --    0.43768   0.44030   0.44234   0.44277   0.44536
 Alpha virt. eigenvalues --    0.44695   0.45044   0.45286   0.45410   0.45637
 Alpha virt. eigenvalues --    0.46038   0.46240   0.46465   0.46524   0.46934
 Alpha virt. eigenvalues --    0.47000   0.47266   0.47573   0.47925   0.48022
 Alpha virt. eigenvalues --    0.48110   0.48243   0.48812   0.48995   0.49267
 Alpha virt. eigenvalues --    0.49461   0.49633   0.49702   0.49768   0.49993
 Alpha virt. eigenvalues --    0.50278   0.50877   0.51296   0.51387   0.51594
 Alpha virt. eigenvalues --    0.51829   0.52227   0.52434   0.52605   0.53161
 Alpha virt. eigenvalues --    0.53379   0.53679   0.53919   0.54503   0.54671
 Alpha virt. eigenvalues --    0.54892   0.55146   0.55365   0.55809   0.56028
 Alpha virt. eigenvalues --    0.56365   0.56570   0.56918   0.56997   0.57172
 Alpha virt. eigenvalues --    0.57273   0.57668   0.58052   0.58491   0.58635
 Alpha virt. eigenvalues --    0.59011   0.59282   0.59906   0.60028   0.60468
 Alpha virt. eigenvalues --    0.60814   0.61358   0.61502   0.61588   0.62424
 Alpha virt. eigenvalues --    0.62648   0.62735   0.63211   0.63491   0.63640
 Alpha virt. eigenvalues --    0.63868   0.64280   0.64758   0.65027   0.65141
 Alpha virt. eigenvalues --    0.65657   0.65798   0.66356   0.66538   0.66792
 Alpha virt. eigenvalues --    0.66900   0.67174   0.67561   0.67964   0.68221
 Alpha virt. eigenvalues --    0.68299   0.68563   0.69062   0.69279   0.69731
 Alpha virt. eigenvalues --    0.69780   0.70399   0.70588   0.70717   0.71231
 Alpha virt. eigenvalues --    0.71611   0.72068   0.72202   0.72508   0.73066
 Alpha virt. eigenvalues --    0.73305   0.73564   0.74027   0.74280   0.74585
 Alpha virt. eigenvalues --    0.75118   0.75285   0.75676   0.75879   0.76295
 Alpha virt. eigenvalues --    0.76769   0.77071   0.77319   0.77865   0.78189
 Alpha virt. eigenvalues --    0.78490   0.78594   0.78866   0.79272   0.79920
 Alpha virt. eigenvalues --    0.80226   0.80721   0.80799   0.80954   0.81348
 Alpha virt. eigenvalues --    0.82075   0.82199   0.82516   0.83068   0.83287
 Alpha virt. eigenvalues --    0.83346   0.83661   0.83757   0.84232   0.84297
 Alpha virt. eigenvalues --    0.85391   0.85481   0.86065   0.86130   0.86319
 Alpha virt. eigenvalues --    0.86551   0.86853   0.87023   0.87657   0.87946
 Alpha virt. eigenvalues --    0.88085   0.88318   0.88680   0.89008   0.89358
 Alpha virt. eigenvalues --    0.89449   0.89793   0.90035   0.90548   0.90855
 Alpha virt. eigenvalues --    0.91020   0.91369   0.91994   0.92108   0.92386
 Alpha virt. eigenvalues --    0.92475   0.92758   0.92952   0.93415   0.93933
 Alpha virt. eigenvalues --    0.94332   0.94570   0.94730   0.94904   0.95718
 Alpha virt. eigenvalues --    0.95840   0.95969   0.96241   0.96796   0.96894
 Alpha virt. eigenvalues --    0.96989   0.97375   0.97660   0.98213   0.98258
 Alpha virt. eigenvalues --    0.98452   0.98805   0.99168   0.99233   0.99756
 Alpha virt. eigenvalues --    0.99949   1.00958   1.01353   1.01465   1.01796
 Alpha virt. eigenvalues --    1.01873   1.02484   1.02892   1.03278   1.03565
 Alpha virt. eigenvalues --    1.04408   1.04803   1.05264   1.05615   1.06066
 Alpha virt. eigenvalues --    1.06415   1.06899   1.07046   1.07415   1.07809
 Alpha virt. eigenvalues --    1.08142   1.08589   1.08681   1.08875   1.09596
 Alpha virt. eigenvalues --    1.09765   1.10163   1.10443   1.10716   1.11274
 Alpha virt. eigenvalues --    1.11377   1.11717   1.11835   1.12324   1.12575
 Alpha virt. eigenvalues --    1.13022   1.13198   1.13616   1.14061   1.14687
 Alpha virt. eigenvalues --    1.15224   1.15471   1.15714   1.15900   1.16409
 Alpha virt. eigenvalues --    1.16707   1.17218   1.17368   1.17796   1.17918
 Alpha virt. eigenvalues --    1.18140   1.18352   1.18672   1.19103   1.19701
 Alpha virt. eigenvalues --    1.19982   1.20383   1.20843   1.21189   1.21330
 Alpha virt. eigenvalues --    1.21391   1.21813   1.22574   1.22941   1.23343
 Alpha virt. eigenvalues --    1.24078   1.24323   1.24598   1.25037   1.25481
 Alpha virt. eigenvalues --    1.25777   1.26142   1.26985   1.27334   1.27407
 Alpha virt. eigenvalues --    1.28043   1.28289   1.29574   1.29873   1.30233
 Alpha virt. eigenvalues --    1.30622   1.30797   1.31128   1.31708   1.31896
 Alpha virt. eigenvalues --    1.32422   1.32944   1.33785   1.34003   1.34232
 Alpha virt. eigenvalues --    1.35284   1.35431   1.35669   1.35942   1.36554
 Alpha virt. eigenvalues --    1.36747   1.37279   1.37329   1.37667   1.38018
 Alpha virt. eigenvalues --    1.38719   1.38888   1.39366   1.39495   1.40400
 Alpha virt. eigenvalues --    1.40420   1.40860   1.41102   1.41340   1.41573
 Alpha virt. eigenvalues --    1.41861   1.42086   1.42223   1.42514   1.42873
 Alpha virt. eigenvalues --    1.43250   1.43679   1.43905   1.44112   1.44312
 Alpha virt. eigenvalues --    1.44404   1.44561   1.44792   1.44917   1.45261
 Alpha virt. eigenvalues --    1.45565   1.45940   1.46101   1.46350   1.46462
 Alpha virt. eigenvalues --    1.46938   1.47165   1.47308   1.47580   1.47674
 Alpha virt. eigenvalues --    1.47855   1.48241   1.48362   1.48886   1.49067
 Alpha virt. eigenvalues --    1.49231   1.49325   1.49796   1.50003   1.50184
 Alpha virt. eigenvalues --    1.50550   1.50668   1.51263   1.51722   1.52169
 Alpha virt. eigenvalues --    1.52297   1.52479   1.52805   1.53069   1.53242
 Alpha virt. eigenvalues --    1.53604   1.53754   1.54098   1.54260   1.54444
 Alpha virt. eigenvalues --    1.54638   1.54941   1.55211   1.55472   1.55567
 Alpha virt. eigenvalues --    1.56252   1.56482   1.56999   1.57332   1.57491
 Alpha virt. eigenvalues --    1.57985   1.58301   1.58593   1.58756   1.58898
 Alpha virt. eigenvalues --    1.59190   1.59573   1.59817   1.60151   1.60394
 Alpha virt. eigenvalues --    1.60952   1.60981   1.61328   1.61619   1.61815
 Alpha virt. eigenvalues --    1.62036   1.62218   1.62622   1.63221   1.63458
 Alpha virt. eigenvalues --    1.64010   1.64398   1.64792   1.64968   1.65085
 Alpha virt. eigenvalues --    1.65679   1.65964   1.66786   1.67052   1.67822
 Alpha virt. eigenvalues --    1.68501   1.69394   1.70325   1.70509   1.70810
 Alpha virt. eigenvalues --    1.71069   1.71725   1.72251   1.72830   1.72992
 Alpha virt. eigenvalues --    1.73565   1.74097   1.74680   1.74842   1.75451
 Alpha virt. eigenvalues --    1.75575   1.75912   1.76126   1.76878   1.76961
 Alpha virt. eigenvalues --    1.77080   1.77580   1.77852   1.78273   1.78716
 Alpha virt. eigenvalues --    1.79408   1.79808   1.80373   1.80557   1.81161
 Alpha virt. eigenvalues --    1.81374   1.81876   1.82387   1.82822   1.83453
 Alpha virt. eigenvalues --    1.83727   1.84163   1.84670   1.85537   1.86220
 Alpha virt. eigenvalues --    1.86560   1.86736   1.87067   1.87539   1.87849
 Alpha virt. eigenvalues --    1.87956   1.88311   1.88537   1.88633   1.88858
 Alpha virt. eigenvalues --    1.89569   1.89809   1.90290   1.90820   1.91381
 Alpha virt. eigenvalues --    1.91927   1.91967   1.92273   1.92532   1.93074
 Alpha virt. eigenvalues --    1.93456   1.93668   1.94448   1.95165   1.95509
 Alpha virt. eigenvalues --    1.95690   1.96528   1.96704   1.97045   1.97459
 Alpha virt. eigenvalues --    1.97579   1.98375   1.98733   1.99401   2.00099
 Alpha virt. eigenvalues --    2.00276   2.00488   2.00930   2.00972   2.01272
 Alpha virt. eigenvalues --    2.01451   2.01845   2.02385   2.02743   2.02813
 Alpha virt. eigenvalues --    2.03446   2.03735   2.04081   2.04433   2.04524
 Alpha virt. eigenvalues --    2.05525   2.05838   2.06120   2.06291   2.06801
 Alpha virt. eigenvalues --    2.06989   2.08186   2.08373   2.09108   2.09466
 Alpha virt. eigenvalues --    2.09680   2.10034   2.10466   2.10746   2.11386
 Alpha virt. eigenvalues --    2.11860   2.11985   2.12320   2.12653   2.13067
 Alpha virt. eigenvalues --    2.13520   2.13871   2.14335   2.15277   2.15771
 Alpha virt. eigenvalues --    2.15990   2.16798   2.17460   2.17777   2.17961
 Alpha virt. eigenvalues --    2.18421   2.18559   2.18936   2.19365   2.19935
 Alpha virt. eigenvalues --    2.20263   2.20454   2.20920   2.20934   2.21866
 Alpha virt. eigenvalues --    2.22090   2.22434   2.22475   2.23152   2.23863
 Alpha virt. eigenvalues --    2.24168   2.24557   2.25091   2.25592   2.25963
 Alpha virt. eigenvalues --    2.26231   2.26503   2.26798   2.27234   2.27546
 Alpha virt. eigenvalues --    2.27895   2.28124   2.28719   2.28949   2.29164
 Alpha virt. eigenvalues --    2.29459   2.29851   2.30142   2.30253   2.30847
 Alpha virt. eigenvalues --    2.31313   2.32003   2.32393   2.32770   2.33155
 Alpha virt. eigenvalues --    2.33449   2.33958   2.34409   2.34549   2.34817
 Alpha virt. eigenvalues --    2.35381   2.36180   2.36469   2.36689   2.37058
 Alpha virt. eigenvalues --    2.37474   2.37854   2.38367   2.38679   2.38745
 Alpha virt. eigenvalues --    2.39177   2.39369   2.39656   2.39805   2.40180
 Alpha virt. eigenvalues --    2.40950   2.41486   2.41973   2.42116   2.42910
 Alpha virt. eigenvalues --    2.43518   2.43667   2.43943   2.44320   2.44513
 Alpha virt. eigenvalues --    2.44612   2.44965   2.45273   2.45430   2.46330
 Alpha virt. eigenvalues --    2.46520   2.46859   2.47456   2.47928   2.48049
 Alpha virt. eigenvalues --    2.48465   2.48677   2.48700   2.49476   2.49849
 Alpha virt. eigenvalues --    2.50482   2.51028   2.51055   2.51676   2.51921
 Alpha virt. eigenvalues --    2.52108   2.52164   2.52451   2.53173   2.53617
 Alpha virt. eigenvalues --    2.53890   2.54177   2.55223   2.55437   2.55718
 Alpha virt. eigenvalues --    2.56042   2.56140   2.56426   2.56756   2.56962
 Alpha virt. eigenvalues --    2.57401   2.57836   2.58305   2.58415   2.58608
 Alpha virt. eigenvalues --    2.59330   2.59671   2.59904   2.60303   2.60566
 Alpha virt. eigenvalues --    2.60978   2.61056   2.61758   2.62215   2.62838
 Alpha virt. eigenvalues --    2.63132   2.63367   2.63449   2.63549   2.64040
 Alpha virt. eigenvalues --    2.64316   2.65341   2.65464   2.65930   2.66445
 Alpha virt. eigenvalues --    2.66741   2.66814   2.67747   2.68214   2.68461
 Alpha virt. eigenvalues --    2.69157   2.69199   2.69678   2.70374   2.70588
 Alpha virt. eigenvalues --    2.70831   2.71434   2.71895   2.72187   2.72675
 Alpha virt. eigenvalues --    2.72746   2.73023   2.73668   2.74040   2.74403
 Alpha virt. eigenvalues --    2.74699   2.74931   2.75271   2.75411   2.75819
 Alpha virt. eigenvalues --    2.76161   2.77188   2.77253   2.77613   2.77942
 Alpha virt. eigenvalues --    2.78239   2.78968   2.79168   2.79284   2.79769
 Alpha virt. eigenvalues --    2.80101   2.80272   2.80893   2.81213   2.81333
 Alpha virt. eigenvalues --    2.81629   2.81907   2.82010   2.82748   2.83091
 Alpha virt. eigenvalues --    2.83186   2.83540   2.83947   2.84128   2.84654
 Alpha virt. eigenvalues --    2.85023   2.85256   2.85404   2.85857   2.86075
 Alpha virt. eigenvalues --    2.86248   2.87011   2.87267   2.87669   2.87772
 Alpha virt. eigenvalues --    2.88057   2.88683   2.88963   2.89246   2.89483
 Alpha virt. eigenvalues --    2.89612   2.89709   2.90370   2.90746   2.91196
 Alpha virt. eigenvalues --    2.91513   2.91667   2.92019   2.92373   2.92931
 Alpha virt. eigenvalues --    2.93049   2.93376   2.93550   2.94010   2.94597
 Alpha virt. eigenvalues --    2.94755   2.94858   2.95765   2.95941   2.96249
 Alpha virt. eigenvalues --    2.96676   2.96844   2.97247   2.97414   2.97859
 Alpha virt. eigenvalues --    2.98056   2.98449   2.98809   2.98981   2.99190
 Alpha virt. eigenvalues --    2.99718   2.99791   2.99954   3.00035   3.00259
 Alpha virt. eigenvalues --    3.00738   3.01449   3.01796   3.01864   3.02102
 Alpha virt. eigenvalues --    3.02409   3.02647   3.02832   3.03335   3.03730
 Alpha virt. eigenvalues --    3.03837   3.04201   3.04514   3.04743   3.05187
 Alpha virt. eigenvalues --    3.05512   3.05744   3.05943   3.06216   3.06482
 Alpha virt. eigenvalues --    3.06807   3.06905   3.07312   3.07503   3.07943
 Alpha virt. eigenvalues --    3.08385   3.08598   3.08863   3.09356   3.09439
 Alpha virt. eigenvalues --    3.09819   3.10113   3.10445   3.10751   3.11199
 Alpha virt. eigenvalues --    3.11545   3.11809   3.11942   3.12141   3.12662
 Alpha virt. eigenvalues --    3.12772   3.13501   3.13636   3.13762   3.14212
 Alpha virt. eigenvalues --    3.14472   3.14683   3.14959   3.15409   3.15630
 Alpha virt. eigenvalues --    3.16097   3.16257   3.16360   3.16720   3.16900
 Alpha virt. eigenvalues --    3.16991   3.17353   3.17537   3.17704   3.18097
 Alpha virt. eigenvalues --    3.18225   3.18397   3.18696   3.18805   3.18945
 Alpha virt. eigenvalues --    3.19640   3.19783   3.20018   3.20443   3.20549
 Alpha virt. eigenvalues --    3.20847   3.21077   3.21418   3.21760   3.21951
 Alpha virt. eigenvalues --    3.21972   3.22186   3.22586   3.22628   3.22770
 Alpha virt. eigenvalues --    3.22983   3.23151   3.23754   3.24068   3.24251
 Alpha virt. eigenvalues --    3.24496   3.24656   3.24721   3.25203   3.25270
 Alpha virt. eigenvalues --    3.25659   3.25870   3.26311   3.26635   3.26775
 Alpha virt. eigenvalues --    3.26963   3.27551   3.27659   3.27751   3.27914
 Alpha virt. eigenvalues --    3.28126   3.28438   3.28582   3.29011   3.29490
 Alpha virt. eigenvalues --    3.29710   3.29888   3.30347   3.30408   3.30555
 Alpha virt. eigenvalues --    3.30922   3.31017   3.31185   3.31489   3.31968
 Alpha virt. eigenvalues --    3.32903   3.33068   3.33488   3.33714   3.33985
 Alpha virt. eigenvalues --    3.34214   3.34530   3.34824   3.35253   3.35552
 Alpha virt. eigenvalues --    3.36404   3.36619   3.36874   3.37187   3.37580
 Alpha virt. eigenvalues --    3.37984   3.38505   3.38704   3.39692   3.39810
 Alpha virt. eigenvalues --    3.40099   3.40556   3.40910   3.41513   3.41797
 Alpha virt. eigenvalues --    3.42057   3.42383   3.42888   3.43149   3.43832
 Alpha virt. eigenvalues --    3.44170   3.44324   3.44555   3.44859   3.45383
 Alpha virt. eigenvalues --    3.45513   3.46060   3.46336   3.46646   3.47315
 Alpha virt. eigenvalues --    3.47592   3.47996   3.48329   3.48798   3.49041
 Alpha virt. eigenvalues --    3.49799   3.50202   3.50471   3.50742   3.51385
 Alpha virt. eigenvalues --    3.51744   3.51981   3.52153   3.52608   3.53101
 Alpha virt. eigenvalues --    3.53688   3.54107   3.54706   3.55019   3.55196
 Alpha virt. eigenvalues --    3.55708   3.55929   3.56499   3.56999   3.57108
 Alpha virt. eigenvalues --    3.57847   3.58150   3.58660   3.58931   3.59149
 Alpha virt. eigenvalues --    3.59590   3.60265   3.60466   3.60901   3.61255
 Alpha virt. eigenvalues --    3.61673   3.62081   3.62253   3.62426   3.62625
 Alpha virt. eigenvalues --    3.62836   3.63182   3.63324   3.63617   3.64269
 Alpha virt. eigenvalues --    3.64815   3.65397   3.65477   3.65866   3.66254
 Alpha virt. eigenvalues --    3.66509   3.67808   3.68197   3.68539   3.69338
 Alpha virt. eigenvalues --    3.69926   3.70154   3.70400   3.70801   3.71285
 Alpha virt. eigenvalues --    3.71846   3.72272   3.72732   3.72899   3.73267
 Alpha virt. eigenvalues --    3.73736   3.74221   3.74814   3.75483   3.75946
 Alpha virt. eigenvalues --    3.76630   3.77159   3.78381   3.78925   3.79121
 Alpha virt. eigenvalues --    3.79354   3.79989   3.80432   3.80642   3.80987
 Alpha virt. eigenvalues --    3.81247   3.82033   3.82250   3.82494   3.82931
 Alpha virt. eigenvalues --    3.83258   3.83550   3.84657   3.85061   3.85490
 Alpha virt. eigenvalues --    3.86243   3.87315   3.87371   3.88329   3.88762
 Alpha virt. eigenvalues --    3.89013   3.89372   3.89458   3.90136   3.90411
 Alpha virt. eigenvalues --    3.90923   3.91047   3.91627   3.92150   3.92715
 Alpha virt. eigenvalues --    3.93011   3.93495   3.93603   3.94748   3.95182
 Alpha virt. eigenvalues --    3.95427   3.96107   3.96919   3.97570   3.98627
 Alpha virt. eigenvalues --    4.00012   4.01434   4.01731   4.01888   4.02766
 Alpha virt. eigenvalues --    4.03138   4.04012   4.04409   4.04943   4.05357
 Alpha virt. eigenvalues --    4.06294   4.07154   4.07557   4.07632   4.08258
 Alpha virt. eigenvalues --    4.09157   4.09257   4.10056   4.10447   4.10766
 Alpha virt. eigenvalues --    4.11206   4.11935   4.11964   4.12220   4.13194
 Alpha virt. eigenvalues --    4.13311   4.13601   4.14136   4.14603   4.15252
 Alpha virt. eigenvalues --    4.15811   4.16486   4.16614   4.17592   4.18047
 Alpha virt. eigenvalues --    4.18382   4.18479   4.19963   4.20163   4.21534
 Alpha virt. eigenvalues --    4.22337   4.22674   4.23221   4.23623   4.23959
 Alpha virt. eigenvalues --    4.24552   4.24807   4.25212   4.25859   4.26185
 Alpha virt. eigenvalues --    4.27070   4.27538   4.28517   4.29490   4.30052
 Alpha virt. eigenvalues --    4.30220   4.30698   4.31319   4.31501   4.31773
 Alpha virt. eigenvalues --    4.32737   4.33010   4.33146   4.33630   4.34139
 Alpha virt. eigenvalues --    4.34599   4.34769   4.34931   4.35094   4.35680
 Alpha virt. eigenvalues --    4.36038   4.36428   4.36734   4.36876   4.37354
 Alpha virt. eigenvalues --    4.38414   4.39091   4.39245   4.39942   4.41386
 Alpha virt. eigenvalues --    4.42700   4.43193   4.44001   4.44307   4.46259
 Alpha virt. eigenvalues --    4.46318   4.47211   4.48677   4.48826   4.50290
 Alpha virt. eigenvalues --    4.50761   4.51135   4.53299   4.53720   4.54109
 Alpha virt. eigenvalues --    4.54679   4.55822   4.56538   4.58174   4.58629
 Alpha virt. eigenvalues --    4.59240   4.59678   4.59885   4.60904   4.61379
 Alpha virt. eigenvalues --    4.61826   4.62659   4.63235   4.63664   4.63992
 Alpha virt. eigenvalues --    4.64547   4.64978   4.65515   4.65901   4.67203
 Alpha virt. eigenvalues --    4.67253   4.68383   4.70069   4.70345   4.71247
 Alpha virt. eigenvalues --    4.72078   4.72512   4.73295   4.73970   4.74422
 Alpha virt. eigenvalues --    4.74629   4.75019   4.75729   4.76297   4.76407
 Alpha virt. eigenvalues --    4.76992   4.77563   4.78343   4.78609   4.79710
 Alpha virt. eigenvalues --    4.81552   4.81892   4.82663   4.83960   4.84287
 Alpha virt. eigenvalues --    4.84948   4.85164   4.85272   4.85607   4.87017
 Alpha virt. eigenvalues --    4.87443   4.88343   4.88966   4.89151   4.89713
 Alpha virt. eigenvalues --    4.91016   4.92240   4.92638   4.93094   4.93586
 Alpha virt. eigenvalues --    4.93941   4.94583   4.95835   4.96205   4.96623
 Alpha virt. eigenvalues --    4.98694   4.98818   4.99030   4.99661   5.00943
 Alpha virt. eigenvalues --    5.01717   5.02074   5.02560   5.03385   5.03915
 Alpha virt. eigenvalues --    5.05780   5.08428   5.09870   5.10209   5.10518
 Alpha virt. eigenvalues --    5.11330   5.11957   5.13003   5.14043   5.14226
 Alpha virt. eigenvalues --    5.14914   5.16735   5.18139   5.18444   5.19179
 Alpha virt. eigenvalues --    5.20962   5.21104   5.22647   5.24408   5.25942
 Alpha virt. eigenvalues --    5.26761   5.27327   5.28069   5.28188   5.28912
 Alpha virt. eigenvalues --    5.29447   5.29518   5.30074   5.30310   5.32632
 Alpha virt. eigenvalues --    5.34355   5.34975   5.35643   5.36712   5.37280
 Alpha virt. eigenvalues --    5.38000   5.40136   5.40812   5.41164   5.42139
 Alpha virt. eigenvalues --    5.42592   5.43658   5.46573   5.48172   5.49907
 Alpha virt. eigenvalues --    5.50816   5.51965   5.52786   5.53214   5.54371
 Alpha virt. eigenvalues --    5.54760   5.54960   5.56320   5.56873   5.57781
 Alpha virt. eigenvalues --    5.58141   5.59180   5.61057   5.63080   5.64478
 Alpha virt. eigenvalues --    5.65408   5.67507   5.71512   5.72037   5.76619
 Alpha virt. eigenvalues --    5.80882   5.85666   5.87253   5.88840   5.89904
 Alpha virt. eigenvalues --    5.91447   5.91753   5.93113   5.93717   5.96509
 Alpha virt. eigenvalues --    5.99692   6.00923   6.04183   6.04560   6.05969
 Alpha virt. eigenvalues --    6.07352   6.08532   6.09543   6.13893   6.17094
 Alpha virt. eigenvalues --    6.24725   6.25408   6.31450  22.26623  22.27806
 Alpha virt. eigenvalues --   22.35745  22.36015  22.37349  22.38141  22.44578
 Alpha virt. eigenvalues --   22.45953  22.53386  22.53743  22.72796  22.73834
 Alpha virt. eigenvalues --   22.78308  22.78579  22.84798  22.85439  22.86842
 Alpha virt. eigenvalues --   22.88087  22.90012  22.94257  22.94563  22.99884
 Alpha virt. eigenvalues --   23.01463  23.05472  23.17759  23.19678  23.20469
 Alpha virt. eigenvalues --   23.21078  23.22432  23.32428  23.36662  23.41837
 Alpha virt. eigenvalues --   23.43007  23.47535  23.63926  23.69151  23.69486
 Alpha virt. eigenvalues --   23.79740  32.31596  32.32921  32.70913  32.77580
 Alpha virt. eigenvalues --   32.94092  32.94921  32.96052  33.34190
  Beta  occ. eigenvalues -- -256.39732 -30.21219 -26.05741 -26.05737 -26.05716
  Beta  occ. eigenvalues --  -14.51535 -14.51420 -14.45918 -14.45733 -14.43276
  Beta  occ. eigenvalues --  -14.43272 -14.43194 -14.43180 -10.35968 -10.35803
  Beta  occ. eigenvalues --  -10.33411 -10.33274 -10.31889 -10.31874 -10.31732
  Beta  occ. eigenvalues --  -10.31694 -10.31645 -10.31633 -10.31605 -10.31595
  Beta  occ. eigenvalues --  -10.30812 -10.30659 -10.29274 -10.29184 -10.29071
  Beta  occ. eigenvalues --  -10.28975 -10.28808 -10.28806 -10.28791 -10.28736
  Beta  occ. eigenvalues --  -10.28730 -10.28730 -10.28726 -10.28698 -10.28666
  Beta  occ. eigenvalues --  -10.28620 -10.28447 -10.28341 -10.27351 -10.27346
  Beta  occ. eigenvalues --  -10.27338 -10.27335 -10.27327 -10.27112 -10.27038
  Beta  occ. eigenvalues --  -10.27001  -3.53584  -2.28666  -2.28617  -2.28604
  Beta  occ. eigenvalues --   -1.15307  -1.15186  -1.07746  -1.06713  -1.06698
  Beta  occ. eigenvalues --   -1.05705  -1.01060  -1.00884  -0.92676  -0.91482
  Beta  occ. eigenvalues --   -0.91207  -0.90561  -0.90245  -0.89857  -0.89792
  Beta  occ. eigenvalues --   -0.89499  -0.89408  -0.86280  -0.85070  -0.84352
  Beta  occ. eigenvalues --   -0.83677  -0.82314  -0.81097  -0.80984  -0.80312
  Beta  occ. eigenvalues --   -0.79429  -0.77839  -0.77606  -0.77383  -0.74543
  Beta  occ. eigenvalues --   -0.74488  -0.74287  -0.74214  -0.71146  -0.71048
  Beta  occ. eigenvalues --   -0.70093  -0.69751  -0.67772  -0.67162  -0.65734
  Beta  occ. eigenvalues --   -0.65657  -0.64305  -0.63930  -0.63344  -0.62163
  Beta  occ. eigenvalues --   -0.61140  -0.60798  -0.60320  -0.58286  -0.57879
  Beta  occ. eigenvalues --   -0.57689  -0.57568  -0.57361  -0.57014  -0.56875
  Beta  occ. eigenvalues --   -0.55537  -0.54777  -0.54267  -0.54058  -0.53666
  Beta  occ. eigenvalues --   -0.53469  -0.52809  -0.52718  -0.52637  -0.52517
  Beta  occ. eigenvalues --   -0.52479  -0.52272  -0.52172  -0.52088  -0.51802
  Beta  occ. eigenvalues --   -0.51199  -0.51103  -0.50793  -0.50541  -0.50352
  Beta  occ. eigenvalues --   -0.50133  -0.50013  -0.49619  -0.49545  -0.49368
  Beta  occ. eigenvalues --   -0.49072  -0.48888  -0.48812  -0.48613  -0.48512
  Beta  occ. eigenvalues --   -0.47998  -0.47678  -0.47297  -0.47202  -0.46808
  Beta  occ. eigenvalues --   -0.46735  -0.46247  -0.46175  -0.45097  -0.45005
  Beta  occ. eigenvalues --   -0.44409  -0.44210  -0.43550  -0.43216  -0.42369
  Beta  occ. eigenvalues --   -0.42167  -0.41963  -0.41839  -0.40158  -0.40059
  Beta  occ. eigenvalues --   -0.38857  -0.38549  -0.36900  -0.36849  -0.33886
  Beta  occ. eigenvalues --   -0.33816  -0.33125  -0.32935  -0.32000  -0.31550
  Beta  occ. eigenvalues --   -0.28806  -0.28111
  Beta virt. eigenvalues --   -0.19424  -0.19406  -0.17763  -0.15549  -0.15463
  Beta virt. eigenvalues --   -0.11384  -0.09921  -0.09688  -0.08403  -0.08116
  Beta virt. eigenvalues --   -0.07999  -0.07162  -0.06058  -0.05090  -0.04688
  Beta virt. eigenvalues --   -0.04503  -0.04280  -0.03932  -0.03368  -0.02933
  Beta virt. eigenvalues --   -0.02456  -0.01633  -0.01510  -0.01450  -0.01283
  Beta virt. eigenvalues --   -0.00553  -0.00392  -0.00142   0.00447   0.00608
  Beta virt. eigenvalues --    0.00818   0.01010   0.01292   0.01565   0.02021
  Beta virt. eigenvalues --    0.02394   0.02474   0.02980   0.03129   0.03202
  Beta virt. eigenvalues --    0.03469   0.03723   0.04029   0.04129   0.04266
  Beta virt. eigenvalues --    0.04462   0.04596   0.04701   0.04913   0.04983
  Beta virt. eigenvalues --    0.05363   0.05505   0.05787   0.05882   0.06202
  Beta virt. eigenvalues --    0.06317   0.06392   0.06510   0.06814   0.07268
  Beta virt. eigenvalues --    0.07445   0.07547   0.07833   0.08105   0.08198
  Beta virt. eigenvalues --    0.08476   0.08531   0.08685   0.08878   0.09179
  Beta virt. eigenvalues --    0.09252   0.09369   0.09933   0.10052   0.10561
  Beta virt. eigenvalues --    0.10980   0.11041   0.11195   0.11324   0.11360
  Beta virt. eigenvalues --    0.11673   0.11935   0.12067   0.12502   0.12656
  Beta virt. eigenvalues --    0.12874   0.13314   0.13553   0.13664   0.13781
  Beta virt. eigenvalues --    0.14196   0.14383   0.14825   0.14948   0.15226
  Beta virt. eigenvalues --    0.15409   0.15545   0.16100   0.16462   0.16674
  Beta virt. eigenvalues --    0.17001   0.17178   0.17442   0.17647   0.17835
  Beta virt. eigenvalues --    0.18130   0.18424   0.18526   0.18865   0.19121
  Beta virt. eigenvalues --    0.19366   0.19547   0.19843   0.20089   0.20155
  Beta virt. eigenvalues --    0.20472   0.20879   0.20958   0.21331   0.21425
  Beta virt. eigenvalues --    0.21549   0.21795   0.22114   0.22244   0.22371
  Beta virt. eigenvalues --    0.22660   0.22899   0.23174   0.23465   0.23893
  Beta virt. eigenvalues --    0.24009   0.24161   0.24271   0.24717   0.24799
  Beta virt. eigenvalues --    0.25029   0.25317   0.25843   0.26077   0.26471
  Beta virt. eigenvalues --    0.26709   0.27117   0.27270   0.27552   0.27786
  Beta virt. eigenvalues --    0.27895   0.28132   0.28286   0.28429   0.28711
  Beta virt. eigenvalues --    0.28945   0.29117   0.29258   0.29456   0.29697
  Beta virt. eigenvalues --    0.30123   0.30207   0.30847   0.31096   0.31278
  Beta virt. eigenvalues --    0.31434   0.31735   0.31863   0.31903   0.32342
  Beta virt. eigenvalues --    0.32578   0.32708   0.32938   0.33144   0.33331
  Beta virt. eigenvalues --    0.33472   0.33685   0.33848   0.33909   0.34113
  Beta virt. eigenvalues --    0.34246   0.34408   0.34554   0.34757   0.34898
  Beta virt. eigenvalues --    0.35027   0.35238   0.35573   0.35601   0.35862
  Beta virt. eigenvalues --    0.36023   0.36247   0.36465   0.36753   0.36796
  Beta virt. eigenvalues --    0.36863   0.37311   0.37397   0.37810   0.37996
  Beta virt. eigenvalues --    0.38138   0.38294   0.38523   0.38684   0.38749
  Beta virt. eigenvalues --    0.39034   0.39134   0.39321   0.39508   0.39613
  Beta virt. eigenvalues --    0.39866   0.40025   0.40324   0.40376   0.40666
  Beta virt. eigenvalues --    0.40737   0.40831   0.41089   0.41403   0.41571
  Beta virt. eigenvalues --    0.41638   0.41891   0.42317   0.42469   0.42694
  Beta virt. eigenvalues --    0.42736   0.42910   0.43311   0.43589   0.43722
  Beta virt. eigenvalues --    0.43856   0.44084   0.44322   0.44390   0.44601
  Beta virt. eigenvalues --    0.44805   0.45177   0.45436   0.45555   0.45781
  Beta virt. eigenvalues --    0.46253   0.46306   0.46614   0.46706   0.47012
  Beta virt. eigenvalues --    0.47191   0.47432   0.47666   0.48020   0.48109
  Beta virt. eigenvalues --    0.48202   0.48338   0.48874   0.49090   0.49374
  Beta virt. eigenvalues --    0.49598   0.49737   0.49772   0.49895   0.50135
  Beta virt. eigenvalues --    0.50432   0.50996   0.51429   0.51470   0.51690
  Beta virt. eigenvalues --    0.51930   0.52328   0.52587   0.52672   0.53289
  Beta virt. eigenvalues --    0.53459   0.53949   0.54021   0.54596   0.54852
  Beta virt. eigenvalues --    0.55091   0.55315   0.55495   0.56047   0.56234
  Beta virt. eigenvalues --    0.56549   0.56788   0.57025   0.57159   0.57345
  Beta virt. eigenvalues --    0.57480   0.57814   0.58145   0.58606   0.58745
  Beta virt. eigenvalues --    0.59126   0.59400   0.60040   0.60181   0.60545
  Beta virt. eigenvalues --    0.61001   0.61486   0.61785   0.61831   0.62586
  Beta virt. eigenvalues --    0.62800   0.62962   0.63349   0.63629   0.63754
  Beta virt. eigenvalues --    0.64131   0.64594   0.64915   0.65300   0.65340
  Beta virt. eigenvalues --    0.65796   0.65980   0.66479   0.66656   0.66908
  Beta virt. eigenvalues --    0.67033   0.67341   0.67681   0.68066   0.68353
  Beta virt. eigenvalues --    0.68433   0.68656   0.69239   0.69433   0.69796
  Beta virt. eigenvalues --    0.69922   0.70482   0.70767   0.70834   0.71330
  Beta virt. eigenvalues --    0.71742   0.72160   0.72383   0.72681   0.73133
  Beta virt. eigenvalues --    0.73377   0.73663   0.74104   0.74414   0.74687
  Beta virt. eigenvalues --    0.75238   0.75418   0.75760   0.75955   0.76362
  Beta virt. eigenvalues --    0.76899   0.77145   0.77377   0.78040   0.78268
  Beta virt. eigenvalues --    0.78639   0.78680   0.78995   0.79404   0.80159
  Beta virt. eigenvalues --    0.80329   0.80851   0.80937   0.81203   0.81413
  Beta virt. eigenvalues --    0.82147   0.82257   0.82665   0.83200   0.83399
  Beta virt. eigenvalues --    0.83529   0.83782   0.83852   0.84425   0.84487
  Beta virt. eigenvalues --    0.85509   0.85783   0.86184   0.86258   0.86455
  Beta virt. eigenvalues --    0.86609   0.86974   0.87234   0.87779   0.88147
  Beta virt. eigenvalues --    0.88263   0.88501   0.88800   0.89128   0.89568
  Beta virt. eigenvalues --    0.89684   0.89891   0.90145   0.90627   0.90967
  Beta virt. eigenvalues --    0.91149   0.91430   0.92103   0.92323   0.92464
  Beta virt. eigenvalues --    0.92614   0.92861   0.93156   0.93514   0.94029
  Beta virt. eigenvalues --    0.94426   0.94729   0.94886   0.95021   0.95899
  Beta virt. eigenvalues --    0.95959   0.96124   0.96447   0.96952   0.97099
  Beta virt. eigenvalues --    0.97107   0.97634   0.97800   0.98539   0.98643
  Beta virt. eigenvalues --    0.98799   0.99059   0.99477   0.99722   1.00100
  Beta virt. eigenvalues --    1.00321   1.01308   1.01569   1.01604   1.01938
  Beta virt. eigenvalues --    1.02362   1.02708   1.03059   1.03414   1.03650
  Beta virt. eigenvalues --    1.04564   1.05075   1.05392   1.05791   1.06245
  Beta virt. eigenvalues --    1.06593   1.07018   1.07291   1.07620   1.07900
  Beta virt. eigenvalues --    1.08329   1.08723   1.08866   1.09174   1.09817
  Beta virt. eigenvalues --    1.10044   1.10302   1.10520   1.10844   1.11440
  Beta virt. eigenvalues --    1.11451   1.11808   1.12161   1.12477   1.12697
  Beta virt. eigenvalues --    1.13225   1.13325   1.14114   1.14382   1.14840
  Beta virt. eigenvalues --    1.15587   1.15658   1.15834   1.16166   1.16613
  Beta virt. eigenvalues --    1.17003   1.17499   1.17570   1.18060   1.18127
  Beta virt. eigenvalues --    1.18334   1.18539   1.18773   1.19269   1.19867
  Beta virt. eigenvalues --    1.20307   1.20567   1.21035   1.21384   1.21493
  Beta virt. eigenvalues --    1.22014   1.22200   1.22871   1.23192   1.23814
  Beta virt. eigenvalues --    1.24293   1.24506   1.24881   1.25189   1.25798
  Beta virt. eigenvalues --    1.26221   1.26455   1.27200   1.27683   1.27855
  Beta virt. eigenvalues --    1.28369   1.28498   1.29670   1.29976   1.30317
  Beta virt. eigenvalues --    1.30795   1.30910   1.31373   1.31930   1.32057
  Beta virt. eigenvalues --    1.32762   1.33223   1.33897   1.34229   1.34370
  Beta virt. eigenvalues --    1.35445   1.35716   1.35830   1.36122   1.36731
  Beta virt. eigenvalues --    1.37139   1.37472   1.37510   1.37823   1.38354
  Beta virt. eigenvalues --    1.38904   1.39058   1.39518   1.39609   1.40552
  Beta virt. eigenvalues --    1.40632   1.40937   1.41293   1.41494   1.41704
  Beta virt. eigenvalues --    1.42009   1.42214   1.42363   1.42628   1.43263
  Beta virt. eigenvalues --    1.43342   1.43781   1.43990   1.44180   1.44389
  Beta virt. eigenvalues --    1.44489   1.44651   1.45029   1.45169   1.45406
  Beta virt. eigenvalues --    1.45697   1.46104   1.46205   1.46533   1.46735
  Beta virt. eigenvalues --    1.47101   1.47258   1.47390   1.47669   1.47798
  Beta virt. eigenvalues --    1.47942   1.48330   1.48491   1.49094   1.49180
  Beta virt. eigenvalues --    1.49326   1.49464   1.49872   1.50110   1.50278
  Beta virt. eigenvalues --    1.50660   1.50801   1.51388   1.51859   1.52290
  Beta virt. eigenvalues --    1.52389   1.52550   1.52874   1.53224   1.53356
  Beta virt. eigenvalues --    1.53684   1.53831   1.54179   1.54370   1.54531
  Beta virt. eigenvalues --    1.54752   1.55030   1.55360   1.55568   1.55661
  Beta virt. eigenvalues --    1.56310   1.56596   1.57102   1.57427   1.57600
  Beta virt. eigenvalues --    1.58087   1.58402   1.58730   1.58824   1.58965
  Beta virt. eigenvalues --    1.59262   1.59679   1.59926   1.60216   1.60512
  Beta virt. eigenvalues --    1.61026   1.61125   1.61394   1.61722   1.61952
  Beta virt. eigenvalues --    1.62136   1.62318   1.62687   1.63284   1.63551
  Beta virt. eigenvalues --    1.64150   1.64573   1.64920   1.65094   1.65277
  Beta virt. eigenvalues --    1.65869   1.66067   1.66883   1.67224   1.67895
  Beta virt. eigenvalues --    1.68643   1.69474   1.70420   1.70608   1.71021
  Beta virt. eigenvalues --    1.71140   1.71784   1.72328   1.72905   1.73087
  Beta virt. eigenvalues --    1.73694   1.74210   1.74764   1.74952   1.75535
[...]
  1231. RY*(   7) C  64                  0.00000    21.54921   
  1232. RY*(   8) C  64                  0.00000     1.37897   
  1233. RY*(   9) C  64                  0.00000     1.44777   
  1234. RY*(  10) C  64                  0.00000     2.43411   
  1235. RY*(  11) C  64                  0.00000     2.23442   
  1236. RY*(  12) C  64                  0.00000     3.43182   
  1237. RY*(  13) C  64                  0.00000     2.38876   
  1238. RY*(  14) C  64                  0.00000     2.94508   
  1239. RY*(  15) C  64                  0.00000     2.22305   
  1240. RY*(  16) C  64                  0.00000     2.40454   
  1241. RY*(  17) C  64                  0.00000     2.30939   
  1242. RY*(  18) C  64                  0.00000     2.26149   
  1243. RY*(  19) C  64                  0.00000     2.42565   
  1244. RY*(  20) C  64                  0.00000     3.41553   
  1245. RY*(  21) C  64                  0.00000     3.45729   
  1246. RY*(  22) C  64                  0.00000     3.29115   
  1247. RY*(  23) C  64                  0.00000     3.45459   
  1248. RY*(  24) C  64                  0.00000     3.59813   
  1249. RY*(  25) C  64                  0.00000     3.14858   
  1250. RY*(  26) C  64                  0.00000     3.16054   
  1251. RY*(   1) H  65                  0.00011     1.30931   
  1252. RY*(   2) H  65                  0.00007     1.53987   
  1253. RY*(   3) H  65                  0.00004     1.97854   
  1254. RY*(   4) H  65                  0.00002     1.62689   
  1255. RY*(   5) H  65                  0.00000     2.87465   
  1256. RY*(   1) H  66                  0.00035     0.81129   
  1257. RY*(   2) H  66                  0.00008     1.71483   
  1258. RY*(   3) H  66                  0.00003     1.88347   
  1259. RY*(   4) H  66                  0.00003     2.00364   
  1260. RY*(   5) H  66                  0.00000     2.82188   
  1261. RY*(   1) H  67                  0.00035     0.81082   
  1262. RY*(   2) H  67                  0.00008     1.71583   
  1263. RY*(   3) H  67                  0.00003     1.87396   
  1264. RY*(   4) H  67                  0.00003     2.01434   
  1265. RY*(   5) H  67                  0.00000     2.82168   
  1266. RY*(   1) N  68                  0.00125     0.69322   
  1267. RY*(   2) N  68                  0.00100     1.74597   
  1268. RY*(   3) N  68                  0.00038     2.03887   
  1269. RY*(   4) N  68                  0.00032     2.05781   
  1270. RY*(   5) N  68                  0.00025     1.26021   
  1271. RY*(   6) N  68                  0.00015     1.71662   
  1272. RY*(   7) N  68                  0.00006     2.29655   
  1273. RY*(   8) N  68                  0.00003     2.40235   
  1274. RY*(   9) N  68                  0.00003     4.01593   
  1275. RY*(  10) N  68                  0.00001     1.26751   
  1276. RY*(  11) N  68                  0.00000     4.45195   
  1277. RY*(  12) N  68                  0.00001     2.59815   
  1278. RY*(  13) N  68                  0.00000     4.25356   
  1279. RY*(  14) N  68                  0.00000    30.71116   
  1280. RY*(  15) N  68                  0.00001     4.23544   
  1281. RY*(  16) N  68                  0.00001     2.28002   
  1282. RY*(  17) N  68                  0.00000     4.20591   
  1283. RY*(  18) N  68                  0.00001     2.84650   
  1284. RY*(  19) N  68                  0.00000     2.39913   
  1285. RY*(  20) N  68                  0.00000     4.66979   
  1286. RY*(  21) N  68                  0.00000     4.67003   
  1287. RY*(  22) N  68                  0.00000     4.36303   
  1288. RY*(  23) N  68                  0.00000     4.31940   
  1289. RY*(  24) N  68                  0.00000     4.37538   
  1290. RY*(  25) N  68                  0.00000     4.30404   
  1291. RY*(  26) N  68                  0.00000     4.35903   
  1292. RY*(   1) H  69                  0.00030     2.09567   
  1293. RY*(   2) H  69                  0.00021     1.98701   
  1294. RY*(   3) H  69                  0.00010     2.52100   
  1295. RY*(   4) H  69                  0.00007     1.14089   
  1296. RY*(   5) H  69                  0.00000     3.03127   
  1297. RY*(   1) C  70                  0.00184     1.69657   
  1298. RY*(   2) C  70                  0.00153     1.34244   
  1299. RY*(   3) C  70                  0.00089     1.22713   
  1300. RY*(   4) C  70                  0.00074     2.31527   
  1301. RY*(   5) C  70                  0.00050     1.85445   
  1302. RY*(   6) C  70                  0.00037     1.78852   
  1303. RY*(   7) C  70                  0.00027     2.03986   
  1304. RY*(   8) C  70                  0.00019     1.87810   
  1305. RY*(   9) C  70                  0.00008     2.97299   
  1306. RY*(  10) C  70                  0.00005     1.90387   
  1307. RY*(  11) C  70                  0.00003     2.62963   
  1308. RY*(  12) C  70                  0.00002     1.92759   
  1309. RY*(  13) C  70                  0.00000    20.45274   
  1310. RY*(  14) C  70                  0.00000     3.30557   
  1311. RY*(  15) C  70                  0.00000     2.71514   
  1312. RY*(  16) C  70                  0.00001     1.49606   
  1313. RY*(  17) C  70                  0.00001     2.06993   
  1314. RY*(  18) C  70                  0.00001     1.51300   
  1315. RY*(  19) C  70                  0.00001     1.52215   
  1316. RY*(  20) C  70                  0.00000     3.96378   
  1317. RY*(  21) C  70                  0.00000     3.68410   
  1318. RY*(  22) C  70                  0.00000     3.53015   
  1319. RY*(  23) C  70                  0.00000     3.47751   
  1320. RY*(  24) C  70                  0.00000     3.47996   
  1321. RY*(  25) C  70                  0.00000     3.43767   
  1322. RY*(  26) C  70                  0.00000     3.53712   
  1323. RY*(   1) C  71                  0.00229     1.49977   
  1324. RY*(   2) C  71                  0.00171     0.45035   
  1325. RY*(   3) C  71                  0.00089     2.11901   
  1326. RY*(   4) C  71                  0.00063     1.13484   
  1327. RY*(   5) C  71                  0.00051     2.74272   
  1328. RY*(   6) C  71                  0.00034     2.06210   
  1329. RY*(   7) C  71                  0.00011     2.16235   
  1330. RY*(   8) C  71                  0.00011     0.99289   
  1331. RY*(   9) C  71                  0.00009     1.98536   
  1332. RY*(  10) C  71                  0.00005     1.87854   
  1333. RY*(  11) C  71                  0.00005     2.20807   
  1334. RY*(  12) C  71                  0.00003     3.00134   
  1335. RY*(  13) C  71                  0.00003     2.22513   
  1336. RY*(  14) C  71                  0.00003     2.57399   
  1337. RY*(  15) C  71                  0.00002     1.55681   
  1338. RY*(  16) C  71                  0.00002     1.31655   
  1339. RY*(  17) C  71                  0.00000     3.29836   
  1340. RY*(  18) C  71                  0.00000     3.53611   
  1341. RY*(  19) C  71                  0.00000    21.27682   
  1342. RY*(  20) C  71                  0.00001     4.06240   
  1343. RY*(  21) C  71                  0.00000     3.70313   
  1344. RY*(  22) C  71                  0.00000     3.46081   
  1345. RY*(  23) C  71                  0.00000     3.49401   
  1346. RY*(  24) C  71                  0.00000     3.49761   
  1347. RY*(  25) C  71                  0.00000     3.24380   
  1348. RY*(  26) C  71                  0.00000     3.50928   
  1349. RY*(   1) H  72                  0.00024     0.63189   
  1350. RY*(   2) H  72                  0.00015     2.31236   
  1351. RY*(   3) H  72                  0.00008     2.15977   
  1352. RY*(   4) H  72                  0.00002     2.51450   
  1353. RY*(   5) H  72                  0.00001     3.00523   
  1354. RY*(   1) N  73                  0.00513     0.99582   
  1355. RY*(   2) N  73                  0.00208     1.86870   
  1356. RY*(   3) N  73                  0.00158     0.71033   
  1357. RY*(   4) N  73                  0.00113     1.02248   
  1358. RY*(   5) N  73                  0.00046     1.70690   
  1359. RY*(   6) N  73                  0.00044     1.93875   
  1360. RY*(   7) N  73                  0.00028     2.73681   
  1361. RY*(   8) N  73                  0.00026     3.11593   
  1362. RY*(   9) N  73                  0.00012     2.48645   
  1363. RY*(  10) N  73                  0.00006     3.39355   
  1364. RY*(  11) N  73                  0.00005     2.12197   
  1365. RY*(  12) N  73                  0.00003     3.04935   
  1366. RY*(  13) N  73                  0.00001     4.36336   
  1367. RY*(  14) N  73                  0.00002     2.46018   
  1368. RY*(  15) N  73                  0.00000     4.54265   
  1369. RY*(  16) N  73                  0.00000     4.63359   
  1370. RY*(  17) N  73                  0.00001     4.25551   
  1371. RY*(  18) N  73                  0.00001     3.71078   
  1372. RY*(  19) N  73                  0.00000    31.29589   
  1373. RY*(  20) N  73                  0.00000     4.42174   
  1374. RY*(  21) N  73                  0.00000     4.61682   
  1375. RY*(  22) N  73                  0.00000     4.24579   
  1376. RY*(  23) N  73                  0.00000     4.67918   
  1377. RY*(  24) N  73                  0.00000     4.79040   
  1378. RY*(  25) N  73                  0.00000     4.37222   
  1379. RY*(  26) N  73                  0.00000     4.55591   
  1380. RY*(   1) C  74                  0.00204     1.51752   
  1381. RY*(   2) C  74                  0.00184     0.75749   
  1382. RY*(   3) C  74                  0.00071     1.99111   
  1383. RY*(   4) C  74                  0.00044     1.12256   
  1384. RY*(   5) C  74                  0.00033     2.39672   
  1385. RY*(   6) C  74                  0.00032     1.80721   
  1386. RY*(   7) C  74                  0.00015     1.83323   
  1387. RY*(   8) C  74                  0.00015     1.07487   
  1388. RY*(   9) C  74                  0.00010     2.46257   
  1389. RY*(  10) C  74                  0.00007     2.32859   
  1390. RY*(  11) C  74                  0.00007     2.26948   
  1391. RY*(  12) C  74                  0.00003     2.51245   
  1392. RY*(  13) C  74                  0.00004     1.98129   
  1393. RY*(  14) C  74                  0.00003     3.48325   
  1394. RY*(  15) C  74                  0.00002     2.10350   
  1395. RY*(  16) C  74                  0.00000    20.19925   
  1396. RY*(  17) C  74                  0.00000     3.42117   
  1397. RY*(  18) C  74                  0.00000     3.52101   
  1398. RY*(  19) C  74                  0.00001     2.96141   
  1399. RY*(  20) C  74                  0.00000     3.76327   
  1400. RY*(  21) C  74                  0.00000     3.40452   
  1401. RY*(  22) C  74                  0.00000     3.41235   
  1402. RY*(  23) C  74                  0.00000     3.42002   
  1403. RY*(  24) C  74                  0.00000     3.52166   
  1404. RY*(  25) C  74                  0.00000     3.33253   
  1405. RY*(  26) C  74                  0.00000     3.06383   
  1406. RY*(   1) H  75                  0.00021     0.78571   
  1407. RY*(   2) H  75                  0.00015     2.16631   
  1408. RY*(   3) H  75                  0.00012     2.20753   
  1409. RY*(   4) H  75                  0.00003     2.62722   
  1410. RY*(   5) H  75                  0.00000     3.06692   
  1682. BD*(   1) C  64 - H  65          0.00159     0.29268   
  1683. BD*(   1) C  64 - H  66          0.00511     0.28069   
  1684. BD*(   1) C  64 - H  67          0.00517     0.28086   
  1685. BD*(   1) C  64 - C  70          0.00628     0.30226   
  1686. BD*(   1) N  68 - H  69          0.00663     0.38219   
  1687. BD*(   1) N  68 - C  70          0.01347     0.52024   
  1688. BD*(   1) N  68 - C  71          0.01061     0.37560   
  1689. BD*(   1) C  70 - C  74          0.01037     0.51703   
  1690. BD*(   1) C  71 - H  72          0.00816     0.33550   
  1691. BD*(   1) C  71 - N  73          0.00865     0.51831   
  1692. BD*(   1) N  73 - C  74          0.00843     0.40707   
  1693. BD*(   2) N  73 - C  74          0.33381    -0.05660  93(v),174(v),1706(r),1708(r)
                                                    1596(r),1707(r),1701(r)
                                                    1687(v),1700(r),171(r)
                                                    1686(r),1590(r),1381(g)
                                                    1696(r),1699(r),1695(r)
                                                    1595(r),1356(g),1566(r)
                                                    1589(r),1694(g),1599(r)
                                                    1692(g),1691(g),1640(r)
                                                    1631(r),1665(r),1690(v)
                                                    1577(r),1592(r),1569(r)
                                                    1698(r),1585(r),1324(v)
                                                    1583(r),1588(r),1703(r)
                                                    172(r),1576(r),1574(r)
                                                    1584(r),1644(r),1676(r)
                                                    1593(r),1572(r),1510(r)
                                                    1488(r),1606(r),1587(r)
                                                    1660(r),1568(r),1582(r)
                                                    1594(r),1649(r),1546(r)
                                                    1416(r),1485(r),1490(r)
                                                    1623(r),1609(r),1597(r)
                                                    1465(r),1496(r),1579(r)
                                                    1622(r),1539(r),1415(r)
                                                    1575(r),1547(r),1619(r)
                                                    1457(r),1540(r),1658(r)
                                                    1489(r),1598(r),1697(r)
                                                    1509(r),1659(r),1443(r)
                                                    1429(r),1461(r),1492(r)
                                                    1526(r),1602(r),188(r)
                                                    1494(r),961(r),1505(r)
                                                    419(r),1498(r),1580(r)
                                                    1504(r),912(r),1545(r)
                                                    1578(r),393(r),981(r)
  1694. BD*(   1) C  74 - H  75          0.00660     0.36846   
       -------------------------------
              Total Lewis   20.92888  ( 96.1476%)
        Valence non-Lewis    0.79901  (  3.6707%)
        Rydberg non-Lewis    0.03956  (  0.1817%)
       -------------------------------
            Total unit  2   21.76745  (100.0000%)
           Charge unit  2    0.23255
 Unable to Open any file for archive entry.
 1\1\GINC-BGN1009\SP\UAPFD\def2TZVP\C38H40Fe1N8(1+,6)\BECSLEIP\29-Sep-2
 024\0\\# apfd/def2TZVP guess=read scf=maxcycle=999 geom=check pop=nbo\
 \5f2a_III_H\\1,6\Fe,0,17.2363085605,54.2732102879,35.3055195741\N,0,16
 .8877635224,56.2300078658,35.1861567997\N,0,15.3777383543,53.888743223
 9,34.635173482\N,0,17.5550340005,52.2920388506,35.4668441882\N,0,19.07
 43107543,54.6275654745,35.994058788\C,0,17.7017853116,57.2301692357,35
 .6110226945\C,0,17.1499792792,58.5198659184,35.2545203201\C,0,15.94488
 23227,58.2717640928,34.6753577256\C,0,15.7853074899,56.8335694365,34.6
 719961843\C,0,14.4672208161,54.8127919883,34.2278832907\C,0,13.2439509
 372,54.1742314099,33.8201832899\C,0,13.4091477979,52.8354234764,34.053
 314146\C,0,14.7628112086,52.6821960963,34.5516304642\C,0,16.647915062,
 51.291829904,35.2899889177\C,0,17.2494440234,50.0056623562,35.52759168
 25\C,0,18.5432151661,50.2510881862,35.9080672371\C,0,18.7118592691,51.
 6898889068,35.8427374866\C,0,20.0241151929,53.7104195749,36.30740666\C
 ,0,21.1967227821,54.3569710487,36.8562227448\C,0,20.9362469397,55.6917
 299778,36.8429073028\C,0,19.593531663,55.8388998318,36.3243303833\C,0,
 18.9505625922,57.0552390417,36.1837245523\H,0,19.4862143553,57.9392167
 016,36.4958173698\C,0,14.6710863642,56.182480021,34.1807128154\H,0,13.
 8695352823,56.791064213,33.7897402843\C,0,15.3408074087,51.467667854,3
 4.8681561711\H,0,14.7392408159,50.5826074768,34.7329258779\C,0,19.8830
 532747,52.3401622879,36.1904796357\H,0,20.7279545426,51.7301624812,36.
 4715763063\C,0,14.9404358818,59.2295073961,34.1305845666\H,0,15.289109
 2577,60.2549854933,34.2290296279\H,0,13.9937292905,59.1390546628,34.66
 54447934\H,0,14.7523944046,59.0287008554,33.0750185202\C,0,17.81965202
 65,59.8254374479,35.5180196072\H,0,18.7842163734,59.8714129071,35.0111
 315634\H,0,17.9930387014,59.9596875458,36.5862608605\H,0,17.2078114279
 ,60.6519646257,35.1642688148\C,0,12.026729003,54.8846653168,33.3352703
 817\H,0,12.2602908148,55.5050769483,32.4697271579\H,0,11.6264388317,55
 .533426718,34.1153111287\H,0,11.2534690839,54.1729503656,33.0563214842
 \C,0,12.4158434586,51.7952418189,33.8749400855\H,0,11.8000347547,51.88
 50988404,32.9855110994\C,0,12.1802578377,50.8023712081,34.7246815432\H
 ,0,12.724287356,50.7032279948,35.6486886949\H,0,11.4166171919,50.06577
 4827,34.5369343275\C,0,16.5726558936,48.6899606342,35.3545568437\H,0,1
 5.9230319089,48.702408303,34.480480554\H,0,15.9596590381,48.4449986553
 ,36.2241082406\H,0,17.3144751733,47.9040318684,35.2273423759\C,0,19.58
 42868688,49.3125378125,36.2641525015\H,0,20.589574391,49.5957564788,35
 .9723932639\C,0,19.4019920136,48.1677094862,36.9150963273\H,0,18.43398
 68752,47.8610099051,37.2713618537\H,0,20.2228963883,47.5061663537,37.1
 372880611\C,0,22.4279998466,53.6382299617,37.2902664225\H,0,22.8623332
 332,53.0869069949,36.4562173959\H,0,22.1996311092,52.9244036714,38.081
 9097873\H,0,23.1726681599,54.3366354549,37.664378876\C,0,21.7921278278
 ,56.8265089296,37.2925254215\H,0,22.7530792967,56.4687313921,37.654196
 9593\H,0,21.3063817846,57.3788649738,38.0974409878\H,0,21.9718571242,5
 7.5189338152,36.4695566973\C,0,19.7370089794,55.5145468715,30.46197031
 19\H,0,20.2027056423,56.4158741695,30.84797782\H,0,19.1005527296,55.78
 41925811,29.6189551576\H,0,20.5180284257,54.8465606386,30.0981674717\N
 ,0,18.2366170383,53.7077567966,31.3303476373\H,0,18.1854422998,53.1965
 198887,30.4646958581\C,0,18.9437067938,54.8640863339,31.5361433295\C,0
 ,17.633039228,53.3845652849,32.4967845535\H,0,17.0093309144,52.5250895
 886,32.6313865131\N,0,17.9128025965,54.2643608252,33.4255860023\C,0,18
 .7285523185,55.1899760063,32.8444548449\H,0,19.0997744257,56.022463738
 2,33.4050230497\C,0,14.1991770688,55.0236028823,39.943361363\H,0,13.70
 64684914,54.1489739041,40.3680104677\H,0,13.4541526411,55.6328281454,3
 9.4414354985\H,0,14.6311262466,55.6018682388,40.7602234268\N,0,16.3180
 773424,53.8406588003,39.3246789478\H,0,16.5048534334,53.4759183925,40.
 2441597485\C,0,15.2463350208,54.6189299582,38.9715673653\C,0,17.072415
 1389,53.6574373365,38.2174708336\H,0,17.9764640799,53.0848458236,38.19
 58406361\N,0,16.5443354776,54.2704026808,37.1874543701\C,0,15.40864045
 08,54.8732384599,37.640162046\H,0,14.787655498,55.4452557711,36.982679
 5461\\Version=ES64L-G16RevC.02\State=6-A\HF=-3172.8829539\S2=8.757887\
 S2-1=0.\S2A=8.750019\RMSD=6.358e-09\Dipole=0.1627679,0.1560213,0.00640
 91\Quadrupole=-6.2228581,-5.3773019,11.6001599,1.0824932,-2.8432604,-2
 .9402391\PG=C01 [X(C38H40Fe1N8)]\\@
 The archive entry for this job was punched.


 I take a simple view of life: keep your eyes open and get on with it.
 -- Laurence Olivier
 Job cpu time:       0 days 16 hours 55 minutes 32.7 seconds.
 Elapsed time:       0 days  0 hours 16 minutes  6.3 seconds.
 File lengths (MBytes):  RWF=   2700 Int=      0 D2E=      0 Chk=    245 Scr=      1
 Normal termination of Gaussian 16 at Sun Sep 29 16:05:30 2024.
