 Entering Gaussian System, Link 0=g16
 Input=5g6j05re.com
 Output=5g6j05re.log
 Initial command:
 /sw/chem/gaussian/g16_C02/a100/g16/l1.exe "/local/becsleip_8033219/Gau-2414400.inp" -scrdir="/local/becsleip_8033219/"
 Entering Link 1 = /sw/chem/gaussian/g16_C02/a100/g16/l1.exe PID=   2414401.
  
 Copyright (c) 1988-2021, Gaussian, Inc.  All Rights Reserved.
  
 This is part of the Gaussian(R) 16 program.  It is based on
 the Gaussian(R) 09 system (copyright 2009, Gaussian, Inc.),
 the Gaussian(R) 03 system (copyright 2003, Gaussian, Inc.),
 the Gaussian(R) 98 system (copyright 1998, Gaussian, Inc.),
 the Gaussian(R) 94 system (copyright 1995, Gaussian, Inc.),
 the Gaussian 92(TM) system (copyright 1992, Gaussian, Inc.),
 the Gaussian 90(TM) system (copyright 1990, Gaussian, Inc.),
 the Gaussian 88(TM) system (copyright 1988, Gaussian, Inc.),
 the Gaussian 86(TM) system (copyright 1986, Carnegie Mellon
 University), and the Gaussian 82(TM) system (copyright 1983,
 Carnegie Mellon University). Gaussian is a federally registered
 trademark of Gaussian, Inc.
  
 This software contains proprietary and confidential information,
 including trade secrets, belonging to Gaussian, Inc.
  
 This software is provided under written license and may be
 used, copied, transmitted, or stored only in accord with that
 written license.
  
 The following legend is applicable only to US Government
 contracts under FAR:
  
                    RESTRICTED RIGHTS LEGEND
  
 Use, reproduction and disclosure by the US Government is
 subject to restrictions as set forth in subparagraphs (a)
 and (c) of the Commercial Computer Software - Restricted
 Rights clause in FAR 52.227-19.
  
 Gaussian, Inc.
 340 Quinnipiac St., Bldg. 40, Wallingford CT 06492
  
  
 ---------------------------------------------------------------
 Warning -- This program may not be used in any manner that
 competes with the business of Gaussian, Inc. or will provide
 assistance to any competitor of Gaussian, Inc.  The licensee
 of this program is prohibited from giving any competitor of
 Gaussian, Inc. access to this program.  By using this program,
 the user acknowledges that Gaussian, Inc. is engaged in the
 business of creating and licensing software in the field of
 computational chemistry and represents and warrants to the
 licensee that it is not a competitor of Gaussian, Inc. and that
 it will not use this program in any manner prohibited above.
 ---------------------------------------------------------------
  

 Cite this work as:
 Gaussian 16, Revision C.02,
 M. J. Frisch, G. W. Trucks, H. B. Schlegel, G. E. Scuseria, 
 M. A. Robb, J. R. Cheeseman, G. Scalmani, V. Barone, 
 G. A. Petersson, H. Nakatsuji, X. Li, M. Caricato, A. V. Marenich, 
 J. Bloino, B. G. Janesko, R. Gomperts, B. Mennucci, H. P. Hratchian, 
 J. V. Ortiz, A. F. Izmaylov, J. L. Sonnenberg, D. Williams-Young, 
 F. Ding, F. Lipparini, F. Egidi, J. Goings, B. Peng, A. Petrone, 
 T. Henderson, D. Ranasinghe, V. G. Zakrzewski, J. Gao, N. Rega, 
 G. Zheng, W. Liang, M. Hada, M. Ehara, K. Toyota, R. Fukuda, 
 J. Hasegawa, M. Ishida, T. Nakajima, Y. Honda, O. Kitao, H. Nakai, 
 T. Vreven, K. Throssell, J. A. Montgomery, Jr., J. E. Peralta, 
 F. Ogliaro, M. J. Bearpark, J. J. Heyd, E. N. Brothers, K. N. Kudin, 
 V. N. Staroverov, T. A. Keith, R. Kobayashi, J. Normand, 
 K. Raghavachari, A. P. Rendell, J. C. Burant, S. S. Iyengar, 
 J. Tomasi, M. Cossi, J. M. Millam, M. Klene, C. Adamo, R. Cammi, 
 J. W. Ochterski, R. L. Martin, K. Morokuma, O. Farkas, 
 J. B. Foresman, and D. J. Fox, Gaussian, Inc., Wallingford CT, 2019.
 
 ******************************************
 Gaussian 16:  ES64L-G16RevC.02  7-Dec-2021
                29-Sep-2024 
 ******************************************
 %mem=16GB
 %CPU=0-71
 SetSPE:  set environment variable "OMP_PROC_BIND" = "true"
 SetSPE:  set environment variable "OMP_PLACES" = "{0},{1},{2},{3},{4},{5},{6},{7},{8},{9},{10},{11},{12},{13},{14},{15},{16},{17},{18},{19},{20},{21},{22},{23},{24},{25},{26},{27},{28},{29},{30},{31},{32},{33},{34},{35},{36},{37},{38},{39},{40},{41},{42},{43},{44},{45},{46},{47},{48},{49},{50},{51},{52},{53},{54},{55},{56},{57},{58},{59},{60},{61},{62},{63},{64},{65},{66},{67},{68},{69},{70},{71}"
 Will use up to   72 processors via shared memory.
 %gpucpu=0,1,2,3=0,1,2,3
 Will use    4 GPUs:
 Thread  CPU   GPU
      0    0     0
      1    1     1
      2    2     2
      3    3     3
      4    4    -1
      5    5    -1
      6    6    -1
      7    7    -1
      8    8    -1
      9    9    -1
     10   10    -1
     11   11    -1
     12   12    -1
     13   13    -1
     14   14    -1
     15   15    -1
     16   16    -1
     17   17    -1
     18   18    -1
     19   19    -1
     20   20    -1
     21   21    -1
     22   22    -1
     23   23    -1
     24   24    -1
     25   25    -1
     26   26    -1
     27   27    -1
     28   28    -1
     29   29    -1
     30   30    -1
     31   31    -1
     32   32    -1
     33   33    -1
     34   34    -1
     35   35    -1
     36   36    -1
     37   37    -1
     38   38    -1
     39   39    -1
     40   40    -1
     41   41    -1
     42   42    -1
     43   43    -1
     44   44    -1
     45   45    -1
     46   46    -1
     47   47    -1
     48   48    -1
     49   49    -1
     50   50    -1
     51   51    -1
     52   52    -1
     53   53    -1
     54   54    -1
     55   55    -1
     56   56    -1
     57   57    -1
     58   58    -1
     59   59    -1
     60   60    -1
     61   61    -1
     62   62    -1
     63   63    -1
     64   64    -1
     65   65    -1
     66   66    -1
     67   67    -1
     68   68    -1
     69   69    -1
     70   70    -1
     71   71    -1
 SetGPE:  set environment variable "OMP_PROC_BIND" = "true"
 SetGPE:  set environment variable "OMP_PLACES" = "{0},{1},{2},{3},{4},{5},{6},{7},{8},{9},{10},{11},{12},{13},{14},{15},{16},{17},{18},{19},{20},{21},{22},{23},{24},{25},{26},{27},{28},{29},{30},{31},{32},{33},{34},{35},{36},{37},{38},{39},{40},{41},{42},{43},{44},{45},{46},{47},{48},{49},{50},{51},{52},{53},{54},{55},{56},{57},{58},{59},{60},{61},{62},{63},{64},{65},{66},{67},{68},{69},{70},{71}"
 %oldchk=5g6j_II_S.chk
 %chk=5g6j_II_Sre.chk
 Properties for Device   0
 Minimum vector length:                              32
 Maximum vector length:                            1024
 Number of SMPs:                                    108
 Maximum number of threads per SMP:                2048
 Number of ASync Engines:                             5
 Memory:                                           9207742464
 Properties for Device   1
 Minimum vector length:                              32
 Maximum vector length:                            1024
 Number of SMPs:                                    108
 Maximum number of threads per SMP:                2048
 Number of ASync Engines:                             5
 Memory:                                           9207742464
 Properties for Device   2
 Minimum vector length:                              32
 Maximum vector length:                            1024
 Number of SMPs:                                    108
 Maximum number of threads per SMP:                2048
 Number of ASync Engines:                             5
 Memory:                                           9207742464
 Properties for Device   3
 Minimum vector length:                              32
 Maximum vector length:                            1024
 Number of SMPs:                                    108
 Maximum number of threads per SMP:                2048
 Number of ASync Engines:                             5
 Memory:                                           9207742464
   8286968217 words of memory will be used on each GPU.
 Copying data from "5g6j_II_S.chk" to current chk file "5g6j_II_Sre.chk"
 IOpt=  2 FromEx=T IUOpen= 4 IOptOp= 5 NList=   0 IFRang= 0 IUIn= 4 IUOut= 2.
 --------------------------------------
 # apfd/gen scf=maxcycle=999 geom=check
 --------------------------------------
 1/29=2,38=1,172=1/1;
 2/12=2,40=1/2;
 3/5=7,11=2,14=-4,25=1,30=1,74=-44/1,2,3;
 4//1;
 5/5=2,7=999,38=5/2;
 6/7=2,8=2,9=2,10=2,28=1/1;
 99/5=1,9=1/99;
 ---------
 5g6j_II_Q
 ---------
 Structure from the checkpoint file:  "5g6j_II_Sre.chk"
 Charge =  0 Multiplicity = 5
 Z-Matrix found in chk file.
 Fe,0,-0.1407130566,17.27412628,22.0576718859
 N,0,0.3445631343,15.484329272,22.8535483695
 N,0,-0.990795807,17.778176,23.8422486672
 N,0,-0.3410793676,19.1603454819,21.5071619259
 N,0,0.9892422979,16.8403021039,20.5015232304
 C,0,1.2243457274,14.5700702513,22.3472114947
 C,0,1.4755538067,13.5053127916,23.2876623094
 C,0,0.7309683748,13.7898669574,24.3885125289
 C,0,0.0554859436,15.0366434,24.110416172
 C,0,-1.2469879388,16.9470822974,24.8914192714
 C,0,-1.9204971189,17.6439957134,25.9541131896
 C,0,-2.0962331605,18.9285875995,25.5207160739
 C,0,-1.5049369893,18.9881698061,24.2007881622
 C,0,-0.8115988198,20.2263189176,22.2127513948
 C,0,-0.6739080872,21.446902426,21.4620493826
 C,0,-0.111482286,21.0990479209,20.2637993658
 C,0,0.1176792059,19.6686486804,20.3305079353
 C,0,1.1345963366,17.6362763706,19.4050745256
 C,0,1.9267967333,16.9721874315,18.394701908
 C,0,2.2572905039,15.7551401819,18.9055958254
 C,0,1.6575077377,15.68918474,20.2176252839
 C,0,1.7843738258,14.6209311348,21.083549439
 H,0,2.3982561898,13.7904414234,20.7720032354
 C,0,-0.7927056586,15.6470584176,25.0092463933
 H,0,-1.0063478223,15.1268045097,25.929556523
 C,0,-1.3946130365,20.1478265212,23.4622943287
 H,0,-1.7596101993,21.0587513669,23.9088549661
 C,0,0.6955707063,18.942165302,19.3060166761
 H,0,0.9142598285,19.4660470191,18.3885872902
 C,0,0.6151431828,13.0387956571,25.6695685929
 H,0,1.2003061893,12.1235751153,25.632921347
 H,0,-0.4235880611,12.7736941165,25.8672328494
 H,0,0.9750120176,13.6435161268,26.5019974724
 C,0,2.3921178346,12.3592933058,23.0326637358
 H,0,3.3966368773,12.7170165158,22.8078753587
 H,0,2.0444903804,11.7698900655,22.1835966159
 H,0,2.4467691358,11.7085316396,23.9015311305
 C,0,-2.3475447432,17.0335221354,27.24345134
 H,0,-1.482740371,16.675404372,27.8040963089
 H,0,-3.010669629,16.1859589435,27.0670988398
 H,0,-2.877789586,17.7625580296,27.8511650688
 C,0,-2.7502701568,20.0092046652,26.2333067983
 H,0,-2.5407535161,20.0566277644,27.2963395871
 C,0,-3.5908916949,20.8850691545,25.6965224774
 H,0,-3.8715070357,20.843976252,24.6575313221
 H,0,-4.0504502753,21.6601738021,26.2870514008
 C,0,-1.0295797641,22.8007173722,21.9661133609
 H,0,-0.7807356097,22.8951935254,23.0218960343
 H,0,-2.0985488011,22.987753293,21.8529532968
 H,0,-0.4865624235,23.5609946413,21.4085095527
 C,0,0.2604928416,21.944882798,19.1503627666
 H,0,1.1483883737,21.6435810808,18.6072202713
 C,0,-0.3996150726,23.0294263037,18.7587775596
 H,0,-1.3119526267,23.3465638279,19.2327631031
 H,0,-0.0619768903,23.6238896189,17.9262614141
 C,0,2.2863739974,17.573267567,17.0803854012
 H,0,2.9362713198,18.4373979416,17.2215348097
 H,0,1.392535504,17.9047754174,16.5525107712
 H,0,2.8083467815,16.8526527588,16.4556457416
 C,0,3.074477039,14.6649205254,18.3037568154
 H,0,3.9530153464,14.4632579976,18.9167264718
 H,0,3.4095170982,14.9386205728,17.3066861101
 H,0,2.4937249964,13.744985055,18.2321470969
 C,0,-1.7522384691,15.1000579257,20.0863872472
 H,0,-1.3565592441,15.4971638042,19.1572095437
 H,0,-2.6648396743,14.5439226665,19.8969248422
 H,0,-1.0034380165,14.4820201337,20.5708291647
 S,0,-2.1357067644,16.5417996824,21.1471081039
 H,0,-2.5816414946,15.809607511,22.1771325211
 Recover connectivity data from disk.
 Stoichiometry    C31H32FeN4S(5)
 Framework group  C1[X(C31H32FeN4S)]
 Deg. of freedom   201
 Full point group                 C1      NOp   1
 Largest Abelian subgroup         C1      NOp   1
 Largest concise Abelian subgroup C1      NOp   1
                         Standard orientation:                         
 ---------------------------------------------------------------------
 Center     Atomic      Atomic             Coordinates (Angstroms)
 Number     Number       Type             X           Y           Z
 ---------------------------------------------------------------------
      1         26           0        0.168565   -0.011917    0.062405
      2          7           0        1.957958    0.903680   -0.116594
      3          7           0       -0.722862    1.817197   -0.082923
      4          7           0       -1.621302   -0.823917   -0.132685
      5          7           0        1.083053   -1.745831   -0.147012
      6          6           0        3.160880    0.313873   -0.383747
      7          6           0        4.182364    1.298235   -0.646167
      8          6           0        3.576250    2.509932   -0.538154
      9          6           0        2.188744    2.244029   -0.234531
     10          6           0       -0.111080    3.033566   -0.025670
     11          6           0       -1.071539    4.102073   -0.092252
     12          6           0       -2.301240    3.509597   -0.167763
     13          6           0       -2.057026    2.082807   -0.163145
     14          6           0       -2.827555   -0.227848   -0.345287
     15          6           0       -3.863055   -1.208236   -0.542558
     16          6           0       -3.258835   -2.431529   -0.434846
     17          6           0       -1.851199   -2.163397   -0.211976
     18          6           0        0.466213   -2.958997   -0.078895
     19          6           0        1.436422   -4.028423   -0.145754
     20          6           0        2.655281   -3.433667   -0.255703
     21          6           0        2.414369   -2.009795   -0.247847
     22          6           0        3.398199   -1.048700   -0.372179
     23          1           0        4.413681   -1.383289   -0.515260
     24          6           0        1.254835    3.242282   -0.057789
     25          1           0        1.601746    4.263226   -0.082324
     26          6           0       -3.046764    1.135554   -0.322759
     27          1           0       -4.054161    1.488975   -0.473315
     28          6           0       -0.900732   -3.157165   -0.069296
     29          1           0       -1.249342   -4.178001   -0.051397
     30          6           0        4.150649    3.872134   -0.720092
     31          1           0        5.217015    3.815811   -0.922772
     32          1           0        4.003625    4.474277    0.176635
     33          1           0        3.668971    4.382680   -1.554034
     34          6           0        5.598141    0.971615   -0.973836
     35          1           0        5.648348    0.338155   -1.859139
     36          1           0        6.071130    0.438448   -0.148505
     37          1           0        6.167764    1.876804   -1.167665
     38          6           0       -0.742245    5.553803   -0.053728
     39          1           0       -0.128008    5.831374   -0.911705
     40          1           0       -0.187444    5.798763    0.852578
     41          1           0       -1.651472    6.149624   -0.070245
     42          6           0       -3.588788    4.174158   -0.229892
     43          1           0       -3.622704    5.060941   -0.853311
     44          6           0       -4.676279    3.805392    0.435913
     45          1           0       -4.675807    2.964487    1.108828
     46          1           0       -5.601286    4.351175    0.351121
     47          6           0       -5.281773   -0.894929   -0.862676
     48          1           0       -5.344499   -0.038196   -1.531704
     49          1           0       -5.840098   -0.657047    0.044059
     50          1           0       -5.753527   -1.749859   -1.342629
     51          6           0       -3.837834   -3.750592   -0.570409
     52          1           0       -3.198633   -4.500490   -1.021209
     53          6           0       -5.061986   -4.092852   -0.183594
     54          1           0       -5.720507   -3.400628    0.311153
     55          1           0       -5.437846   -5.092554   -0.324288
     56          6           0        1.092685   -5.477150   -0.113238
     57          1           0        0.519865   -5.752904   -0.999154
     58          1           0        0.490453   -5.709141    0.764824
     59          1           0        1.992131   -6.087282   -0.085375
     60          6           0        4.004594   -4.053000   -0.375551
     61          1           0        4.475346   -3.764073   -1.315307
     62          1           0        3.935868   -5.137345   -0.347486
     63          1           0        4.650198   -3.727008    0.440297
     64          6           0        1.719741   -0.802154    2.922288
     65          1           0        1.554424   -1.870889    2.832275
     66          1           0        1.913395   -0.539501    3.957438
     67          1           0        2.537522   -0.500625    2.276013
     68         16           0        0.174293    0.011537    2.374298
     69          1           0        0.625922    1.257739    2.571592
 ---------------------------------------------------------------------
 Rotational constants (GHZ):           0.1132526           0.1080335           0.0606079
 General basis read from cards:  (5D, 7F)
 There are   644 symmetry adapted cartesian basis functions of A   symmetry.
 There are   605 symmetry adapted basis functions of A   symmetry.
   605 basis functions,  1246 primitive gaussians,   644 cartesian basis functions
   146 alpha electrons      142 beta electrons
       nuclear repulsion energy      5040.1098127047 Hartrees.
 NAtoms=   69 NActive=   69 NUniq=   69 SFac= 1.00D+00 NAtFMM=   60 NAOKFM=T Big=T
 Integral buffers will be    131072 words long.
 Raffenetti 2 integral format.
 Two-electron integral symmetry is turned on.
 R6APFD:  NTU= -4 IXU= 1 FactS= 1.050
 Nuclear repulsion after empirical dispersion term =     5039.9778611289 Hartrees.
 One-electron integrals computed using PRISM.
 NBasis=   605 RedAO= T EigKep=  2.64D-04  NBF=   605
 NBsUse=   605 1.00D-06 EigRej= -1.00D+00 NBFU=   605
 ExpMin= 4.20D-02 ExpMax= 3.01D+05 ExpMxC= 3.30D+03 IAcc=3 IRadAn=         5 AccDes= 0.00D+00
 Harris functional with IExCor= 3731 and IRadAn=       5 diagonalized for initial guess.
 HarFok:  IExCor= 3731 AccDes= 0.00D+00 IRadAn=         5 IDoV= 1 UseB2=F ITyADJ=14
 ICtDFT=  3500011 ScaDFX=  1.000000  1.000000  1.000000  1.000000
 FoFCou: FMM=F IPFlag=           0 FMFlag=      100000 FMFlg1=        2001
         NFxFlg=           0 DoJE=T BraDBF=F KetDBF=T FulRan=T
         wScrn=  0.000000 ICntrl=       500 IOpCl=  0 I1Cent=   200000004 NGrid=           0
         NMat0=    1 NMatS0=      1 NMatT0=    0 NMatD0=    1 NMtDS0=    0 NMtDT0=    0
 Petite list used in FoFCou.
 Initial guess <Sx>= 0.0000 <Sy>= 0.0000 <Sz>= 2.0000 <S**2>= 6.0000 S= 2.0000
 Requested convergence on RMS density matrix=1.00D-08 within 999 cycles.
 Requested convergence on MAX density matrix=1.00D-06.
 Requested convergence on             energy=1.00D-06.
 No special actions if energy rises.
 EnCoef did   100 forward-backward iterations
 EnCoef did   100 forward-backward iterations
 EnCoef did   100 forward-backward iterations
 EnCoef did    13 forward-backward iterations
 EnCoef did     4 forward-backward iterations
 EnCoef did     4 forward-backward iterations
 EnCoef did     3 forward-backward iterations
 EnCoef did     3 forward-backward iterations
 EnCoef did     5 forward-backward iterations
 Restarting incremental Fock formation.
 Restarting incremental Fock formation.
 SCF Done:  E(UAPFD) =  -3080.23892608     A.U. after   55 cycles
            NFock= 55  Conv=0.52D-08     -V/T= 2.0030
 <Sx>= 0.0000 <Sy>= 0.0000 <Sz>= 2.0000 <S**2>= 6.0574 S= 2.0115
 <L.S>=  0.00000000000    
 Annihilation of the first spin contaminant:
 S**2 before annihilation     6.0574,   after     6.0003

 **********************************************************************

            Population analysis using the SCF Density.

 **********************************************************************

 Orbital symmetries:
 Alpha Orbitals:
       Occupied  (A) (A) (A) (A) (A) (A) (A) (A) (A) (A) (A) (A)
                 (A) (A) (A) (A) (A) (A) (A) (A) (A) (A) (A) (A)
                 (A) (A) (A) (A) (A) (A) (A) (A) (A) (A) (A) (A)
                 (A) (A) (A) (A) (A) (A) (A) (A) (A) (A) (A) (A)
                 (A) (A) (A) (A) (A) (A) (A) (A) (A) (A) (A) (A)
                 (A) (A) (A) (A) (A) (A) (A) (A) (A) (A) (A) (A)
                 (A) (A) (A) (A) (A) (A) (A) (A) (A) (A) (A) (A)
                 (A) (A) (A) (A) (A) (A) (A) (A) (A) (A) (A) (A)
                 (A) (A) (A) (A) (A) (A) (A) (A) (A) (A) (A) (A)
                 (A) (A) (A) (A) (A) (A) (A) (A) (A) (A) (A) (A)
                 (A) (A) (A) (A) (A) (A) (A) (A) (A) (A) (A) (A)
                 (A) (A) (A) (A) (A) (A) (A) (A) (A) (A) (A) (A)
                 (A) (A)
       Virtual   (A) (A) (A) (A) (A) (A) (A) (A) (A) (A) (A) (A)
                 (A) (A) (A) (A) (A) (A) (A) (A) (A) (A) (A) (A)
                 (A) (A) (A) (A) (A) (A) (A) (A) (A) (A) (A) (A)
                 (A) (A) (A) (A) (A) (A) (A) (A) (A) (A) (A) (A)
                 (A) (A) (A) (A) (A) (A) (A) (A) (A) (A) (A) (A)
                 (A) (A) (A) (A) (A) (A) (A) (A) (A) (A) (A) (A)
                 (A) (A) (A) (A) (A) (A) (A) (A) (A) (A) (A) (A)
                 (A) (A) (A) (A) (A) (A) (A) (A) (A) (A) (A) (A)
                 (A) (A) (A) (A) (A) (A) (A) (A) (A) (A) (A) (A)
                 (A) (A) (A) (A) (A) (A) (A) (A) (A) (A) (A) (A)
                 (A) (A) (A) (A) (A) (A) (A) (A) (A) (A) (A) (A)
                 (A) (A) (A) (A) (A) (A) (A) (A) (A) (A) (A) (A)
                 (A) (A) (A) (A) (A) (A) (A) (A) (A) (A) (A) (A)
                 (A) (A) (A) (A) (A) (A) (A) (A) (A) (A) (A) (A)
                 (A) (A) (A) (A) (A) (A) (A) (A) (A) (A) (A) (A)
                 (A) (A) (A) (A) (A) (A) (A) (A) (A) (A) (A) (A)
                 (A) (A) (A) (A) (A) (A) (A) (A) (A) (A) (A) (A)
                 (A) (A) (A) (A) (A) (A) (A) (A) (A) (A) (A) (A)
                 (A) (A) (A) (A) (A) (A) (A) (A) (A) (A) (A) (A)
                 (A) (A) (A) (A) (A) (A) (A) (A) (A) (A) (A) (A)
                 (A) (A) (A) (A) (A) (A) (A) (A) (A) (A) (A) (A)
                 (A) (A) (A) (A) (A) (A) (A) (A) (A) (A) (A) (A)
                 (A) (A) (A) (A) (A) (A) (A) (A) (A) (A) (A) (A)
                 (A) (A) (A) (A) (A) (A) (A) (A) (A) (A) (A) (A)
                 (A) (A) (A) (A) (A) (A) (A) (A) (A) (A) (A) (A)
                 (A) (A) (A) (A) (A) (A) (A) (A) (A) (A) (A) (A)
                 (A) (A) (A) (A) (A) (A) (A) (A) (A) (A) (A) (A)
                 (A) (A) (A) (A) (A) (A) (A) (A) (A) (A) (A) (A)
                 (A) (A) (A) (A) (A) (A) (A) (A) (A) (A) (A) (A)
                 (A) (A) (A) (A) (A) (A) (A) (A) (A) (A) (A) (A)
                 (A) (A) (A) (A) (A) (A) (A) (A) (A) (A) (A) (A)
                 (A) (A) (A) (A) (A) (A) (A) (A) (A) (A) (A) (A)
                 (A) (A) (A) (A) (A) (A) (A) (A) (A) (A) (A) (A)
                 (A) (A) (A) (A) (A) (A) (A) (A) (A) (A) (A) (A)
                 (A) (A) (A) (A) (A) (A) (A) (A) (A) (A) (A) (A)
                 (A) (A) (A) (A) (A) (A) (A) (A) (A) (A) (A) (A)
                 (A) (A) (A) (A) (A) (A) (A) (A) (A) (A) (A) (A)
                 (A) (A) (A) (A) (A) (A) (A) (A) (A) (A) (A) (A)
                 (A) (A) (A)
 Beta  Orbitals:
       Occupied  (A) (A) (A) (A) (A) (A) (A) (A) (A) (A) (A) (A)
                 (A) (A) (A) (A) (A) (A) (A) (A) (A) (A) (A) (A)
                 (A) (A) (A) (A) (A) (A) (A) (A) (A) (A) (A) (A)
                 (A) (A) (A) (A) (A) (A) (A) (A) (A) (A) (A) (A)
                 (A) (A) (A) (A) (A) (A) (A) (A) (A) (A) (A) (A)
                 (A) (A) (A) (A) (A) (A) (A) (A) (A) (A) (A) (A)
                 (A) (A) (A) (A) (A) (A) (A) (A) (A) (A) (A) (A)
                 (A) (A) (A) (A) (A) (A) (A) (A) (A) (A) (A) (A)
                 (A) (A) (A) (A) (A) (A) (A) (A) (A) (A) (A) (A)
                 (A) (A) (A) (A) (A) (A) (A) (A) (A) (A) (A) (A)
                 (A) (A) (A) (A) (A) (A) (A) (A) (A) (A) (A) (A)
                 (A) (A) (A) (A) (A) (A) (A) (A) (A) (A)
       Virtual   (A) (A) (A) (A) (A) (A) (A) (A) (A) (A) (A) (A)
                 (A) (A) (A) (A) (A) (A) (A) (A) (A) (A) (A) (A)
                 (A) (A) (A) (A) (A) (A) (A) (A) (A) (A) (A) (A)
                 (A) (A) (A) (A) (A) (A) (A) (A) (A) (A) (A) (A)
                 (A) (A) (A) (A) (A) (A) (A) (A) (A) (A) (A) (A)
                 (A) (A) (A) (A) (A) (A) (A) (A) (A) (A) (A) (A)
                 (A) (A) (A) (A) (A) (A) (A) (A) (A) (A) (A) (A)
                 (A) (A) (A) (A) (A) (A) (A) (A) (A) (A) (A) (A)
                 (A) (A) (A) (A) (A) (A) (A) (A) (A) (A) (A) (A)
                 (A) (A) (A) (A) (A) (A) (A) (A) (A) (A) (A) (A)
                 (A) (A) (A) (A) (A) (A) (A) (A) (A) (A) (A) (A)
                 (A) (A) (A) (A) (A) (A) (A) (A) (A) (A) (A) (A)
                 (A) (A) (A) (A) (A) (A) (A) (A) (A) (A) (A) (A)
                 (A) (A) (A) (A) (A) (A) (A) (A) (A) (A) (A) (A)
                 (A) (A) (A) (A) (A) (A) (A) (A) (A) (A) (A) (A)
                 (A) (A) (A) (A) (A) (A) (A) (A) (A) (A) (A) (A)
                 (A) (A) (A) (A) (A) (A) (A) (A) (A) (A) (A) (A)
                 (A) (A) (A) (A) (A) (A) (A) (A) (A) (A) (A) (A)
                 (A) (A) (A) (A) (A) (A) (A) (A) (A) (A) (A) (A)
                 (A) (A) (A) (A) (A) (A) (A) (A) (A) (A) (A) (A)
                 (A) (A) (A) (A) (A) (A) (A) (A) (A) (A) (A) (A)
                 (A) (A) (A) (A) (A) (A) (A) (A) (A) (A) (A) (A)
                 (A) (A) (A) (A) (A) (A) (A) (A) (A) (A) (A) (A)
                 (A) (A) (A) (A) (A) (A) (A) (A) (A) (A) (A) (A)
                 (A) (A) (A) (A) (A) (A) (A) (A) (A) (A) (A) (A)
                 (A) (A) (A) (A) (A) (A) (A) (A) (A) (A) (A) (A)
                 (A) (A) (A) (A) (A) (A) (A) (A) (A) (A) (A) (A)
                 (A) (A) (A) (A) (A) (A) (A) (A) (A) (A) (A) (A)
                 (A) (A) (A) (A) (A) (A) (A) (A) (A) (A) (A) (A)
                 (A) (A) (A) (A) (A) (A) (A) (A) (A) (A) (A) (A)
                 (A) (A) (A) (A) (A) (A) (A) (A) (A) (A) (A) (A)
                 (A) (A) (A) (A) (A) (A) (A) (A) (A) (A) (A) (A)
                 (A) (A) (A) (A) (A) (A) (A) (A) (A) (A) (A) (A)
                 (A) (A) (A) (A) (A) (A) (A) (A) (A) (A) (A) (A)
                 (A) (A) (A) (A) (A) (A) (A) (A) (A) (A) (A) (A)
                 (A) (A) (A) (A) (A) (A) (A) (A) (A) (A) (A) (A)
                 (A) (A) (A) (A) (A) (A) (A) (A) (A) (A) (A) (A)
                 (A) (A) (A) (A) (A) (A) (A) (A) (A) (A) (A) (A)
                 (A) (A) (A) (A) (A) (A) (A)
 The electronic state is 5-A.
 Alpha  occ. eigenvalues -- -256.19179 -88.95422 -30.08342 -25.93047 -25.90982
 Alpha  occ. eigenvalues --  -25.90500 -14.34661 -14.34636 -14.34635 -14.34629
 Alpha  occ. eigenvalues --  -10.22548 -10.22527 -10.22282 -10.22237 -10.22199
 Alpha  occ. eigenvalues --  -10.22156 -10.22118 -10.22076 -10.21989 -10.20501
 Alpha  occ. eigenvalues --  -10.20363 -10.20050 -10.19946 -10.19860 -10.19816
 Alpha  occ. eigenvalues --  -10.19807 -10.19747 -10.19583 -10.19581 -10.19558
 Alpha  occ. eigenvalues --  -10.19543 -10.19542 -10.19538 -10.19534 -10.19500
 Alpha  occ. eigenvalues --  -10.19406 -10.19379 -10.19215 -10.19089 -10.19013
 Alpha  occ. eigenvalues --  -10.18885  -7.98755  -5.93350  -5.93051  -5.92484
 Alpha  occ. eigenvalues --   -3.53992  -2.34086  -2.29468  -2.28741  -0.97558
 Alpha  occ. eigenvalues --   -0.96582  -0.96521  -0.95555  -0.82752  -0.82143
 Alpha  occ. eigenvalues --   -0.81808  -0.81353  -0.80955  -0.80639  -0.80090
 Alpha  occ. eigenvalues --   -0.80019  -0.77198  -0.76001  -0.74700  -0.74404
 Alpha  occ. eigenvalues --   -0.73630  -0.71168  -0.70372  -0.68865  -0.68496
 Alpha  occ. eigenvalues --   -0.68235  -0.66802  -0.64715  -0.64340  -0.60872
 Alpha  occ. eigenvalues --   -0.60592  -0.57932  -0.57139  -0.54854  -0.54474
 Alpha  occ. eigenvalues --   -0.53827  -0.52669  -0.51565  -0.51166  -0.50657
 Alpha  occ. eigenvalues --   -0.49048  -0.48309  -0.47964  -0.46933  -0.46444
 Alpha  occ. eigenvalues --   -0.45572  -0.45387  -0.44805  -0.44276  -0.44075
 Alpha  occ. eigenvalues --   -0.43982  -0.43816  -0.43568  -0.43068  -0.43003
 Alpha  occ. eigenvalues --   -0.42334  -0.41891  -0.41767  -0.41705  -0.41038
 Alpha  occ. eigenvalues --   -0.40981  -0.40629  -0.40392  -0.40215  -0.39866
 Alpha  occ. eigenvalues --   -0.39773  -0.39405  -0.39322  -0.39025  -0.38808
 Alpha  occ. eigenvalues --   -0.38454  -0.38152  -0.37856  -0.37417  -0.37250
 Alpha  occ. eigenvalues --   -0.37068  -0.36657  -0.36109  -0.34856  -0.34675
 Alpha  occ. eigenvalues --   -0.34173  -0.33981  -0.33687  -0.32058  -0.31829
 Alpha  occ. eigenvalues --   -0.31401  -0.31070  -0.29992  -0.29542  -0.29337
 Alpha  occ. eigenvalues --   -0.28107  -0.26527  -0.26265  -0.24612  -0.22670
 Alpha  occ. eigenvalues --   -0.22050  -0.21439  -0.21389  -0.18212  -0.17841
 Alpha  occ. eigenvalues --   -0.16529
 Alpha virt. eigenvalues --   -0.06567  -0.06521  -0.01518   0.01465   0.02794
 Alpha virt. eigenvalues --    0.02943   0.05972   0.06414   0.08422   0.08927
 Alpha virt. eigenvalues --    0.09544   0.10213   0.10493   0.10692   0.11786
 Alpha virt. eigenvalues --    0.12343   0.12603   0.12872   0.13555   0.13998
 Alpha virt. eigenvalues --    0.14678   0.15041   0.15252   0.15414   0.15531
 Alpha virt. eigenvalues --    0.15784   0.16139   0.16342   0.16657   0.16986
 Alpha virt. eigenvalues --    0.17349   0.17641   0.17733   0.18264   0.18388
 Alpha virt. eigenvalues --    0.18624   0.18745   0.18938   0.19417   0.19850
 Alpha virt. eigenvalues --    0.20876   0.21225   0.21349   0.21694   0.22213
 Alpha virt. eigenvalues --    0.22651   0.23142   0.23686   0.24430   0.24481
 Alpha virt. eigenvalues --    0.24918   0.25608   0.25959   0.26364   0.26935
 Alpha virt. eigenvalues --    0.27025   0.27307   0.27645   0.29649   0.29956
 Alpha virt. eigenvalues --    0.30727   0.31358   0.32192   0.32715   0.33857
 Alpha virt. eigenvalues --    0.34385   0.34881   0.35347   0.35851   0.35925
 Alpha virt. eigenvalues --    0.36454   0.36704   0.37752   0.38587   0.38820
 Alpha virt. eigenvalues --    0.39878   0.42820   0.43183   0.43601   0.43999
 Alpha virt. eigenvalues --    0.44221   0.45396   0.46303   0.46810   0.47609
 Alpha virt. eigenvalues --    0.48120   0.48445   0.49247   0.49841   0.50641
 Alpha virt. eigenvalues --    0.51172   0.51529   0.51789   0.52068   0.52831
 Alpha virt. eigenvalues --    0.52907   0.53221   0.53778   0.54346   0.54649
 Alpha virt. eigenvalues --    0.55250   0.55542   0.55891   0.56651   0.57276
 Alpha virt. eigenvalues --    0.58101   0.58586   0.58621   0.59681   0.59931
 Alpha virt. eigenvalues --    0.60309   0.60689   0.61194   0.61275   0.61929
 Alpha virt. eigenvalues --    0.62368   0.62812   0.63005   0.63481   0.63965
 Alpha virt. eigenvalues --    0.64523   0.64685   0.65218   0.65488   0.65946
 Alpha virt. eigenvalues --    0.66214   0.66662   0.66901   0.67543   0.67815
 Alpha virt. eigenvalues --    0.68564   0.68702   0.69333   0.70364   0.70957
 Alpha virt. eigenvalues --    0.71000   0.71813   0.71916   0.72162   0.72686
 Alpha virt. eigenvalues --    0.73306   0.74047   0.74950   0.75418   0.75742
 Alpha virt. eigenvalues --    0.76543   0.76835   0.77148   0.77409   0.77751
 Alpha virt. eigenvalues --    0.78075   0.78447   0.78997   0.79211   0.79334
 Alpha virt. eigenvalues --    0.79746   0.80254   0.81196   0.81343   0.81585
 Alpha virt. eigenvalues --    0.82147   0.82894   0.83508   0.84352   0.85345
 Alpha virt. eigenvalues --    0.86053   0.86859   0.87021   0.87278   0.87680
 Alpha virt. eigenvalues --    0.87772   0.87976   0.88290   0.88762   0.89369
 Alpha virt. eigenvalues --    0.89495   0.89896   0.90516   0.90875   0.91499
 Alpha virt. eigenvalues --    0.91682   0.92025   0.92441   0.92798   0.92853
 Alpha virt. eigenvalues --    0.93180   0.93634   0.93776   0.94428   0.95289
 Alpha virt. eigenvalues --    0.95531   0.96238   0.96681   0.97662   0.97772
 Alpha virt. eigenvalues --    0.98275   0.98388   0.99081   0.99587   0.99721
 Alpha virt. eigenvalues --    1.00173   1.00246   1.00588   1.00903   1.01400
 Alpha virt. eigenvalues --    1.01740   1.02920   1.03881   1.04333   1.04923
 Alpha virt. eigenvalues --    1.05773   1.06053   1.06564   1.06909   1.07259
 Alpha virt. eigenvalues --    1.08411   1.09620   1.10299   1.11082   1.13044
 Alpha virt. eigenvalues --    1.13903   1.14775   1.15580   1.16782   1.17002
 Alpha virt. eigenvalues --    1.17413   1.17692   1.17758   1.18102   1.19563
 Alpha virt. eigenvalues --    1.19808   1.20568   1.21070   1.21336   1.22248
 Alpha virt. eigenvalues --    1.22540   1.23308   1.24429   1.24833   1.26096
 Alpha virt. eigenvalues --    1.26479   1.27390   1.27969   1.29270   1.29654
 Alpha virt. eigenvalues --    1.30794   1.30975   1.32529   1.33803   1.34280
 Alpha virt. eigenvalues --    1.35158   1.35788   1.36641   1.37186   1.37572
 Alpha virt. eigenvalues --    1.38185   1.38302   1.39404   1.39594   1.40376
 Alpha virt. eigenvalues --    1.40569   1.42902   1.44038   1.44992   1.45534
 Alpha virt. eigenvalues --    1.46165   1.46957   1.48338   1.49333   1.50484
 Alpha virt. eigenvalues --    1.51011   1.52737   1.52905   1.53358   1.54317
 Alpha virt. eigenvalues --    1.55098   1.55254   1.56776   1.57825   1.59454
 Alpha virt. eigenvalues --    1.59604   1.60281   1.62142   1.62522   1.63051
 Alpha virt. eigenvalues --    1.63920   1.64656   1.66564   1.68284   1.69341
 Alpha virt. eigenvalues --    1.69706   1.71291   1.71635   1.72086   1.72966
 Alpha virt. eigenvalues --    1.75318   1.77041   1.78014   1.79082   1.79545
 Alpha virt. eigenvalues --    1.79752   1.80649   1.81243   1.81573   1.81865
 Alpha virt. eigenvalues --    1.82490   1.82836   1.83190   1.84078   1.85076
 Alpha virt. eigenvalues --    1.85362   1.86571   1.87179   1.87788   1.88181
 Alpha virt. eigenvalues --    1.88898   1.90852   1.91409   1.91780   1.92467
 Alpha virt. eigenvalues --    1.93144   1.93451   1.94297   1.94571   1.95628
 Alpha virt. eigenvalues --    1.96338   1.97136   1.99147   1.99504   1.99723
 Alpha virt. eigenvalues --    2.00099   2.00485   2.01270   2.01769   2.02599
 Alpha virt. eigenvalues --    2.03359   2.03785   2.04381   2.05582   2.05966
 Alpha virt. eigenvalues --    2.06796   2.07189   2.08833   2.09472   2.11622
 Alpha virt. eigenvalues --    2.12660   2.12857   2.13818   2.14759   2.15669
 Alpha virt. eigenvalues --    2.16318   2.16849   2.18142   2.18982   2.19804
 Alpha virt. eigenvalues --    2.20159   2.20907   2.22106   2.22662   2.23648
 Alpha virt. eigenvalues --    2.24026   2.24729   2.25172   2.25570   2.26227
 Alpha virt. eigenvalues --    2.26554   2.26816   2.27080   2.28011   2.28476
 Alpha virt. eigenvalues --    2.29598   2.30091   2.30760   2.30992   2.31419
 Alpha virt. eigenvalues --    2.32162   2.32757   2.33694   2.34708   2.35169
 Alpha virt. eigenvalues --    2.35649   2.35745   2.36393   2.36508   2.37738
 Alpha virt. eigenvalues --    2.38711   2.40277   2.41168   2.41722   2.41917
 Alpha virt. eigenvalues --    2.42635   2.43014   2.43273   2.45097   2.45371
 Alpha virt. eigenvalues --    2.47736   2.48865   2.49041   2.50524   2.52356
 Alpha virt. eigenvalues --    2.52540   2.52957   2.53217   2.54393   2.54952
 Alpha virt. eigenvalues --    2.56158   2.57011   2.57747   2.58750   2.60560
 Alpha virt. eigenvalues --    2.60834   2.62136   2.64639   2.66396   2.67152
 Alpha virt. eigenvalues --    2.68672   2.69340   2.71458   2.72144   2.73596
 Alpha virt. eigenvalues --    2.76299   2.77601   2.79190   2.79457   2.80762
 Alpha virt. eigenvalues --    2.82453   2.86935   2.88155   2.88537   2.90714
 Alpha virt. eigenvalues --    2.92112   2.92647   2.95635   2.96133   2.97079
 Alpha virt. eigenvalues --    2.97715   2.99082   2.99882   3.00809   3.04199
 Alpha virt. eigenvalues --    3.06458   3.12804   3.14786   3.18998   3.23264
 Alpha virt. eigenvalues --    3.24893   3.28674   3.30170   3.34938   3.39300
 Alpha virt. eigenvalues --    3.40160   3.41217   3.45473   3.46422   3.51806
 Alpha virt. eigenvalues --    3.54988   3.83644   3.99033   4.13930
  Beta  occ. eigenvalues -- -256.19044 -88.95365 -30.00366 -25.85393 -25.84852
  Beta  occ. eigenvalues --  -25.84299 -14.34478 -14.34466 -14.34463 -14.34446
  Beta  occ. eigenvalues --  -10.22559 -10.22502 -10.22265 -10.22246 -10.22191
  Beta  occ. eigenvalues --  -10.22148 -10.22139 -10.22094 -10.21991 -10.20502
  Beta  occ. eigenvalues --  -10.20361 -10.20024 -10.19927 -10.19856 -10.19818
  Beta  occ. eigenvalues --  -10.19812 -10.19747 -10.19583 -10.19568 -10.19555
  Beta  occ. eigenvalues --  -10.19551 -10.19544 -10.19532 -10.19527 -10.19498
  Beta  occ. eigenvalues --  -10.19403 -10.19376 -10.19210 -10.19086 -10.19014
  Beta  occ. eigenvalues --  -10.18885  -7.98690  -5.93304  -5.92985  -5.92355
  Beta  occ. eigenvalues --   -3.34850  -2.10890  -2.10375  -2.09741  -0.97352
  Beta  occ. eigenvalues --   -0.96385  -0.96321  -0.95347  -0.82738  -0.82069
  Beta  occ. eigenvalues --   -0.81745  -0.81266  -0.80869  -0.80446  -0.80073
  Beta  occ. eigenvalues --   -0.79978  -0.77179  -0.75970  -0.74684  -0.74377
  Beta  occ. eigenvalues --   -0.73618  -0.71115  -0.70306  -0.68771  -0.68391
  Beta  occ. eigenvalues --   -0.68197  -0.66649  -0.64666  -0.64327  -0.60815
  Beta  occ. eigenvalues --   -0.60522  -0.57894  -0.56931  -0.54806  -0.54408
  Beta  occ. eigenvalues --   -0.53738  -0.52406  -0.51462  -0.51048  -0.50561
  Beta  occ. eigenvalues --   -0.48542  -0.48253  -0.47674  -0.46763  -0.46336
  Beta  occ. eigenvalues --   -0.45443  -0.45059  -0.44653  -0.44249  -0.43967
  Beta  occ. eigenvalues --   -0.43854  -0.43678  -0.43483  -0.43030  -0.42906
  Beta  occ. eigenvalues --   -0.42253  -0.41873  -0.41741  -0.41680  -0.40851
  Beta  occ. eigenvalues --   -0.40562  -0.40381  -0.40142  -0.39995  -0.39780
  Beta  occ. eigenvalues --   -0.39359  -0.39121  -0.38966  -0.38601  -0.38143
  Beta  occ. eigenvalues --   -0.37970  -0.37332  -0.37029  -0.37022  -0.36671
  Beta  occ. eigenvalues --   -0.36156  -0.35616  -0.35103  -0.34643  -0.34293
  Beta  occ. eigenvalues --   -0.33869  -0.31865  -0.31503  -0.30649  -0.30348
  Beta  occ. eigenvalues --   -0.29236  -0.28875  -0.28019  -0.26757  -0.26571
  Beta  occ. eigenvalues --   -0.23926  -0.23431  -0.22536  -0.21997  -0.18631
  Beta  occ. eigenvalues --   -0.17954  -0.16084
  Beta virt. eigenvalues --   -0.07304  -0.06110  -0.01685  -0.00882  -0.00637
  Beta virt. eigenvalues --    0.01217   0.01702   0.03034   0.03320   0.06153
  Beta virt. eigenvalues --    0.07171   0.08090   0.08557   0.09317   0.09753
  Beta virt. eigenvalues --    0.10461   0.10711   0.11802   0.12026   0.12512
  Beta virt. eigenvalues --    0.12637   0.13503   0.13642   0.14033   0.14791
  Beta virt. eigenvalues --    0.15137   0.15346   0.15548   0.15597   0.15830
  Beta virt. eigenvalues --    0.16171   0.16378   0.16750   0.17096   0.17402
  Beta virt. eigenvalues --    0.17694   0.17791   0.18330   0.18445   0.18674
  Beta virt. eigenvalues --    0.18855   0.18987   0.19453   0.19870   0.20899
  Beta virt. eigenvalues --    0.21260   0.21407   0.21707   0.22302   0.22836
  Beta virt. eigenvalues --    0.23390   0.23915   0.24592   0.25016   0.25377
  Beta virt. eigenvalues --    0.26002   0.26279   0.26577   0.26976   0.27270
  Beta virt. eigenvalues --    0.27498   0.29655   0.30308   0.30560   0.30959
  Beta virt. eigenvalues --    0.32012   0.32644   0.32983   0.34114   0.34626
  Beta virt. eigenvalues --    0.35029   0.35850   0.36065   0.36154   0.36735
  Beta virt. eigenvalues --    0.37190   0.37935   0.38945   0.39211   0.40050
  Beta virt. eigenvalues --    0.43187   0.43327   0.43688   0.44064   0.44312
  Beta virt. eigenvalues --    0.45935   0.46541   0.47235   0.47907   0.48211
  Beta virt. eigenvalues --    0.48575   0.49356   0.50205   0.50790   0.51272
  Beta virt. eigenvalues --    0.51962   0.52005   0.52137   0.52853   0.53038
  Beta virt. eigenvalues --    0.53249   0.54087   0.54510   0.54846   0.55275
  Beta virt. eigenvalues --    0.55832   0.56113   0.56951   0.57436   0.58124
  Beta virt. eigenvalues --    0.58614   0.58653   0.59876   0.60024   0.60337
  Beta virt. eigenvalues --    0.60731   0.61286   0.61342   0.61959   0.62514
  Beta virt. eigenvalues --    0.62872   0.63073   0.63673   0.64067   0.64616
  Beta virt. eigenvalues --    0.64865   0.65247   0.65629   0.65996   0.66420
  Beta virt. eigenvalues --    0.66788   0.66958   0.67596   0.68073   0.68611
  Beta virt. eigenvalues --    0.68891   0.69464   0.70715   0.71021   0.71224
  Beta virt. eigenvalues --    0.71897   0.72092   0.72304   0.73075   0.73457
  Beta virt. eigenvalues --    0.74173   0.75016   0.75581   0.76047   0.76666
  Beta virt. eigenvalues --    0.77099   0.77373   0.77508   0.77828   0.78267
  Beta virt. eigenvalues --    0.78585   0.79191   0.79436   0.79632   0.79907
  Beta virt. eigenvalues --    0.80575   0.81464   0.81672   0.81818   0.82443
  Beta virt. eigenvalues --    0.83025   0.83578   0.84547   0.86084   0.86736
  Beta virt. eigenvalues --    0.86977   0.87309   0.87633   0.87745   0.87838
  Beta virt. eigenvalues --    0.88477   0.88755   0.89054   0.89650   0.89731
  Beta virt. eigenvalues --    0.90691   0.90845   0.91230   0.91541   0.91873
  Beta virt. eigenvalues --    0.92275   0.92621   0.92930   0.92987   0.93341
  Beta virt. eigenvalues --    0.93756   0.93911   0.94497   0.95385   0.95642
  Beta virt. eigenvalues --    0.96348   0.96763   0.97762   0.97903   0.98438
  Beta virt. eigenvalues --    0.98564   0.99133   0.99713   0.99826   1.00299
  Beta virt. eigenvalues --    1.00414   1.00662   1.00965   1.01545   1.01832
  Beta virt. eigenvalues --    1.03251   1.03962   1.04448   1.05038   1.06184
  Beta virt. eigenvalues --    1.06338   1.06717   1.07146   1.07527   1.08711
  Beta virt. eigenvalues --    1.10068   1.10488   1.11714   1.13515   1.14085
  Beta virt. eigenvalues --    1.15418   1.15744   1.16887   1.17370   1.17694
  Beta virt. eigenvalues --    1.17782   1.17955   1.18208   1.19818   1.19899
  Beta virt. eigenvalues --    1.20636   1.21160   1.21447   1.22435   1.22622
  Beta virt. eigenvalues --    1.23440   1.25041   1.25621   1.26515   1.27532
  Beta virt. eigenvalues --    1.27825   1.28264   1.29372   1.30940   1.31146
  Beta virt. eigenvalues --    1.32559   1.32883   1.33982   1.34485   1.35456
  Beta virt. eigenvalues --    1.35825   1.36701   1.37229   1.37613   1.38228
  Beta virt. eigenvalues --    1.38559   1.39531   1.39685   1.40490   1.40681
  Beta virt. eigenvalues --    1.43107   1.44204   1.45159   1.45623   1.46357
  Beta virt. eigenvalues --    1.47054   1.48433   1.49527   1.50982   1.51619
  Beta virt. eigenvalues --    1.52972   1.53365   1.53937   1.54632   1.55298
  Beta virt. eigenvalues --    1.55526   1.57114   1.58169   1.59623   1.59808
  Beta virt. eigenvalues --    1.60495   1.62564   1.63102   1.63362   1.64114
  Beta virt. eigenvalues --    1.64788   1.66665   1.68712   1.69407   1.69788
  Beta virt. eigenvalues --    1.71382   1.71669   1.72251   1.73070   1.75491
  Beta virt. eigenvalues --    1.77273   1.78178   1.79185   1.79584   1.79920
  Beta virt. eigenvalues --    1.80738   1.81408   1.81714   1.82107   1.82583
  Beta virt. eigenvalues --    1.83105   1.83373   1.84310   1.85285   1.85534
  Beta virt. eigenvalues --    1.86790   1.87256   1.87830   1.88255   1.89008
  Beta virt. eigenvalues --    1.90906   1.91775   1.91943   1.92612   1.93344
  Beta virt. eigenvalues --    1.93635   1.94378   1.94755   1.95863   1.96760
  Beta virt. eigenvalues --    1.97358   1.99332   1.99619   1.99903   2.00552
  Beta virt. eigenvalues --    2.01257   2.01604   2.02510   2.03115   2.03790
  Beta virt. eigenvalues --    2.04189   2.04503   2.05754   2.06140   2.06989
  Beta virt. eigenvalues --    2.07481   2.08974   2.09586   2.11762   2.12903
  Beta virt. eigenvalues --    2.13599   2.14816   2.15714   2.16142   2.16615
  Beta virt. eigenvalues --    2.17234   2.18515   2.19392   2.20080   2.20257
  Beta virt. eigenvalues --    2.21598   2.22315   2.22971   2.23924   2.24791
  Beta virt. eigenvalues --    2.24995   2.25419   2.26364   2.26656   2.26941
  Beta virt. eigenvalues --    2.27227   2.28077   2.28604   2.28795   2.30199
  Beta virt. eigenvalues --    2.30204   2.30812   2.31784   2.32095   2.32589
  Beta virt. eigenvalues --    2.32991   2.34080   2.34772   2.35523   2.35737
  Beta virt. eigenvalues --    2.35978   2.36563   2.36634   2.37886   2.38813
  Beta virt. eigenvalues --    2.40451   2.41209   2.41802   2.42207   2.42707
  Beta virt. eigenvalues --    2.43196   2.43349   2.45336   2.45452   2.48428
  Beta virt. eigenvalues --    2.49040   2.49554   2.50853   2.52436   2.52715
  Beta virt. eigenvalues --    2.53080   2.53360   2.54631   2.55219   2.56242
  Beta virt. eigenvalues --    2.57078   2.57871   2.59312   2.60683   2.60890
  Beta virt. eigenvalues --    2.62190   2.64708   2.66672   2.67363   2.68876
  Beta virt. eigenvalues --    2.69455   2.71559   2.72387   2.73684   2.76361
  Beta virt. eigenvalues --    2.77662   2.79404   2.79700   2.80850   2.82522
  Beta virt. eigenvalues --    2.87048   2.88265   2.88654   2.90845   2.92259
  Beta virt. eigenvalues --    2.92809   2.95773   2.96421   2.97580   2.97878
  Beta virt. eigenvalues --    2.99165   2.99942   3.00843   3.04311   3.06585
  Beta virt. eigenvalues --    3.12970   3.14964   3.19090   3.23425   3.25326
  Beta virt. eigenvalues --    3.28730   3.30243   3.38105   3.39427   3.41894
  Beta virt. eigenvalues --    3.45387   3.46242   3.47168   3.61318   3.64367
  Beta virt. eigenvalues --    3.95065   4.10419   4.24519
          Condensed to atoms (all electrons):
          Atomic-Atomic Spin Densities.
 Mulliken charges and spin densities:
               1          2
     1  Fe   0.817711   3.778460
     2  N   -0.714924   0.032905
     3  N   -0.686448   0.049209
     4  N   -0.746591   0.031527
     5  N   -0.708416   0.050935
     6  C    0.314231  -0.013580
     7  C    0.038569   0.014808
     8  C    0.029590  -0.003721
     9  C    0.325348   0.005141
    10  C    0.306828   0.000766
    11  C    0.029808  -0.009036
    12  C   -0.006124   0.009034
    13  C    0.321717  -0.017728
    14  C    0.324248  -0.009624
    15  C    0.038803   0.016023
    16  C   -0.006072  -0.000916
    17  C    0.339138   0.009340
    18  C    0.314211   0.002021
    19  C    0.030536  -0.009912
    20  C    0.033285   0.010905
    21  C    0.318122  -0.018286
    22  C   -0.325409   0.008896
    23  H    0.165095  -0.000048
    24  C   -0.319467  -0.000754
    25  H    0.166113   0.000210
    26  C   -0.307665   0.005097
    27  H    0.178796   0.000116
    28  C   -0.308908  -0.004827
    29  H    0.168128   0.000384
    30  C   -0.609609   0.000788
    31  H    0.184888   0.000298
    32  H    0.188391  -0.000178
    33  H    0.194433  -0.000224
    34  C   -0.608859  -0.000695
    35  H    0.194159   0.000494
    36  H    0.188274   0.000545
    37  H    0.185442   0.000330
    38  C   -0.602948   0.001540
    39  H    0.189223  -0.000734
    40  H    0.190672  -0.000695
    41  H    0.186656   0.000185
    42  C   -0.155965  -0.001557
    43  H    0.168367   0.000336
    44  C   -0.400235   0.002415
    45  H    0.180471  -0.000092
    46  H    0.168131  -0.000070
    47  C   -0.612651  -0.000782
    48  H    0.191293   0.000453
    49  H    0.190162   0.000664
    50  H    0.195944   0.000408
    51  C   -0.146441   0.001043
    52  H    0.167108  -0.000069
    53  C   -0.402015  -0.000981
    54  H    0.175900   0.000045
    55  H    0.167645   0.000184
    56  C   -0.609951   0.001523
    57  H    0.192376  -0.000832
    58  H    0.190230  -0.000725
    59  H    0.184548   0.000268
    60  C   -0.608264  -0.000039
    61  H    0.191969   0.000045
    62  H    0.185149   0.000341
    63  H    0.187193   0.000024
    64  C   -0.678464  -0.003990
    65  H    0.231117   0.000041
    66  H    0.210366   0.000876
    67  H    0.238446   0.001719
    68  S    0.033053   0.069402
    69  H    0.153545  -0.009648
 Sum of Mulliken charges =  -0.00000   4.00000
 Mulliken charges and spin densities with hydrogens summed into heavy atoms:
               1          2
     1  Fe   0.817711   3.778460
     2  N   -0.714924   0.032905
     3  N   -0.686448   0.049209
     4  N   -0.746591   0.031527
     5  N   -0.708416   0.050935
     6  C    0.314231  -0.013580
     7  C    0.038569   0.014808
     8  C    0.029590  -0.003721
     9  C    0.325348   0.005141
    10  C    0.306828   0.000766
    11  C    0.029808  -0.009036
    12  C   -0.006124   0.009034
    13  C    0.321717  -0.017728
    14  C    0.324248  -0.009624
    15  C    0.038803   0.016023
    16  C   -0.006072  -0.000916
    17  C    0.339138   0.009340
    18  C    0.314211   0.002021
    19  C    0.030536  -0.009912
    20  C    0.033285   0.010905
    21  C    0.318122  -0.018286
    22  C   -0.160314   0.008848
    24  C   -0.153354  -0.000544
    26  C   -0.128869   0.005213
    28  C   -0.140780  -0.004443
    30  C   -0.041898   0.000684
    34  C   -0.040983   0.000673
    38  C   -0.036398   0.000297
    42  C    0.012402  -0.001222
    44  C   -0.051633   0.002254
    47  C   -0.035252   0.000742
    51  C    0.020666   0.000974
    53  C   -0.058470  -0.000752
    56  C   -0.042797   0.000233
    60  C   -0.043953   0.000371
    64  C    0.001465  -0.001354
    68  S    0.186598   0.059754
 Electronic spatial extent (au):  <R**2>=          17948.0721
 Charge=             -0.0000 electrons
 Dipole moment (field-independent basis, Debye):
    X=              2.2520    Y=              0.1584    Z=              1.1852  Tot=              2.5497
 Quadrupole moment (field-independent basis, Debye-Ang):
   XX=           -206.9942   YY=           -206.3638   ZZ=           -230.5972
   XY=             -0.7639   XZ=              3.0012   YZ=             -0.7632
 Traceless Quadrupole moment (field-independent basis, Debye-Ang):
   XX=              7.6575   YY=              8.2879   ZZ=            -15.9455
   XY=             -0.7639   XZ=              3.0012   YZ=             -0.7632
 Octapole moment (field-independent basis, Debye-Ang**2):
  XXX=             15.2552  YYY=             -3.1469  ZZZ=             27.1168  XYY=             13.1105
  XXY=              5.0567  XXZ=             -4.3522  XZZ=             28.4734  YZZ=              2.8828
  YYZ=            -14.6246  XYZ=             -0.8244
 Hexadecapole moment (field-independent basis, Debye-Ang**3):
 XXXX=         -11261.0289 YYYY=         -10670.8690 ZZZZ=          -1290.0304 XXXY=            -21.8370
 XXXZ=           -106.1665 YYYX=              5.0914 YYYZ=            -30.1869 ZZZX=             54.5907
 ZZZY=             -6.3455 XXYY=          -3650.2685 XXZZ=          -2256.8062 YYZZ=          -2161.2321
 XXYZ=            -28.8192 YYXZ=             37.6610 ZZXY=             -8.9410
 N-N= 5.039977861129D+03 E-N=-1.733267144655D+04  KE= 3.071043062443D+03
                          Isotropic Fermi Contact Couplings
        Atom                 a.u.       MegaHertz       Gauss      10(-4) cm-1
     1  Fe(57)             0.49198      17.83901       6.36540       5.95045
     2  N(14)              0.09325       7.53259       2.68782       2.51260
     3  N(14)              0.09744       7.87122       2.80865       2.62555
     4  N(14)              0.08614       6.95813       2.48283       2.32098
     5  N(14)              0.08907       7.19504       2.56737       2.40001
     6  C(13)              0.00325       0.91268       0.32567       0.30444
     7  C(13)              0.00514       1.44442       0.51540       0.48181
     8  C(13)              0.00238       0.66831       0.23847       0.22292
     9  C(13)              0.00642       1.80294       0.64333       0.60140
    10  C(13)              0.00498       1.39892       0.49917       0.46663
    11  C(13)              0.00180       0.50452       0.18002       0.16829
    12  C(13)              0.00446       1.25426       0.44755       0.41838
    13  C(13)              0.00222       0.62329       0.22240       0.20791
    14  C(13)              0.00506       1.42307       0.50779       0.47469
    15  C(13)              0.00564       1.58431       0.56532       0.52847
    16  C(13)              0.00267       0.75076       0.26789       0.25043
    17  C(13)              0.00661       1.85717       0.66269       0.61949
    18  C(13)              0.00476       1.33919       0.47785       0.44670
    19  C(13)              0.00144       0.40572       0.14477       0.13533
    20  C(13)              0.00496       1.39397       0.49740       0.46498
    21  C(13)              0.00338       0.95036       0.33911       0.31701
    22  C(13)              0.00151       0.42335       0.15106       0.14122
    23  H(1)              -0.00001      -0.01662      -0.00593      -0.00554
    24  C(13)             -0.00042      -0.11903      -0.04247      -0.03971
    25  H(1)               0.00006       0.07033       0.02509       0.02346
    26  C(13)              0.00078       0.21786       0.07774       0.07267
    27  H(1)               0.00002       0.02105       0.00751       0.00702
    28  C(13)             -0.00114      -0.32003      -0.11420      -0.10675
    29  H(1)               0.00011       0.12227       0.04363       0.04078
    30  C(13)              0.00068       0.19030       0.06790       0.06348
    31  H(1)               0.00009       0.09503       0.03391       0.03170
    32  H(1)              -0.00010      -0.11708      -0.04178      -0.03906
    33  H(1)              -0.00012      -0.13603      -0.04854      -0.04537
    34  C(13)              0.00012       0.03399       0.01213       0.01134
    35  H(1)               0.00020       0.21885       0.07809       0.07300
    36  H(1)               0.00024       0.26314       0.09389       0.08777
    37  H(1)               0.00010       0.11306       0.04034       0.03771
    38  C(13)              0.00091       0.25576       0.09126       0.08531
    39  H(1)              -0.00023      -0.26247      -0.09366      -0.08755
    40  H(1)              -0.00022      -0.24595      -0.08776      -0.08204
    41  H(1)               0.00007       0.07855       0.02803       0.02620
    42  C(13)              0.00031       0.08836       0.03153       0.02947
    43  H(1)               0.00010       0.10927       0.03899       0.03645
    44  C(13)              0.00047       0.13155       0.04694       0.04388
    45  H(1)              -0.00004      -0.04182      -0.01492      -0.01395
    46  H(1)              -0.00002      -0.02639      -0.00942      -0.00880
    47  C(13)              0.00012       0.03393       0.01211       0.01132
    48  H(1)               0.00018       0.20223       0.07216       0.06746
    49  H(1)               0.00032       0.35372       0.12622       0.11799
    50  H(1)               0.00012       0.13402       0.04782       0.04470
    51  C(13)              0.00059       0.16690       0.05955       0.05567
    52  H(1)              -0.00003      -0.03574      -0.01275      -0.01192
    53  C(13)              0.00006       0.01576       0.00562       0.00526
    54  H(1)               0.00002       0.02454       0.00876       0.00819
    55  H(1)               0.00006       0.06470       0.02309       0.02158
    56  C(13)              0.00095       0.26696       0.09526       0.08905
    57  H(1)              -0.00026      -0.28813      -0.10281      -0.09611
    58  H(1)              -0.00023      -0.25944      -0.09257      -0.08654
    59  H(1)               0.00008       0.08783       0.03134       0.02930
    60  C(13)              0.00047       0.13301       0.04746       0.04437
    61  H(1)               0.00014       0.15384       0.05489       0.05132
    62  H(1)               0.00010       0.11617       0.04145       0.03875
    63  H(1)               0.00012       0.13845       0.04940       0.04618
    64  C(13)             -0.00547      -1.53836      -0.54892      -0.51314
    65  H(1)               0.00010       0.11615       0.04144       0.03874
    66  H(1)               0.00121       1.35129       0.48217       0.45074
    67  H(1)               0.00064       0.71309       0.25445       0.23786
    68  S(33)              0.12450      10.69087       3.81477       3.56609
    69  H(1)              -0.00336      -3.75570      -1.34013      -1.25277
 --------------------------------------------------------
       Center         ----  Spin Dipole Couplings  ----
                      3XX-RR        3YY-RR        3ZZ-RR
 --------------------------------------------------------
     1   Atom        2.184404     -0.807652     -1.376752
     2   Atom        0.123453     -0.048443     -0.075010
     3   Atom       -0.066146      0.118440     -0.052294
     4   Atom        0.139718     -0.054912     -0.084806
     5   Atom       -0.065212      0.118460     -0.053248
     6   Atom        0.051738     -0.013528     -0.038210
     7   Atom        0.008005     -0.010325      0.002320
     8   Atom        0.011251      0.001989     -0.013240
     9   Atom        0.000634      0.021867     -0.022501
    10   Atom       -0.019512      0.045679     -0.026167
    11   Atom        0.000995      0.020373     -0.021368
    12   Atom       -0.002684      0.008043     -0.005359
    13   Atom        0.031041      0.013903     -0.044944
    14   Atom        0.052342     -0.016128     -0.036214
    15   Atom        0.008634     -0.011540      0.002907
    16   Atom        0.011584      0.000052     -0.011636
    17   Atom       -0.000083      0.019262     -0.019180
    18   Atom       -0.021617      0.050027     -0.028409
    19   Atom        0.001606      0.021326     -0.022932
    20   Atom       -0.003502      0.007822     -0.004320
    21   Atom        0.035231      0.012275     -0.047506
    22   Atom        0.021428     -0.011615     -0.009813
    23   Atom        0.010795     -0.004625     -0.006170
    24   Atom       -0.007714      0.025038     -0.017324
    25   Atom       -0.004480      0.010934     -0.006454
    26   Atom        0.021771     -0.008603     -0.013168
    27   Atom        0.010177     -0.003983     -0.006194
    28   Atom       -0.005803      0.029306     -0.023503
    29   Atom       -0.004565      0.011516     -0.006950
    30   Atom        0.001372      0.002328     -0.003700
    31   Atom        0.001887      0.000324     -0.002211
    32   Atom        0.000687      0.002219     -0.002906
    33   Atom        0.000152      0.002151     -0.002302
    34   Atom        0.006748     -0.003398     -0.003350
    35   Atom        0.004979     -0.002953     -0.002027
    36   Atom        0.005743     -0.002814     -0.002928
    37   Atom        0.003882     -0.001758     -0.002124
    38   Atom       -0.003410      0.006945     -0.003535
    39   Atom       -0.002781      0.005350     -0.002569
    40   Atom       -0.002861      0.005547     -0.002686
    41   Atom       -0.001550      0.003798     -0.002248
    42   Atom        0.002400      0.001525     -0.003925
    43   Atom        0.000143      0.002021     -0.002163
    44   Atom        0.001515     -0.000264     -0.001251
    45   Atom        0.003177     -0.000397     -0.002780
    46   Atom        0.001447      0.000147     -0.001594
    47   Atom        0.007135     -0.003597     -0.003538
    48   Atom        0.005528     -0.003066     -0.002462
    49   Atom        0.005474     -0.002717     -0.002757
    50   Atom        0.004070     -0.001973     -0.002096
    51   Atom        0.001348      0.002230     -0.003578
    52   Atom       -0.000010      0.002913     -0.002903
    53   Atom        0.001601      0.000726     -0.002327
    54   Atom        0.002391     -0.000431     -0.001960
    55   Atom        0.000868      0.000487     -0.001355
    56   Atom       -0.003517      0.007180     -0.003662
    57   Atom       -0.002878      0.005503     -0.002626
    58   Atom       -0.003040      0.005937     -0.002897
    59   Atom       -0.001601      0.003938     -0.002337
    60   Atom        0.001883      0.001531     -0.003414
    61   Atom        0.001818      0.000587     -0.002405
    62   Atom        0.000042      0.002277     -0.002319
    63   Atom        0.002343      0.000590     -0.002933
    64   Atom       -0.005767     -0.013348      0.019116
    65   Atom       -0.006663     -0.002392      0.009055
    66   Atom       -0.002892     -0.007264      0.010156
    67   Atom        0.008921     -0.015088      0.006168
    68   Atom       -0.178888     -0.171104      0.349992
    69   Atom       -0.024527     -0.007167      0.031694
 --------------------------------------------------------
                        XY            XZ            YZ
 --------------------------------------------------------
     1   Atom        0.800118      0.179122      0.163698
     2   Atom        0.122926     -0.042533     -0.024975
     3   Atom       -0.114368      0.004525     -0.023604
     4   Atom        0.123980      0.038702      0.022159
     5   Atom       -0.122074     -0.007933      0.029270
     6   Atom        0.000160     -0.014863     -0.000705
     7   Atom        0.008257     -0.001094     -0.001934
     8   Atom        0.010946     -0.005976     -0.002380
     9   Atom        0.031626     -0.003311     -0.005833
    10   Atom        0.000703      0.001780     -0.000915
    11   Atom       -0.007940      0.001334     -0.000410
    12   Atom       -0.011264     -0.000171     -0.000354
    13   Atom       -0.030886      0.002223     -0.000397
    14   Atom       -0.002703      0.013374     -0.000763
    15   Atom        0.008298     -0.000540      0.001000
    16   Atom        0.011683      0.003496      0.001249
    17   Atom        0.034425      0.002649      0.005433
    18   Atom       -0.000395     -0.002760     -0.001612
    19   Atom       -0.008829     -0.001231     -0.000130
    20   Atom       -0.011916      0.000112      0.000470
    21   Atom       -0.032943     -0.007820      0.004478
    22   Atom       -0.012019     -0.005166      0.002253
    23   Atom       -0.005871     -0.002352      0.000819
    24   Atom        0.011880     -0.001472     -0.001354
    25   Atom        0.005527     -0.000199     -0.000583
    26   Atom       -0.013267      0.005589     -0.001672
    27   Atom       -0.006184      0.001986     -0.000739
    28   Atom        0.013077      0.001794      0.001215
    29   Atom        0.005769      0.000164      0.000417
    30   Atom        0.005271     -0.001034     -0.001077
    31   Atom        0.003243     -0.000834     -0.000646
    32   Atom        0.004243      0.000114      0.000200
    33   Atom        0.003946     -0.001450     -0.001927
    34   Atom        0.001257     -0.002065     -0.000232
    35   Atom        0.000373     -0.002925     -0.000055
    36   Atom        0.000467     -0.000229     -0.000071
    37   Atom        0.001894     -0.001312     -0.000392
    38   Atom       -0.001417      0.000039     -0.000096
    39   Atom       -0.000450      0.000023     -0.001380
    40   Atom       -0.000563     -0.000037      0.001173
    41   Atom       -0.001780      0.000046     -0.000127
    42   Atom       -0.005312      0.000388     -0.001406
    43   Atom       -0.003162      0.000547     -0.000785
    44   Atom       -0.003149      0.000663      0.001631
    45   Atom       -0.003841     -0.001395      0.000811
    46   Atom       -0.002359     -0.000116      0.000172
    47   Atom        0.001061      0.001893      0.000116
    48   Atom       -0.000182      0.002633     -0.000123
    49   Atom        0.000658     -0.000086      0.000057
    50   Atom        0.001808      0.001621      0.000463
    51   Atom        0.005440      0.000951      0.000418
    52   Atom        0.004305      0.001035      0.001482
    53   Atom        0.003419     -0.000900      0.000400
    54   Atom        0.002607     -0.000235     -0.000198
    55   Atom        0.002039      0.000103      0.000130
    56   Atom       -0.001447     -0.000061      0.000218
    57   Atom       -0.000538     -0.000050      0.001578
    58   Atom       -0.000549      0.000020     -0.001128
    59   Atom       -0.001861     -0.000054      0.000144
    60   Atom       -0.005538     -0.000538      0.000596
    61   Atom       -0.004074     -0.001624      0.001277
    62   Atom       -0.003232     -0.000253      0.000344
    63   Atom       -0.004331      0.000562     -0.000333
    64   Atom       -0.003624      0.017602     -0.008437
    65   Atom       -0.007701      0.010392     -0.013963
    66   Atom       -0.001690      0.008095     -0.002338
    67   Atom       -0.005456      0.023389     -0.005066
    68   Atom        0.009146     -0.026185      0.048553
    69   Atom        0.006754      0.009372      0.028176
 --------------------------------------------------------


 ---------------------------------------------------------------------------------
              Anisotropic Spin Dipole Couplings in Principal Axis System
 ---------------------------------------------------------------------------------

       Atom             a.u.   MegaHertz   Gauss  10(-4) cm-1        Axes

              Baa    -1.4209   -24.600    -8.778    -8.206  0.0129 -0.2736  0.9618
     1 Fe(57) Bbb    -0.9761   -16.899    -6.030    -5.637 -0.2507  0.9302  0.2680
              Bcc     2.3970    41.499    14.808    13.843  0.9680  0.2446  0.0566
 
              Baa    -0.1127    -4.347    -1.551    -1.450 -0.4481  0.8900  0.0840
     2 N(14)  Bbb    -0.0837    -3.230    -1.152    -1.077  0.1972  0.0068  0.9803
              Bcc     0.1964     7.576     2.703     2.527  0.8719  0.4559 -0.1786
 
              Baa    -0.1214    -4.681    -1.670    -1.561  0.8954  0.4359  0.0903
     3 N(14)  Bbb    -0.0541    -2.087    -0.745    -0.696 -0.1254  0.0524  0.9907
              Bcc     0.1755     6.768     2.415     2.258 -0.4272  0.8985 -0.1016
 
              Baa    -0.1156    -4.457    -1.591    -1.487 -0.4186  0.9000 -0.1216
     4 N(14)  Bbb    -0.0912    -3.518    -1.255    -1.174 -0.1885  0.0449  0.9811
              Bcc     0.2068     7.976     2.846     2.660  0.8884  0.4336  0.1509
 
              Baa    -0.1266    -4.884    -1.743    -1.629  0.8879  0.4523 -0.0844
     5 N(14)  Bbb    -0.0565    -2.178    -0.777    -0.727  0.1315 -0.0736  0.9886
              Bcc     0.1831     7.063     2.520     2.356 -0.4409  0.8888  0.1249
 
              Baa    -0.0406    -5.451    -1.945    -1.818  0.1588  0.0247  0.9870
     6 C(13)  Bbb    -0.0135    -1.813    -0.647    -0.605 -0.0079  0.9997 -0.0238
              Bcc     0.0541     7.264     2.592     2.423  0.9873  0.0040 -0.1589
 
              Baa    -0.0136    -1.828    -0.652    -0.610 -0.3513  0.9320  0.0890
     7 C(13)  Bbb     0.0021     0.285     0.102     0.095  0.2048 -0.0162  0.9787
              Bcc     0.0115     1.543     0.551     0.515  0.9136  0.3621 -0.1852
 
              Baa    -0.0146    -1.962    -0.700    -0.655  0.2298 -0.0120  0.9732
     8 C(13)  Bbb    -0.0051    -0.683    -0.244    -0.228 -0.5177  0.8452  0.1327
              Bcc     0.0197     2.645     0.944     0.882  0.8241  0.5343 -0.1881
 
              Baa    -0.0235    -3.156    -1.126    -1.053 -0.3162  0.3344  0.8878
     9 C(13)  Bbb    -0.0217    -2.918    -1.041    -0.973  0.7506 -0.4841  0.4497
              Bcc     0.0453     6.074     2.168     2.026  0.5802  0.8086 -0.0979
 
              Baa    -0.0266    -3.573    -1.275    -1.192 -0.2440  0.0146  0.9697
    10 C(13)  Bbb    -0.0191    -2.559    -0.913    -0.854  0.9697 -0.0071  0.2441
              Bcc     0.0457     6.132     2.188     2.045  0.0104  0.9999 -0.0125
 
              Baa    -0.0214    -2.878    -1.027    -0.960 -0.0599 -0.0016  0.9982
    11 C(13)  Bbb    -0.0018    -0.239    -0.085    -0.080  0.9395  0.3378  0.0569
              Bcc     0.0232     3.117     1.112     1.040 -0.3373  0.9412 -0.0188
 
              Baa    -0.0098    -1.318    -0.470    -0.440  0.8429  0.5329  0.0746
    12 C(13)  Bbb    -0.0053    -0.716    -0.255    -0.239 -0.0685 -0.0313  0.9972
              Bcc     0.0152     2.034     0.726     0.678 -0.5338  0.8456 -0.0101
 
              Baa    -0.0450    -6.041    -2.155    -2.015 -0.0336 -0.0109  0.9994
    13 C(13)  Bbb    -0.0096    -1.282    -0.457    -0.428  0.6043  0.7962  0.0290
              Bcc     0.0546     7.322     2.613     2.442  0.7961 -0.6049  0.0202
 
              Baa    -0.0382    -5.125    -1.829    -1.710 -0.1456  0.0164  0.9892
    14 C(13)  Bbb    -0.0162    -2.178    -0.777    -0.727  0.0414  0.9991 -0.0104
              Bcc     0.0544     7.304     2.606     2.436  0.9885 -0.0395  0.1462
 
              Baa    -0.0146    -1.957    -0.698    -0.653 -0.3371  0.9393 -0.0641
    15 C(13)  Bbb     0.0030     0.399     0.142     0.133 -0.0031  0.0670  0.9977
              Bcc     0.0116     1.558     0.556     0.520  0.9414  0.3366 -0.0197
 
              Baa    -0.0122    -1.635    -0.583    -0.545 -0.1792  0.0710  0.9812
    16 C(13)  Bbb    -0.0071    -0.951    -0.339    -0.317 -0.5033  0.8504 -0.1534
              Bcc     0.0193     2.586     0.923     0.863  0.8453  0.5214  0.1167
 
              Baa    -0.0264    -3.539    -1.263    -1.180  0.7765 -0.6062  0.1719
    17 C(13)  Bbb    -0.0195    -2.619    -0.934    -0.874 -0.1917  0.0327  0.9809
              Bcc     0.0459     6.158     2.197     2.054  0.6003  0.7946  0.0908
 
              Baa    -0.0294    -3.948    -1.409    -1.317  0.3342  0.0208  0.9423
    18 C(13)  Bbb    -0.0206    -2.769    -0.988    -0.924  0.9425 -0.0024 -0.3342
              Bcc     0.0501     6.718     2.397     2.241 -0.0047  0.9998 -0.0204
 
              Baa    -0.0230    -3.087    -1.101    -1.030  0.0549  0.0139  0.9984
    19 C(13)  Bbb    -0.0017    -0.228    -0.082    -0.076  0.9323  0.3572 -0.0563
              Bcc     0.0247     3.315     1.183     1.106 -0.3574  0.9339  0.0067
 
              Baa    -0.0111    -1.483    -0.529    -0.495  0.8439  0.5341 -0.0513
    20 C(13)  Bbb    -0.0043    -0.578    -0.206    -0.193  0.0526  0.0129  0.9985
              Bcc     0.0154     2.061     0.735     0.687 -0.5340  0.8453  0.0172
 
              Baa    -0.0483    -6.479    -2.312    -2.161  0.0818 -0.0292  0.9962
    21 C(13)  Bbb    -0.0111    -1.491    -0.532    -0.497  0.5766  0.8167 -0.0234
              Bcc     0.0594     7.970     2.844     2.658  0.8129 -0.5763 -0.0836
 
              Baa    -0.0156    -2.091    -0.746    -0.698  0.2934  0.9499 -0.1082
    22 C(13)  Bbb    -0.0106    -1.426    -0.509    -0.476  0.1794  0.0564  0.9822
              Bcc     0.0262     3.517     1.255     1.173  0.9390 -0.3075 -0.1539
 
              Baa    -0.0066    -3.527    -1.259    -1.176  0.2893  0.9367 -0.1970
    23 H(1)   Bbb    -0.0065    -3.461    -1.235    -1.155  0.1826  0.1480  0.9720
              Bcc     0.0131     6.988     2.494     2.331  0.9397 -0.3172 -0.1282
 
              Baa    -0.0176    -2.355    -0.840    -0.786  0.1654 -0.0148  0.9861
    24 C(13)  Bbb    -0.0114    -1.531    -0.546    -0.511  0.9365 -0.3112 -0.1617
              Bcc     0.0290     3.886     1.387     1.296  0.3093  0.9502 -0.0376
 
              Baa    -0.0065    -3.455    -1.233    -1.152  0.0590  0.0147  0.9981
    25 H(1)   Bbb    -0.0063    -3.338    -1.191    -1.113  0.9502 -0.3073 -0.0517
              Bcc     0.0127     6.793     2.424     2.266  0.3059  0.9515 -0.0321
 
              Baa    -0.0142    -1.910    -0.682    -0.637 -0.2940 -0.4405  0.8483
    26 C(13)  Bbb    -0.0133    -1.791    -0.639    -0.597  0.2317  0.8282  0.5103
              Bcc     0.0276     3.701     1.321     1.235  0.9273 -0.3465  0.1414
 
              Baa    -0.0064    -3.432    -1.224    -1.145 -0.1203 -0.0041  0.9927
    27 H(1)   Bbb    -0.0063    -3.363    -1.200    -1.122  0.3461  0.9371  0.0458
              Bcc     0.0127     6.794     2.424     2.266  0.9305 -0.3491  0.1113
 
              Baa    -0.0237    -3.178    -1.134    -1.060 -0.1015  0.0022  0.9948
    28 C(13)  Bbb    -0.0100    -1.343    -0.479    -0.448  0.9435 -0.3168  0.0969
              Bcc     0.0337     4.521     1.613     1.508  0.3154  0.9485  0.0300
 
              Baa    -0.0070    -3.715    -1.325    -1.239 -0.0574 -0.0046  0.9983
    29 H(1)   Bbb    -0.0064    -3.425    -1.222    -1.143  0.9503 -0.3069  0.0532
              Bcc     0.0134     7.140     2.548     2.382  0.3061  0.9517  0.0220
 
              Baa    -0.0039    -0.524    -0.187    -0.175  0.1485  0.0451  0.9879
    30 C(13)  Bbb    -0.0034    -0.462    -0.165    -0.154  0.7286 -0.6805 -0.0784
              Bcc     0.0073     0.986     0.352     0.329  0.6687  0.7314 -0.1340
 
              Baa    -0.0024    -1.267    -0.452    -0.423  0.1564  0.0481  0.9865
    31 H(1)   Bbb    -0.0022    -1.190    -0.424    -0.397 -0.6105  0.7899  0.0583
              Bcc     0.0046     2.457     0.877     0.819  0.7764  0.6114 -0.1530
 
              Baa    -0.0029    -1.565    -0.558    -0.522  0.3485 -0.3211  0.8806
    32 H(1)   Bbb    -0.0028    -1.513    -0.540    -0.505  0.6839 -0.5553 -0.4732
              Bcc     0.0058     3.079     1.098     1.027  0.6409  0.7672  0.0261
 
              Baa    -0.0030    -1.613    -0.575    -0.538 -0.1061  0.4171  0.9026
    33 H(1)   Bbb    -0.0029    -1.550    -0.553    -0.517  0.8016 -0.5013  0.3259
              Bcc     0.0059     3.163     1.129     1.055  0.5884  0.7581 -0.2812
 
              Baa    -0.0038    -0.504    -0.180    -0.168  0.2008 -0.0731  0.9769
    34 C(13)  Bbb    -0.0035    -0.476    -0.170    -0.159 -0.1018  0.9902  0.0951
              Bcc     0.0073     0.980     0.350     0.327  0.9743  0.1186 -0.1914
 
              Baa    -0.0031    -1.667    -0.595    -0.556  0.3233 -0.4352  0.8403
    35 H(1)   Bbb    -0.0029    -1.564    -0.558    -0.522  0.1136  0.8994  0.4222
              Bcc     0.0061     3.231     1.153     1.078  0.9394  0.0410 -0.3402
 
              Baa    -0.0030    -1.581    -0.564    -0.527  0.0006  0.4305  0.9026
    36 H(1)   Bbb    -0.0028    -1.500    -0.535    -0.500 -0.0607  0.9009 -0.4297
              Bcc     0.0058     3.081     1.099     1.028  0.9982  0.0545 -0.0267
 
              Baa    -0.0024    -1.280    -0.457    -0.427  0.2199 -0.0545  0.9740
    37 H(1)   Bbb    -0.0023    -1.245    -0.444    -0.415 -0.2674  0.9568  0.1139
              Bcc     0.0047     2.525     0.901     0.842  0.9381  0.2855 -0.1959
 
              Baa    -0.0036    -0.484    -0.173    -0.162  0.9345  0.1224 -0.3343
    38 C(13)  Bbb    -0.0035    -0.473    -0.169    -0.158  0.3301  0.0533  0.9424
              Bcc     0.0071     0.958     0.342     0.319 -0.1332  0.9910 -0.0094
 
              Baa    -0.0029    -1.524    -0.544    -0.508  0.7123  0.1542  0.6847
    39 H(1)   Bbb    -0.0028    -1.468    -0.524    -0.490 -0.6998  0.0819  0.7096
              Bcc     0.0056     2.992     1.068     0.998 -0.0533  0.9846 -0.1663
 
              Baa    -0.0029    -1.559    -0.556    -0.520  0.8637  0.1251 -0.4883
    40 H(1)   Bbb    -0.0028    -1.508    -0.538    -0.503  0.4998 -0.0872  0.8617
              Bcc     0.0057     3.067     1.094     1.023 -0.0652  0.9883  0.1378
 
              Baa    -0.0023    -1.201    -0.429    -0.401 -0.0498  0.0063  0.9987
    41 H(1)   Bbb    -0.0021    -1.114    -0.398    -0.372  0.9559  0.2901  0.0458
              Bcc     0.0043     2.315     0.826     0.772 -0.2894  0.9570 -0.0205
 
              Baa    -0.0046    -0.611    -0.218    -0.204  0.3033  0.4581  0.8356
    42 C(13)  Bbb    -0.0029    -0.385    -0.138    -0.129  0.6173  0.5735 -0.5385
              Bcc     0.0074     0.997     0.356     0.332  0.7259 -0.6791  0.1089
 
              Baa    -0.0023    -1.233    -0.440    -0.411  0.1673  0.2927  0.9414
    43 H(1)   Bbb    -0.0022    -1.177    -0.420    -0.393  0.7888  0.5331 -0.3060
              Bcc     0.0045     2.410     0.860     0.804 -0.5915  0.7938 -0.1417
 
              Baa    -0.0038    -0.509    -0.182    -0.170  0.4733  0.6804 -0.5595
    44 C(13)  Bbb    -0.0001    -0.020    -0.007    -0.007  0.4119  0.3905  0.8233
              Bcc     0.0039     0.529     0.189     0.176  0.7787 -0.6201 -0.0954
 
              Baa    -0.0031    -1.652    -0.589    -0.551  0.2844  0.1188  0.9513
    45 H(1)   Bbb    -0.0028    -1.510    -0.539    -0.504  0.4802  0.8412 -0.2486
              Bcc     0.0059     3.162     1.128     1.055  0.8298 -0.5275 -0.1822
 
              Baa    -0.0017    -0.905    -0.323    -0.302  0.4787  0.6659 -0.5723
    46 H(1)   Bbb    -0.0016    -0.830    -0.296    -0.277  0.3737  0.4353  0.8191
              Bcc     0.0033     1.735     0.619     0.579  0.7945 -0.6059 -0.0405
 
              Baa    -0.0039    -0.522    -0.186    -0.174 -0.1905  0.3276  0.9254
    47 C(13)  Bbb    -0.0037    -0.493    -0.176    -0.165 -0.0328  0.9400 -0.3396
              Bcc     0.0076     1.015     0.362     0.339  0.9811  0.0950  0.1683
 
              Baa    -0.0033    -1.746    -0.623    -0.582 -0.2668  0.3077  0.9133
    48 H(1)   Bbb    -0.0030    -1.627    -0.581    -0.543  0.1088  0.9512 -0.2887
              Bcc     0.0063     3.373     1.204     1.125  0.9576 -0.0224  0.2873
 
              Baa    -0.0028    -1.508    -0.538    -0.503 -0.0653  0.7358 -0.6741
    49 H(1)   Bbb    -0.0027    -1.440    -0.514    -0.480 -0.0464  0.6725  0.7386
              Bcc     0.0055     2.949     1.052     0.984  0.9968  0.0795 -0.0098
 
              Baa    -0.0025    -1.336    -0.477    -0.446 -0.0968 -0.4458  0.8899
    50 H(1)   Bbb    -0.0025    -1.316    -0.470    -0.439 -0.3344  0.8567  0.3928
              Bcc     0.0050     2.653     0.946     0.885  0.9375  0.2595  0.2320
 
              Baa    -0.0041    -0.547    -0.195    -0.183 -0.5625  0.4386  0.7008
    51 C(13)  Bbb    -0.0033    -0.436    -0.156    -0.146  0.4735 -0.5240  0.7080
              Bcc     0.0073     0.984     0.351     0.328  0.6778  0.7301  0.0871
 
              Baa    -0.0033    -1.739    -0.620    -0.580 -0.0062 -0.2294  0.9733
    52 H(1)   Bbb    -0.0031    -1.650    -0.589    -0.550  0.8207 -0.5572 -0.1260
              Bcc     0.0064     3.389     1.209     1.130  0.5713  0.7980  0.1917
 
              Baa    -0.0032    -0.431    -0.154    -0.144  0.4867 -0.4957  0.7193
    53 C(13)  Bbb    -0.0014    -0.191    -0.068    -0.064 -0.4404  0.5718  0.6921
              Bcc     0.0046     0.622     0.222     0.207  0.7544  0.6537 -0.0600
 
              Baa    -0.0020    -1.083    -0.387    -0.361 -0.3502  0.6541  0.6704
    54 H(1)   Bbb    -0.0019    -1.030    -0.367    -0.343  0.3764 -0.5572  0.7402
              Bcc     0.0040     2.113     0.754     0.705  0.8577  0.5116 -0.0511
 
              Baa    -0.0014    -0.743    -0.265    -0.248  0.4951 -0.5815  0.6455
    55 H(1)   Bbb    -0.0013    -0.714    -0.255    -0.238 -0.4578  0.4569  0.7627
              Bcc     0.0027     1.458     0.520     0.486  0.7385  0.6731  0.0400
 
              Baa    -0.0037    -0.500    -0.178    -0.167  0.8783  0.1073  0.4660
    56 C(13)  Bbb    -0.0037    -0.490    -0.175    -0.163 -0.4596 -0.0792  0.8846
              Bcc     0.0074     0.990     0.353     0.330 -0.1318  0.9911  0.0203
 
              Baa    -0.0030    -1.583    -0.565    -0.528 -0.6694 -0.1769  0.7216
    57 H(1)   Bbb    -0.0029    -1.529    -0.546    -0.510  0.7404 -0.0783  0.6676
              Bcc     0.0058     3.112     1.110     1.038 -0.0616  0.9811  0.1834
 
              Baa    -0.0031    -1.658    -0.591    -0.553  0.8143  0.1203  0.5678
    58 H(1)   Bbb    -0.0030    -1.603    -0.572    -0.535 -0.5774  0.0672  0.8137
              Bcc     0.0061     3.261     1.163     1.088 -0.0597  0.9905 -0.1241
 
              Baa    -0.0023    -1.249    -0.446    -0.417  0.0611 -0.0047  0.9981
    59 H(1)   Bbb    -0.0022    -1.156    -0.413    -0.386  0.9546  0.2924 -0.0571
              Bcc     0.0045     2.405     0.858     0.802 -0.2916  0.9563  0.0224
 
              Baa    -0.0038    -0.516    -0.184    -0.172  0.6811  0.7180 -0.1437
    60 C(13)  Bbb    -0.0035    -0.465    -0.166    -0.155  0.1532  0.0522  0.9868
              Bcc     0.0073     0.981     0.350     0.327  0.7160 -0.6941 -0.0745
 
              Baa    -0.0030    -1.605    -0.573    -0.535  0.5869  0.4191  0.6927
    61 H(1)   Bbb    -0.0028    -1.511    -0.539    -0.504 -0.3351 -0.6531  0.6791
              Bcc     0.0058     3.116     1.112     1.039  0.7370 -0.6307 -0.2429
 
              Baa    -0.0023    -1.252    -0.447    -0.417  0.0994 -0.0045  0.9950
    62 H(1)   Bbb    -0.0023    -1.205    -0.430    -0.402  0.8091  0.5824 -0.0782
              Bcc     0.0046     2.457     0.877     0.820 -0.5792  0.8129  0.0616
 
              Baa    -0.0031    -1.635    -0.583    -0.545 -0.4562 -0.4718  0.7545
    63 H(1)   Bbb    -0.0029    -1.530    -0.546    -0.510  0.4416  0.6160  0.6523
              Bcc     0.0059     3.165     1.129     1.056  0.7725 -0.6308  0.0727
 
              Baa    -0.0158    -2.114    -0.754    -0.705 -0.4528  0.7870  0.4190
    64 C(13)  Bbb    -0.0144    -1.933    -0.690    -0.645  0.7713  0.5815 -0.2587
              Bcc     0.0302     4.047     1.444     1.350  0.4472 -0.2061  0.8704
 
              Baa    -0.0125    -6.686    -2.386    -2.230  0.7475  0.6609  0.0676
    65 H(1)   Bbb    -0.0114    -6.059    -2.162    -2.021 -0.5381  0.5426  0.6451
              Bcc     0.0239    12.745     4.548     4.251  0.3896 -0.5186  0.7611
 
              Baa    -0.0079    -4.200    -1.499    -1.401  0.4285  0.9004 -0.0756
    66 H(1)   Bbb    -0.0065    -3.484    -1.243    -1.162  0.7943 -0.4153 -0.4435
              Bcc     0.0144     7.683     2.742     2.563  0.4308 -0.1300  0.8931
 
              Baa    -0.0163    -8.681    -3.098    -2.896  0.2116  0.9774  0.0001
    67 H(1)   Bbb    -0.0159    -8.471    -3.023    -2.826 -0.6622  0.1433  0.7355
              Bcc     0.0321    17.152     6.120     5.721  0.7188 -0.1557  0.6775
 
              Baa    -0.1896    -7.772    -2.773    -2.592  0.7710 -0.6298  0.0941
    68 S(33)  Bbb    -0.1661    -6.811    -2.430    -2.272  0.6351  0.7714 -0.0404
              Bcc     0.3557    14.582     5.203     4.864 -0.0472  0.0909  0.9947
 
              Baa    -0.0268   -14.325    -5.112    -4.778  0.9388 -0.3441  0.0153
    69 H(1)   Bbb    -0.0214   -11.438    -4.081    -3.815  0.3074  0.8172 -0.4876
              Bcc     0.0483    25.764     9.193     8.594  0.1553  0.4625  0.8729
 

 ---------------------------------------------------------------------------------

 Unable to Open any file for archive entry.
 1\1\GINC-BGN1039\SP\UAPFD\Gen\C31H32Fe1N4S1(5)\BECSLEIP\29-Sep-2024\0\
 \# apfd/gen scf=maxcycle=999 geom=check\\5g6j_II_Q\\0,5\Fe,0,-0.140713
 0566,17.27412628,22.0576718859\N,0,0.3445631343,15.484329272,22.853548
 3695\N,0,-0.990795807,17.778176,23.8422486672\N,0,-0.3410793676,19.160
 3454819,21.5071619259\N,0,0.9892422979,16.8403021039,20.5015232304\C,0
 ,1.2243457274,14.5700702513,22.3472114947\C,0,1.4755538067,13.50531279
 16,23.2876623094\C,0,0.7309683748,13.7898669574,24.3885125289\C,0,0.05
 54859436,15.0366434,24.110416172\C,0,-1.2469879388,16.9470822974,24.89
 14192714\C,0,-1.9204971189,17.6439957134,25.9541131896\C,0,-2.09623316
 05,18.9285875995,25.5207160739\C,0,-1.5049369893,18.9881698061,24.2007
 881622\C,0,-0.8115988198,20.2263189176,22.2127513948\C,0,-0.6739080872
 ,21.446902426,21.4620493826\C,0,-0.111482286,21.0990479209,20.26379936
 58\C,0,0.1176792059,19.6686486804,20.3305079353\C,0,1.1345963366,17.63
 62763706,19.4050745256\C,0,1.9267967333,16.9721874315,18.394701908\C,0
 ,2.2572905039,15.7551401819,18.9055958254\C,0,1.6575077377,15.68918474
 ,20.2176252839\C,0,1.7843738258,14.6209311348,21.083549439\H,0,2.39825
 61898,13.7904414234,20.7720032354\C,0,-0.7927056586,15.6470584176,25.0
 092463933\H,0,-1.0063478223,15.1268045097,25.929556523\C,0,-1.39461303
 65,20.1478265212,23.4622943287\H,0,-1.7596101993,21.0587513669,23.9088
 549661\C,0,0.6955707063,18.942165302,19.3060166761\H,0,0.9142598285,19
 .4660470191,18.3885872902\C,0,0.6151431828,13.0387956571,25.6695685929
 \H,0,1.2003061893,12.1235751153,25.632921347\H,0,-0.4235880611,12.7736
 941165,25.8672328494\H,0,0.9750120176,13.6435161268,26.5019974724\C,0,
 2.3921178346,12.3592933058,23.0326637358\H,0,3.3966368773,12.717016515
 8,22.8078753587\H,0,2.0444903804,11.7698900655,22.1835966159\H,0,2.446
 7691358,11.7085316396,23.9015311305\C,0,-2.3475447432,17.0335221354,27
 .24345134\H,0,-1.482740371,16.675404372,27.8040963089\H,0,-3.010669629
 ,16.1859589435,27.0670988398\H,0,-2.877789586,17.7625580296,27.8511650
 688\C,0,-2.7502701568,20.0092046652,26.2333067983\H,0,-2.5407535161,20
 .0566277644,27.2963395871\C,0,-3.5908916949,20.8850691545,25.696522477
 4\H,0,-3.8715070357,20.843976252,24.6575313221\H,0,-4.0504502753,21.66
 01738021,26.2870514008\C,0,-1.0295797641,22.8007173722,21.9661133609\H
 ,0,-0.7807356097,22.8951935254,23.0218960343\H,0,-2.0985488011,22.9877
 53293,21.8529532968\H,0,-0.4865624235,23.5609946413,21.4085095527\C,0,
 0.2604928416,21.944882798,19.1503627666\H,0,1.1483883737,21.6435810808
 ,18.6072202713\C,0,-0.3996150726,23.0294263037,18.7587775596\H,0,-1.31
 19526267,23.3465638279,19.2327631031\H,0,-0.0619768903,23.6238896189,1
 7.9262614141\C,0,2.2863739974,17.573267567,17.0803854012\H,0,2.9362713
 198,18.4373979416,17.2215348097\H,0,1.392535504,17.9047754174,16.55251
 07712\H,0,2.8083467815,16.8526527588,16.4556457416\C,0,3.074477039,14.
 6649205254,18.3037568154\H,0,3.9530153464,14.4632579976,18.9167264718\
 H,0,3.4095170982,14.9386205728,17.3066861101\H,0,2.4937249964,13.74498
 5055,18.2321470969\C,0,-1.7522384691,15.1000579257,20.0863872472\H,0,-
 1.3565592441,15.4971638042,19.1572095437\H,0,-2.6648396743,14.54392266
 65,19.8969248422\H,0,-1.0034380165,14.4820201337,20.5708291647\S,0,-2.
 1357067644,16.5417996824,21.1471081039\H,0,-2.5816414946,15.809607511,
 22.1771325211\\Version=ES64L-G16RevC.02\State=5-A\HF=-3080.2389261\S2=
 6.057443\S2-1=0.\S2A=6.000276\RMSD=5.165e-09\Dipole=-0.0984602,-0.9807
 045,-0.1865921\Quadrupole=-8.839335,5.0095328,3.8298022,-3.4625431,-6.
 2819897,-0.8271782\PG=C01 [X(C31H32Fe1N4S1)]\\@
 The archive entry for this job was punched.


 THERE'S NOTHING SO GREAT AS THE GREAT OUTDOORS.

                                       -- ZIGGY
 Job cpu time:       0 days  2 hours 34 minutes 54.5 seconds.
 Elapsed time:       0 days  0 hours  2 minutes 42.7 seconds.
 File lengths (MBytes):  RWF=    343 Int=      0 D2E=      0 Chk=    150 Scr=      1
 Normal termination of Gaussian 16 at Sun Sep 29 05:57:26 2024.
