 Entering Gaussian System, Link 0=g16
 Input=5g6k05re.com
 Output=5g6k05re.log
 Initial command:
 /sw/chem/gaussian/g16_C02/a100/g16/l1.exe "/local/becsleip_8033216/Gau-2413322.inp" -scrdir="/local/becsleip_8033216/"
 Entering Link 1 = /sw/chem/gaussian/g16_C02/a100/g16/l1.exe PID=   2413323.
  
 Copyright (c) 1988-2021, Gaussian, Inc.  All Rights Reserved.
  
 This is part of the Gaussian(R) 16 program.  It is based on
 the Gaussian(R) 09 system (copyright 2009, Gaussian, Inc.),
 the Gaussian(R) 03 system (copyright 2003, Gaussian, Inc.),
 the Gaussian(R) 98 system (copyright 1998, Gaussian, Inc.),
 the Gaussian(R) 94 system (copyright 1995, Gaussian, Inc.),
 the Gaussian 92(TM) system (copyright 1992, Gaussian, Inc.),
 the Gaussian 90(TM) system (copyright 1990, Gaussian, Inc.),
 the Gaussian 88(TM) system (copyright 1988, Gaussian, Inc.),
 the Gaussian 86(TM) system (copyright 1986, Carnegie Mellon
 University), and the Gaussian 82(TM) system (copyright 1983,
 Carnegie Mellon University). Gaussian is a federally registered
 trademark of Gaussian, Inc.
  
 This software contains proprietary and confidential information,
 including trade secrets, belonging to Gaussian, Inc.
  
 This software is provided under written license and may be
 used, copied, transmitted, or stored only in accord with that
 written license.
  
 The following legend is applicable only to US Government
 contracts under FAR:
  
                    RESTRICTED RIGHTS LEGEND
  
 Use, reproduction and disclosure by the US Government is
 subject to restrictions as set forth in subparagraphs (a)
 and (c) of the Commercial Computer Software - Restricted
 Rights clause in FAR 52.227-19.
  
 Gaussian, Inc.
 340 Quinnipiac St., Bldg. 40, Wallingford CT 06492
  
  
 ---------------------------------------------------------------
 Warning -- This program may not be used in any manner that
 competes with the business of Gaussian, Inc. or will provide
 assistance to any competitor of Gaussian, Inc.  The licensee
 of this program is prohibited from giving any competitor of
 Gaussian, Inc. access to this program.  By using this program,
 the user acknowledges that Gaussian, Inc. is engaged in the
 business of creating and licensing software in the field of
 computational chemistry and represents and warrants to the
 licensee that it is not a competitor of Gaussian, Inc. and that
 it will not use this program in any manner prohibited above.
 ---------------------------------------------------------------
  

 Cite this work as:
 Gaussian 16, Revision C.02,
 M. J. Frisch, G. W. Trucks, H. B. Schlegel, G. E. Scuseria, 
 M. A. Robb, J. R. Cheeseman, G. Scalmani, V. Barone, 
 G. A. Petersson, H. Nakatsuji, X. Li, M. Caricato, A. V. Marenich, 
 J. Bloino, B. G. Janesko, R. Gomperts, B. Mennucci, H. P. Hratchian, 
 J. V. Ortiz, A. F. Izmaylov, J. L. Sonnenberg, D. Williams-Young, 
 F. Ding, F. Lipparini, F. Egidi, J. Goings, B. Peng, A. Petrone, 
 T. Henderson, D. Ranasinghe, V. G. Zakrzewski, J. Gao, N. Rega, 
 G. Zheng, W. Liang, M. Hada, M. Ehara, K. Toyota, R. Fukuda, 
 J. Hasegawa, M. Ishida, T. Nakajima, Y. Honda, O. Kitao, H. Nakai, 
 T. Vreven, K. Throssell, J. A. Montgomery, Jr., J. E. Peralta, 
 F. Ogliaro, M. J. Bearpark, J. J. Heyd, E. N. Brothers, K. N. Kudin, 
 V. N. Staroverov, T. A. Keith, R. Kobayashi, J. Normand, 
 K. Raghavachari, A. P. Rendell, J. C. Burant, S. S. Iyengar, 
 J. Tomasi, M. Cossi, J. M. Millam, M. Klene, C. Adamo, R. Cammi, 
 J. W. Ochterski, R. L. Martin, K. Morokuma, O. Farkas, 
 J. B. Foresman, and D. J. Fox, Gaussian, Inc., Wallingford CT, 2019.
 
 ******************************************
 Gaussian 16:  ES64L-G16RevC.02  7-Dec-2021
                29-Sep-2024 
 ******************************************
 %mem=16GB
 %CPU=0-71
 SetSPE:  set environment variable "OMP_PROC_BIND" = "true"
 SetSPE:  set environment variable "OMP_PLACES" = "{0},{1},{2},{3},{4},{5},{6},{7},{8},{9},{10},{11},{12},{13},{14},{15},{16},{17},{18},{19},{20},{21},{22},{23},{24},{25},{26},{27},{28},{29},{30},{31},{32},{33},{34},{35},{36},{37},{38},{39},{40},{41},{42},{43},{44},{45},{46},{47},{48},{49},{50},{51},{52},{53},{54},{55},{56},{57},{58},{59},{60},{61},{62},{63},{64},{65},{66},{67},{68},{69},{70},{71}"
 Will use up to   72 processors via shared memory.
 %gpucpu=0,1,2,3=0,1,2,3
 Will use    4 GPUs:
 Thread  CPU   GPU
      0    0     0
      1    1     1
      2    2     2
      3    3     3
      4    4    -1
      5    5    -1
      6    6    -1
      7    7    -1
      8    8    -1
      9    9    -1
     10   10    -1
     11   11    -1
     12   12    -1
     13   13    -1
     14   14    -1
     15   15    -1
     16   16    -1
     17   17    -1
     18   18    -1
     19   19    -1
     20   20    -1
     21   21    -1
     22   22    -1
     23   23    -1
     24   24    -1
     25   25    -1
     26   26    -1
     27   27    -1
     28   28    -1
     29   29    -1
     30   30    -1
     31   31    -1
     32   32    -1
     33   33    -1
     34   34    -1
     35   35    -1
     36   36    -1
     37   37    -1
     38   38    -1
     39   39    -1
     40   40    -1
     41   41    -1
     42   42    -1
     43   43    -1
     44   44    -1
     45   45    -1
     46   46    -1
     47   47    -1
     48   48    -1
     49   49    -1
     50   50    -1
     51   51    -1
     52   52    -1
     53   53    -1
     54   54    -1
     55   55    -1
     56   56    -1
     57   57    -1
     58   58    -1
     59   59    -1
     60   60    -1
     61   61    -1
     62   62    -1
     63   63    -1
     64   64    -1
     65   65    -1
     66   66    -1
     67   67    -1
     68   68    -1
     69   69    -1
     70   70    -1
     71   71    -1
 SetGPE:  set environment variable "OMP_PROC_BIND" = "true"
 SetGPE:  set environment variable "OMP_PLACES" = "{0},{1},{2},{3},{4},{5},{6},{7},{8},{9},{10},{11},{12},{13},{14},{15},{16},{17},{18},{19},{20},{21},{22},{23},{24},{25},{26},{27},{28},{29},{30},{31},{32},{33},{34},{35},{36},{37},{38},{39},{40},{41},{42},{43},{44},{45},{46},{47},{48},{49},{50},{51},{52},{53},{54},{55},{56},{57},{58},{59},{60},{61},{62},{63},{64},{65},{66},{67},{68},{69},{70},{71}"
 %oldchk=5g6k_II_S.chk
 %chk=5g6k_II_Sre.chk
 Properties for Device   0
 Minimum vector length:                              32
 Maximum vector length:                            1024
 Number of SMPs:                                    108
 Maximum number of threads per SMP:                2048
 Number of ASync Engines:                             5
 Memory:                                           9207742464
 Properties for Device   1
 Minimum vector length:                              32
 Maximum vector length:                            1024
 Number of SMPs:                                    108
 Maximum number of threads per SMP:                2048
 Number of ASync Engines:                             5
 Memory:                                           9207742464
 Properties for Device   2
 Minimum vector length:                              32
 Maximum vector length:                            1024
 Number of SMPs:                                    108
 Maximum number of threads per SMP:                2048
 Number of ASync Engines:                             5
 Memory:                                           9207742464
 Properties for Device   3
 Minimum vector length:                              32
 Maximum vector length:                            1024
 Number of SMPs:                                    108
 Maximum number of threads per SMP:                2048
 Number of ASync Engines:                             5
 Memory:                                           9207742464
   8286968217 words of memory will be used on each GPU.
 Copying data from "5g6k_II_S.chk" to current chk file "5g6k_II_Sre.chk"
 IOpt=  2 FromEx=T IUOpen= 4 IOptOp= 5 NList=   0 IFRang= 0 IUIn= 4 IUOut= 2.
 --------------------------------------
 # apfd/gen scf=maxcycle=999 geom=check
 --------------------------------------
 1/29=2,38=1,172=1/1;
 2/12=2,40=1/2;
 3/5=7,11=2,14=-4,25=1,30=1,74=-44/1,2,3;
 4//1;
 5/5=2,7=999,38=5/2;
 6/7=2,8=2,9=2,10=2,28=1/1;
 99/5=1,9=1/99;
 ---------
 5g6k_II_Q
 ---------
 Structure from the checkpoint file:  "5g6k_II_Sre.chk"
 Charge =  0 Multiplicity = 5
 Z-Matrix found in chk file.
 Fe,0,-0.1465222814,17.2917065933,22.0799218423
 N,0,0.3411373305,15.5069750241,22.8607154086
 N,0,-0.984481083,17.7986778651,23.8744281022
 N,0,-0.3560921905,19.1904436536,21.5500860178
 N,0,0.9574134172,16.8750215999,20.5065321935
 C,0,1.2147665367,14.5943455601,22.3424661791
 C,0,1.4547162521,13.5129667926,23.267172154
 C,0,0.7199962761,13.7942696501,24.375321
 C,0,0.0527402037,15.0494188813,24.112184327
 C,0,-1.2336868554,16.9593719585,24.9174729901
 C,0,-1.904962503,17.6466118423,25.9898612391
 C,0,-2.0823877874,18.9342589728,25.5691532339
 C,0,-1.4859481591,19.0070945085,24.2508343306
 C,0,-0.7943191933,20.2586875027,22.2737923289
 C,0,-0.6530882899,21.4829342549,21.5322300492
 C,0,-0.115597563,21.1386443397,20.3211629594
 C,0,0.1047076275,19.7074469497,20.375163922
 C,0,1.1067841174,17.682857241,19.4187370628
 C,0,1.9113951162,17.0346885146,18.4090065227
 C,0,2.2637624103,15.8230964845,18.9194772543
 C,0,1.6561707395,15.739394076,20.2267845354
 C,0,1.7812014121,14.6623380144,21.0822898267
 H,0,2.4040838227,13.8402885168,20.7660511894
 C,0,-0.7880957237,15.6562037623,25.0202344547
 H,0,-1.0034277764,15.1267248631,25.9349288814
 C,0,-1.3704407383,20.1745192197,23.5264691225
 H,0,-1.7204027406,21.0848793584,23.9860278044
 C,0,0.6565605892,18.9864122019,19.3316134942
 H,0,0.8734296115,19.5209864195,18.4198921051
 C,0,0.5999732316,13.0302881459,25.6482403632
 H,0,1.1815149538,12.1127948136,25.6031730497
 H,0,-0.4403072264,12.7679356092,25.842070029
 H,0,0.9616733539,13.625093834,26.4872009804
 C,0,2.3566052175,12.3591985608,22.9951606593
 H,0,3.3706481447,12.705336947,22.7950133138
 H,0,2.0119138726,11.7989420655,22.1254490609
 H,0,2.3870585321,11.6845746668,23.846969299
 C,0,-2.3329892605,17.0216022683,27.2716642375
 H,0,-1.4701396615,16.6461903387,27.8231336136
 H,0,-3.0047004615,16.1839023746,27.0840815904
 H,0,-2.8538251689,17.7459001211,27.8925719442
 C,0,-2.7373587061,20.0084165268,26.2901077365
 H,0,-2.5360704743,20.0425933008,27.3552223596
 C,0,-3.5712459797,20.8931991841,25.757223851
 H,0,-3.8431115454,20.8651617828,24.7155520565
 H,0,-4.032935777,21.6628873248,26.3531520262
 C,0,-0.9854088069,22.8363296845,22.052771162
 H,0,-0.7088714188,22.9222021726,23.1023723066
 H,0,-2.0554087729,23.0322855351,21.9683270423
 H,0,-0.4508814997,23.5957089561,21.4858083158
 C,0,0.2486538442,21.9908966108,19.209810919
 H,0,1.1320937612,21.6926616462,18.657711
 C,0,-0.4132931684,23.0788537153,18.8313345238
 H,0,-1.3198388268,23.3953467999,19.316942088
 H,0,-0.0807212188,23.6796641492,18.0013140905
 C,0,2.2689299702,17.6475261161,17.0995054
 H,0,2.9020487826,18.5228671847,17.24808199
 H,0,1.3729617373,17.9647951774,16.5660710998
 H,0,2.8081940746,16.9388760868,16.4759083845
 C,0,3.107159394,14.7520890614,18.3193299891
 H,0,3.9896402636,14.572395385,18.9336434391
 H,0,3.4364604498,15.0328024496,17.3222014489
 H,0,2.5492667938,13.8179412156,18.2480704217
 C,0,-1.8872509086,14.9189310277,20.4877699455
 H,0,-0.9035187753,14.8182907534,20.0415589345
 H,0,-2.6723107441,14.6774835603,19.7777885679
 H,0,-1.9609014081,14.2803030288,21.3617109747
 S,0,-2.120680688,16.6357768183,21.0795285018
 H,0,-1.9634384575,17.1956903792,19.8714427524
 Recover connectivity data from disk.
 Stoichiometry    C31H32FeN4S(5)
 Framework group  C1[X(C31H32FeN4S)]
 Deg. of freedom   201
 Full point group                 C1      NOp   1
 Largest Abelian subgroup         C1      NOp   1
 Largest concise Abelian subgroup C1      NOp   1
                         Standard orientation:                         
 ---------------------------------------------------------------------
 Center     Atomic      Atomic             Coordinates (Angstroms)
 Number     Number       Type             X           Y           Z
 ---------------------------------------------------------------------
      1         26           0        0.177717   -0.019872    0.069266
      2          7           0        2.000248    0.801533   -0.121498
      3          7           0       -0.633504    1.849919   -0.089630
      4          7           0       -1.662373   -0.733718   -0.116047
      5          7           0        0.990231   -1.801038   -0.118150
      6          6           0        3.171307    0.150790   -0.385806
      7          6           0        4.244729    1.081952   -0.636285
      8          6           0        3.698649    2.322503   -0.537446
      9          6           0        2.297649    2.126801   -0.239502
     10          6           0        0.041004    3.031907   -0.040392
     11          6           0       -0.863148    4.150456   -0.105836
     12          6           0       -2.121608    3.623357   -0.176236
     13          6           0       -1.950054    2.184757   -0.179088
     14          6           0       -2.834593   -0.082227   -0.357705
     15          6           0       -3.915340   -1.010816   -0.553534
     16          6           0       -3.375518   -2.261924   -0.421487
     17          6           0       -1.958072   -2.062731   -0.195777
     18          6           0        0.311976   -2.981722   -0.053615
     19          6           0        1.223833   -4.098890   -0.140387
     20          6           0        2.468944   -3.567090   -0.280334
     21          6           0        2.304025   -2.132650   -0.260093
     22          6           0        3.335549   -1.222723   -0.384845
     23          1           0        4.329896   -1.610257   -0.542470
     24          6           0        1.414763    3.171190   -0.067714
     25          1           0        1.813578    4.173094   -0.090431
     26          6           0       -2.986804    1.290651   -0.342338
     27          1           0       -3.973594    1.693435   -0.504924
     28          6           0       -1.064148   -3.105051   -0.028746
     29          1           0       -1.467292   -4.105634   -0.010115
     30          6           0        4.341079    3.654398   -0.715591
     31          1           0        5.403690    3.545564   -0.918146
     32          1           0        4.223411    4.260789    0.182755
     33          1           0        3.885990    4.190520   -1.548624
     34          6           0        5.645406    0.684833   -0.950889
     35          1           0        5.675574    0.068855   -1.849674
     36          1           0        6.074742    0.108684   -0.130632
     37          1           0        6.266812    1.561382   -1.115632
     38          6           0       -0.457576    5.582473   -0.064590
     39          1           0        0.177973    5.826585   -0.916675
     40          1           0        0.101603    5.796353    0.846288
     41          1           0       -1.332906    6.226396   -0.088326
     42          6           0       -3.374062    4.351952   -0.231782
     43          1           0       -3.364316    5.245210   -0.846721
     44          6           0       -4.478035    4.031588    0.432134
     45          1           0       -4.518493    3.185003    1.096539
     46          1           0       -5.374907    4.623340    0.353656
     47          6           0       -5.313316   -0.630580   -0.891413
     48          1           0       -5.325718    0.212152   -1.580730
     49          1           0       -5.864041   -0.341718    0.005075
     50          1           0       -5.826763   -1.470510   -1.354784
     51          6           0       -4.020723   -3.551217   -0.546196
     52          1           0       -3.421876   -4.336029   -0.993048
     53          6           0       -5.260029   -3.827254   -0.155053
     54          1           0       -5.882253   -3.097589    0.333039
     55          1           0       -5.687531   -4.806892   -0.289450
     56          6           0        0.806086   -5.528049   -0.105948
     57          1           0        0.199290   -5.769332   -0.979285
     58          1           0        0.213201   -5.733949    0.785154
     59          1           0        1.673161   -6.183815   -0.101790
     60          6           0        3.780301   -4.255814   -0.437037
     61          1           0        4.237354   -3.993244   -1.391292
     62          1           0        3.656343   -5.335161   -0.403157
     63          1           0        4.466216   -3.962299    0.358151
     64          6           0        1.844922   -0.443944    2.939064
     65          1           0        2.290216   -1.201241    2.302530
     66          1           0        1.819098   -0.761992    3.976786
     67          1           0        2.396073    0.485709    2.844088
     68         16           0        0.138190   -0.094219    2.376048
     69          1           0       -0.301611   -1.347645    2.558251
 ---------------------------------------------------------------------
 Rotational constants (GHZ):           0.1134209           0.1078909           0.0606457
 General basis read from cards:  (5D, 7F)
 There are   644 symmetry adapted cartesian basis functions of A   symmetry.
 There are   605 symmetry adapted basis functions of A   symmetry.
   605 basis functions,  1246 primitive gaussians,   644 cartesian basis functions
   146 alpha electrons      142 beta electrons
       nuclear repulsion energy      5040.2063473415 Hartrees.
 NAtoms=   69 NActive=   69 NUniq=   69 SFac= 1.00D+00 NAtFMM=   60 NAOKFM=T Big=T
 Integral buffers will be    131072 words long.
 Raffenetti 2 integral format.
 Two-electron integral symmetry is turned on.
 R6APFD:  NTU= -4 IXU= 1 FactS= 1.050
 Nuclear repulsion after empirical dispersion term =     5040.0745023552 Hartrees.
 One-electron integrals computed using PRISM.
 NBasis=   605 RedAO= T EigKep=  2.67D-04  NBF=   605
 NBsUse=   605 1.00D-06 EigRej= -1.00D+00 NBFU=   605
 ExpMin= 4.20D-02 ExpMax= 3.01D+05 ExpMxC= 3.30D+03 IAcc=3 IRadAn=         5 AccDes= 0.00D+00
 Harris functional with IExCor= 3731 and IRadAn=       5 diagonalized for initial guess.
 HarFok:  IExCor= 3731 AccDes= 0.00D+00 IRadAn=         5 IDoV= 1 UseB2=F ITyADJ=14
 ICtDFT=  3500011 ScaDFX=  1.000000  1.000000  1.000000  1.000000
 FoFCou: FMM=F IPFlag=           0 FMFlag=      100000 FMFlg1=        2001
         NFxFlg=           0 DoJE=T BraDBF=F KetDBF=T FulRan=T
         wScrn=  0.000000 ICntrl=       500 IOpCl=  0 I1Cent=   200000004 NGrid=           0
         NMat0=    1 NMatS0=      1 NMatT0=    0 NMatD0=    1 NMtDS0=    0 NMtDT0=    0
 Petite list used in FoFCou.
 Initial guess <Sx>= 0.0000 <Sy>= 0.0000 <Sz>= 2.0000 <S**2>= 6.0000 S= 2.0000
 Requested convergence on RMS density matrix=1.00D-08 within 999 cycles.
 Requested convergence on MAX density matrix=1.00D-06.
 Requested convergence on             energy=1.00D-06.
 No special actions if energy rises.
 EnCoef did   100 forward-backward iterations
 EnCoef did   100 forward-backward iterations
 EnCoef did   100 forward-backward iterations
 EnCoef did   100 forward-backward iterations
 EnCoef did     6 forward-backward iterations
 EnCoef did     4 forward-backward iterations
 EnCoef did     3 forward-backward iterations
 Rare condition: small coef for last iteration:  0.000D+00
 Rare condition: small coef for last iteration:  0.000D+00
 Rare condition: small coef for last iteration:  0.000D+00
 Rare condition: small coef for last iteration:  0.000D+00
 Restarting incremental Fock formation.
 Rare condition: small coef for last iteration:  0.000D+00
 Rare condition: small coef for last iteration:  0.000D+00
 Restarting incremental Fock formation.
 SCF Done:  E(UAPFD) =  -3080.19680531     A.U. after   59 cycles
            NFock= 59  Conv=0.90D-08     -V/T= 2.0032
 <Sx>= 0.0000 <Sy>= 0.0000 <Sz>= 2.0000 <S**2>= 6.0789 S= 2.0157
 <L.S>=  0.00000000000    
 Annihilation of the first spin contaminant:
 S**2 before annihilation     6.0789,   after     6.0020

 **********************************************************************

            Population analysis using the SCF Density.

 **********************************************************************

 Orbital symmetries:
 Alpha Orbitals:
       Occupied  (A) (A) (A) (A) (A) (A) (A) (A) (A) (A) (A) (A)
                 (A) (A) (A) (A) (A) (A) (A) (A) (A) (A) (A) (A)
                 (A) (A) (A) (A) (A) (A) (A) (A) (A) (A) (A) (A)
                 (A) (A) (A) (A) (A) (A) (A) (A) (A) (A) (A) (A)
                 (A) (A) (A) (A) (A) (A) (A) (A) (A) (A) (A) (A)
                 (A) (A) (A) (A) (A) (A) (A) (A) (A) (A) (A) (A)
                 (A) (A) (A) (A) (A) (A) (A) (A) (A) (A) (A) (A)
                 (A) (A) (A) (A) (A) (A) (A) (A) (A) (A) (A) (A)
                 (A) (A) (A) (A) (A) (A) (A) (A) (A) (A) (A) (A)
                 (A) (A) (A) (A) (A) (A) (A) (A) (A) (A) (A) (A)
                 (A) (A) (A) (A) (A) (A) (A) (A) (A) (A) (A) (A)
                 (A) (A) (A) (A) (A) (A) (A) (A) (A) (A) (A) (A)
                 (A) (A)
       Virtual   (A) (A) (A) (A) (A) (A) (A) (A) (A) (A) (A) (A)
                 (A) (A) (A) (A) (A) (A) (A) (A) (A) (A) (A) (A)
                 (A) (A) (A) (A) (A) (A) (A) (A) (A) (A) (A) (A)
                 (A) (A) (A) (A) (A) (A) (A) (A) (A) (A) (A) (A)
                 (A) (A) (A) (A) (A) (A) (A) (A) (A) (A) (A) (A)
                 (A) (A) (A) (A) (A) (A) (A) (A) (A) (A) (A) (A)
                 (A) (A) (A) (A) (A) (A) (A) (A) (A) (A) (A) (A)
                 (A) (A) (A) (A) (A) (A) (A) (A) (A) (A) (A) (A)
                 (A) (A) (A) (A) (A) (A) (A) (A) (A) (A) (A) (A)
                 (A) (A) (A) (A) (A) (A) (A) (A) (A) (A) (A) (A)
                 (A) (A) (A) (A) (A) (A) (A) (A) (A) (A) (A) (A)
                 (A) (A) (A) (A) (A) (A) (A) (A) (A) (A) (A) (A)
                 (A) (A) (A) (A) (A) (A) (A) (A) (A) (A) (A) (A)
                 (A) (A) (A) (A) (A) (A) (A) (A) (A) (A) (A) (A)
                 (A) (A) (A) (A) (A) (A) (A) (A) (A) (A) (A) (A)
                 (A) (A) (A) (A) (A) (A) (A) (A) (A) (A) (A) (A)
                 (A) (A) (A) (A) (A) (A) (A) (A) (A) (A) (A) (A)
                 (A) (A) (A) (A) (A) (A) (A) (A) (A) (A) (A) (A)
                 (A) (A) (A) (A) (A) (A) (A) (A) (A) (A) (A) (A)
                 (A) (A) (A) (A) (A) (A) (A) (A) (A) (A) (A) (A)
                 (A) (A) (A) (A) (A) (A) (A) (A) (A) (A) (A) (A)
                 (A) (A) (A) (A) (A) (A) (A) (A) (A) (A) (A) (A)
                 (A) (A) (A) (A) (A) (A) (A) (A) (A) (A) (A) (A)
                 (A) (A) (A) (A) (A) (A) (A) (A) (A) (A) (A) (A)
                 (A) (A) (A) (A) (A) (A) (A) (A) (A) (A) (A) (A)
                 (A) (A) (A) (A) (A) (A) (A) (A) (A) (A) (A) (A)
                 (A) (A) (A) (A) (A) (A) (A) (A) (A) (A) (A) (A)
                 (A) (A) (A) (A) (A) (A) (A) (A) (A) (A) (A) (A)
                 (A) (A) (A) (A) (A) (A) (A) (A) (A) (A) (A) (A)
                 (A) (A) (A) (A) (A) (A) (A) (A) (A) (A) (A) (A)
                 (A) (A) (A) (A) (A) (A) (A) (A) (A) (A) (A) (A)
                 (A) (A) (A) (A) (A) (A) (A) (A) (A) (A) (A) (A)
                 (A) (A) (A) (A) (A) (A) (A) (A) (A) (A) (A) (A)
                 (A) (A) (A) (A) (A) (A) (A) (A) (A) (A) (A) (A)
                 (A) (A) (A) (A) (A) (A) (A) (A) (A) (A) (A) (A)
                 (A) (A) (A) (A) (A) (A) (A) (A) (A) (A) (A) (A)
                 (A) (A) (A) (A) (A) (A) (A) (A) (A) (A) (A) (A)
                 (A) (A) (A) (A) (A) (A) (A) (A) (A) (A) (A) (A)
                 (A) (A) (A)
 Beta  Orbitals:
       Occupied  (A) (A) (A) (A) (A) (A) (A) (A) (A) (A) (A) (A)
                 (A) (A) (A) (A) (A) (A) (A) (A) (A) (A) (A) (A)
                 (A) (A) (A) (A) (A) (A) (A) (A) (A) (A) (A) (A)
                 (A) (A) (A) (A) (A) (A) (A) (A) (A) (A) (A) (A)
                 (A) (A) (A) (A) (A) (A) (A) (A) (A) (A) (A) (A)
                 (A) (A) (A) (A) (A) (A) (A) (A) (A) (A) (A) (A)
                 (A) (A) (A) (A) (A) (A) (A) (A) (A) (A) (A) (A)
                 (A) (A) (A) (A) (A) (A) (A) (A) (A) (A) (A) (A)
                 (A) (A) (A) (A) (A) (A) (A) (A) (A) (A) (A) (A)
                 (A) (A) (A) (A) (A) (A) (A) (A) (A) (A) (A) (A)
                 (A) (A) (A) (A) (A) (A) (A) (A) (A) (A) (A) (A)
                 (A) (A) (A) (A) (A) (A) (A) (A) (A) (A)
       Virtual   (A) (A) (A) (A) (A) (A) (A) (A) (A) (A) (A) (A)
                 (A) (A) (A) (A) (A) (A) (A) (A) (A) (A) (A) (A)
                 (A) (A) (A) (A) (A) (A) (A) (A) (A) (A) (A) (A)
                 (A) (A) (A) (A) (A) (A) (A) (A) (A) (A) (A) (A)
                 (A) (A) (A) (A) (A) (A) (A) (A) (A) (A) (A) (A)
                 (A) (A) (A) (A) (A) (A) (A) (A) (A) (A) (A) (A)
                 (A) (A) (A) (A) (A) (A) (A) (A) (A) (A) (A) (A)
                 (A) (A) (A) (A) (A) (A) (A) (A) (A) (A) (A) (A)
                 (A) (A) (A) (A) (A) (A) (A) (A) (A) (A) (A) (A)
                 (A) (A) (A) (A) (A) (A) (A) (A) (A) (A) (A) (A)
                 (A) (A) (A) (A) (A) (A) (A) (A) (A) (A) (A) (A)
                 (A) (A) (A) (A) (A) (A) (A) (A) (A) (A) (A) (A)
                 (A) (A) (A) (A) (A) (A) (A) (A) (A) (A) (A) (A)
                 (A) (A) (A) (A) (A) (A) (A) (A) (A) (A) (A) (A)
                 (A) (A) (A) (A) (A) (A) (A) (A) (A) (A) (A) (A)
                 (A) (A) (A) (A) (A) (A) (A) (A) (A) (A) (A) (A)
                 (A) (A) (A) (A) (A) (A) (A) (A) (A) (A) (A) (A)
                 (A) (A) (A) (A) (A) (A) (A) (A) (A) (A) (A) (A)
                 (A) (A) (A) (A) (A) (A) (A) (A) (A) (A) (A) (A)
                 (A) (A) (A) (A) (A) (A) (A) (A) (A) (A) (A) (A)
                 (A) (A) (A) (A) (A) (A) (A) (A) (A) (A) (A) (A)
                 (A) (A) (A) (A) (A) (A) (A) (A) (A) (A) (A) (A)
                 (A) (A) (A) (A) (A) (A) (A) (A) (A) (A) (A) (A)
                 (A) (A) (A) (A) (A) (A) (A) (A) (A) (A) (A) (A)
                 (A) (A) (A) (A) (A) (A) (A) (A) (A) (A) (A) (A)
                 (A) (A) (A) (A) (A) (A) (A) (A) (A) (A) (A) (A)
                 (A) (A) (A) (A) (A) (A) (A) (A) (A) (A) (A) (A)
                 (A) (A) (A) (A) (A) (A) (A) (A) (A) (A) (A) (A)
                 (A) (A) (A) (A) (A) (A) (A) (A) (A) (A) (A) (A)
                 (A) (A) (A) (A) (A) (A) (A) (A) (A) (A) (A) (A)
                 (A) (A) (A) (A) (A) (A) (A) (A) (A) (A) (A) (A)
                 (A) (A) (A) (A) (A) (A) (A) (A) (A) (A) (A) (A)
                 (A) (A) (A) (A) (A) (A) (A) (A) (A) (A) (A) (A)
                 (A) (A) (A) (A) (A) (A) (A) (A) (A) (A) (A) (A)
                 (A) (A) (A) (A) (A) (A) (A) (A) (A) (A) (A) (A)
                 (A) (A) (A) (A) (A) (A) (A) (A) (A) (A) (A) (A)
                 (A) (A) (A) (A) (A) (A) (A) (A) (A) (A) (A) (A)
                 (A) (A) (A) (A) (A) (A) (A) (A) (A) (A) (A) (A)
                 (A) (A) (A) (A) (A) (A) (A)
 The electronic state is 5-A.
 Alpha  occ. eigenvalues -- -256.28684 -88.98317 -30.17521 -26.02333 -26.00191
 Alpha  occ. eigenvalues --  -25.99897 -14.37004 -14.36883 -14.36841 -14.36371
 Alpha  occ. eigenvalues --  -10.24417 -10.22686 -10.22380 -10.22370 -10.22072
 Alpha  occ. eigenvalues --  -10.22069 -10.22045 -10.21618 -10.21588 -10.20285
 Alpha  occ. eigenvalues --  -10.20255 -10.19952 -10.19834 -10.19812 -10.19787
 Alpha  occ. eigenvalues --  -10.19718 -10.19676 -10.19484 -10.19466 -10.19453
 Alpha  occ. eigenvalues --  -10.19398 -10.19325 -10.19322 -10.19229 -10.19188
 Alpha  occ. eigenvalues --  -10.19098 -10.18928 -10.18494 -10.18400 -10.17987
 Alpha  occ. eigenvalues --  -10.17237  -8.01725  -5.96273  -5.96003  -5.95522
 Alpha  occ. eigenvalues --   -3.59716  -2.40044  -2.34391  -2.33799  -0.98190
 Alpha  occ. eigenvalues --   -0.97147  -0.97078  -0.96093  -0.83394  -0.82608
 Alpha  occ. eigenvalues --   -0.82045  -0.81687  -0.81478  -0.81054  -0.80071
 Alpha  occ. eigenvalues --   -0.79767  -0.76995  -0.75797  -0.74598  -0.74126
 Alpha  occ. eigenvalues --   -0.73539  -0.71044  -0.70229  -0.69153  -0.68926
 Alpha  occ. eigenvalues --   -0.68568  -0.68180  -0.64629  -0.64159  -0.60658
 Alpha  occ. eigenvalues --   -0.60510  -0.57645  -0.57334  -0.54892  -0.54405
 Alpha  occ. eigenvalues --   -0.53873  -0.52946  -0.51599  -0.51287  -0.50689
 Alpha  occ. eigenvalues --   -0.49291  -0.48963  -0.48052  -0.47837  -0.47121
 Alpha  occ. eigenvalues --   -0.46239  -0.45622  -0.44908  -0.44758  -0.44450
 Alpha  occ. eigenvalues --   -0.44274  -0.43820  -0.43578  -0.43197  -0.42841
 Alpha  occ. eigenvalues --   -0.42616  -0.42234  -0.42110  -0.41842  -0.41625
 Alpha  occ. eigenvalues --   -0.41511  -0.41300  -0.40832  -0.40688  -0.40550
 Alpha  occ. eigenvalues --   -0.40507  -0.40281  -0.39749  -0.39206  -0.38805
 Alpha  occ. eigenvalues --   -0.38649  -0.38541  -0.38126  -0.37855  -0.37524
 Alpha  occ. eigenvalues --   -0.37460  -0.37325  -0.37145  -0.36581  -0.36044
 Alpha  occ. eigenvalues --   -0.34814  -0.34723  -0.34142  -0.33654  -0.33286
 Alpha  occ. eigenvalues --   -0.32600  -0.31974  -0.31272  -0.30972  -0.29639
 Alpha  occ. eigenvalues --   -0.28883  -0.27199  -0.26998  -0.26606  -0.23600
 Alpha  occ. eigenvalues --   -0.23481  -0.22382  -0.22203  -0.19355  -0.18571
 Alpha  occ. eigenvalues --   -0.10445
 Alpha virt. eigenvalues --   -0.08471  -0.06626  -0.02054   0.00573   0.01574
 Alpha virt. eigenvalues --    0.02667   0.04527   0.05448   0.08023   0.08482
 Alpha virt. eigenvalues --    0.08605   0.09937   0.10375   0.10563   0.11607
 Alpha virt. eigenvalues --    0.11966   0.12605   0.12743   0.13581   0.13983
 Alpha virt. eigenvalues --    0.14299   0.14404   0.14775   0.15126   0.15309
 Alpha virt. eigenvalues --    0.15531   0.15824   0.16174   0.16472   0.16709
 Alpha virt. eigenvalues --    0.17252   0.17655   0.18068   0.18308   0.18477
 Alpha virt. eigenvalues --    0.18646   0.18773   0.18991   0.19493   0.19942
 Alpha virt. eigenvalues --    0.20849   0.21203   0.21378   0.21760   0.21971
 Alpha virt. eigenvalues --    0.22472   0.22876   0.23204   0.23862   0.24446
 Alpha virt. eigenvalues --    0.24642   0.25405   0.25732   0.26221   0.26555
 Alpha virt. eigenvalues --    0.26901   0.27033   0.27430   0.29687   0.29788
 Alpha virt. eigenvalues --    0.30689   0.31388   0.31694   0.32550   0.33628
 Alpha virt. eigenvalues --    0.34055   0.34633   0.34960   0.35132   0.35205
 Alpha virt. eigenvalues --    0.35893   0.36514   0.37406   0.37490   0.38043
 Alpha virt. eigenvalues --    0.40016   0.41969   0.42962   0.43304   0.43737
 Alpha virt. eigenvalues --    0.44116   0.45046   0.45678   0.46207   0.47608
 Alpha virt. eigenvalues --    0.48128   0.48388   0.49212   0.49921   0.50263
 Alpha virt. eigenvalues --    0.50436   0.51428   0.51589   0.52026   0.52711
 Alpha virt. eigenvalues --    0.52841   0.53080   0.53179   0.54086   0.54430
 Alpha virt. eigenvalues --    0.55009   0.55364   0.56095   0.56357   0.57401
 Alpha virt. eigenvalues --    0.57718   0.58173   0.58460   0.59323   0.60014
 Alpha virt. eigenvalues --    0.60211   0.60604   0.60991   0.61703   0.62004
 Alpha virt. eigenvalues --    0.62328   0.62403   0.63082   0.63349   0.63880
 Alpha virt. eigenvalues --    0.64113   0.64560   0.64934   0.65506   0.65767
 Alpha virt. eigenvalues --    0.66372   0.66696   0.67012   0.67501   0.67818
 Alpha virt. eigenvalues --    0.68420   0.68637   0.68723   0.69497   0.70544
 Alpha virt. eigenvalues --    0.70724   0.70986   0.71912   0.72155   0.72780
 Alpha virt. eigenvalues --    0.73665   0.74011   0.74829   0.75286   0.75709
 Alpha virt. eigenvalues --    0.76036   0.76460   0.76897   0.77293   0.77577
 Alpha virt. eigenvalues --    0.77930   0.78378   0.78515   0.78867   0.79130
 Alpha virt. eigenvalues --    0.79462   0.80250   0.80501   0.80812   0.81332
 Alpha virt. eigenvalues --    0.81764   0.82097   0.82965   0.83660   0.84411
 Alpha virt. eigenvalues --    0.85192   0.85736   0.86715   0.87153   0.87436
 Alpha virt. eigenvalues --    0.87729   0.87821   0.87978   0.88552   0.88937
 Alpha virt. eigenvalues --    0.89622   0.89733   0.89983   0.90651   0.91300
 Alpha virt. eigenvalues --    0.91424   0.91860   0.91978   0.92524   0.92915
 Alpha virt. eigenvalues --    0.93136   0.93231   0.93428   0.94315   0.94688
 Alpha virt. eigenvalues --    0.95627   0.96039   0.96450   0.97148   0.97476
 Alpha virt. eigenvalues --    0.97809   0.98375   0.98830   0.98992   0.99809
 Alpha virt. eigenvalues --    1.00157   1.00417   1.00709   1.00861   1.01110
 Alpha virt. eigenvalues --    1.01752   1.02856   1.03960   1.04217   1.04698
 Alpha virt. eigenvalues --    1.05143   1.05853   1.06417   1.06690   1.06847
 Alpha virt. eigenvalues --    1.08051   1.08876   1.10110   1.10771   1.12330
 Alpha virt. eigenvalues --    1.13652   1.14174   1.15447   1.15881   1.16297
 Alpha virt. eigenvalues --    1.16967   1.17458   1.17978   1.18397   1.19651
 Alpha virt. eigenvalues --    1.19849   1.20506   1.20922   1.21170   1.22315
 Alpha virt. eigenvalues --    1.22610   1.23639   1.23874   1.24282   1.25239
 Alpha virt. eigenvalues --    1.26596   1.27052   1.27989   1.29182   1.29632
 Alpha virt. eigenvalues --    1.29920   1.30864   1.32769   1.33516   1.33775
 Alpha virt. eigenvalues --    1.34686   1.35510   1.35909   1.36789   1.37134
 Alpha virt. eigenvalues --    1.37929   1.38190   1.38828   1.39380   1.39979
 Alpha virt. eigenvalues --    1.40448   1.42497   1.43727   1.44879   1.45332
 Alpha virt. eigenvalues --    1.46022   1.46926   1.48299   1.49309   1.50156
 Alpha virt. eigenvalues --    1.50792   1.52142   1.52660   1.52849   1.53848
 Alpha virt. eigenvalues --    1.54508   1.55129   1.56266   1.57726   1.59334
 Alpha virt. eigenvalues --    1.59571   1.60018   1.61363   1.61984   1.63000
 Alpha virt. eigenvalues --    1.63885   1.64571   1.66005   1.67722   1.69157
 Alpha virt. eigenvalues --    1.69571   1.69846   1.70124   1.72234   1.72413
 Alpha virt. eigenvalues --    1.75287   1.76616   1.77590   1.78680   1.79421
 Alpha virt. eigenvalues --    1.79793   1.80361   1.80685   1.81311   1.81435
 Alpha virt. eigenvalues --    1.82298   1.82552   1.82823   1.83759   1.84770
 Alpha virt. eigenvalues --    1.85214   1.86422   1.87159   1.87748   1.88179
 Alpha virt. eigenvalues --    1.88933   1.90663   1.90882   1.91770   1.92359
 Alpha virt. eigenvalues --    1.93155   1.93487   1.94025   1.94513   1.95519
 Alpha virt. eigenvalues --    1.96169   1.97186   1.97607   1.99468   1.99869
 Alpha virt. eigenvalues --    1.99983   2.00347   2.01346   2.01516   2.02519
 Alpha virt. eigenvalues --    2.03202   2.03802   2.04548   2.05210   2.05638
 Alpha virt. eigenvalues --    2.06530   2.07158   2.08751   2.09290   2.11065
 Alpha virt. eigenvalues --    2.11872   2.12663   2.13659   2.14633   2.14994
 Alpha virt. eigenvalues --    2.15746   2.16329   2.17686   2.18906   2.19852
 Alpha virt. eigenvalues --    2.20054   2.20788   2.21762   2.22329   2.22681
 Alpha virt. eigenvalues --    2.23729   2.24109   2.24367   2.25265   2.26056
 Alpha virt. eigenvalues --    2.26311   2.26543   2.26822   2.27406   2.28076
 Alpha virt. eigenvalues --    2.29079   2.29729   2.30235   2.31039   2.31523
 Alpha virt. eigenvalues --    2.32355   2.32781   2.33630   2.34716   2.35110
 Alpha virt. eigenvalues --    2.35598   2.35784   2.36162   2.36354   2.37660
 Alpha virt. eigenvalues --    2.38732   2.40218   2.41277   2.41749   2.41930
 Alpha virt. eigenvalues --    2.42574   2.43026   2.43323   2.44967   2.45428
 Alpha virt. eigenvalues --    2.47566   2.48556   2.49111   2.50623   2.52291
 Alpha virt. eigenvalues --    2.52383   2.52809   2.53113   2.54319   2.54979
 Alpha virt. eigenvalues --    2.55947   2.56871   2.57637   2.58497   2.60569
 Alpha virt. eigenvalues --    2.60818   2.62040   2.64726   2.66078   2.67098
 Alpha virt. eigenvalues --    2.68517   2.68913   2.71372   2.72062   2.73497
 Alpha virt. eigenvalues --    2.76223   2.77672   2.78685   2.79539   2.80597
 Alpha virt. eigenvalues --    2.82521   2.86614   2.87665   2.88591   2.90373
 Alpha virt. eigenvalues --    2.91939   2.92179   2.94821   2.95460   2.96840
 Alpha virt. eigenvalues --    2.97340   2.98798   2.99870   3.00776   3.04188
 Alpha virt. eigenvalues --    3.06357   3.12370   3.14737   3.18801   3.23359
 Alpha virt. eigenvalues --    3.24626   3.28687   3.29052   3.30663   3.38937
 Alpha virt. eigenvalues --    3.39427   3.40888   3.43869   3.44215   3.47838
 Alpha virt. eigenvalues --    3.49319   3.81819   3.96612   4.11902
  Beta  occ. eigenvalues -- -256.28574 -88.98218 -30.11549 -25.96082 -25.95982
  Beta  occ. eigenvalues --  -25.95388 -14.36981 -14.36884 -14.36788 -14.36317
  Beta  occ. eigenvalues --  -10.24415 -10.22777 -10.22476 -10.22432 -10.22160
  Beta  occ. eigenvalues --  -10.21858 -10.21854 -10.21404 -10.21403 -10.20315
  Beta  occ. eigenvalues --  -10.20285 -10.20001 -10.19903 -10.19825 -10.19813
  Beta  occ. eigenvalues --  -10.19673 -10.19646 -10.19561 -10.19525 -10.19467
  Beta  occ. eigenvalues --  -10.19397 -10.19225 -10.19206 -10.19139 -10.19091
  Beta  occ. eigenvalues --  -10.18921 -10.18919 -10.18419 -10.18413 -10.17641
  Beta  occ. eigenvalues --  -10.16830  -8.01616  -5.96203  -5.95889  -5.95283
  Beta  occ. eigenvalues --   -3.45421  -2.21741  -2.21694  -2.19052  -0.97964
  Beta  occ. eigenvalues --   -0.96930  -0.96857  -0.95876  -0.82990  -0.82351
  Beta  occ. eigenvalues --   -0.81887  -0.81542  -0.81334  -0.80896  -0.79944
  Beta  occ. eigenvalues --   -0.79363  -0.76877  -0.75652  -0.74521  -0.73745
  Beta  occ. eigenvalues --   -0.73414  -0.70940  -0.70114  -0.69004  -0.68718
  Beta  occ. eigenvalues --   -0.68503  -0.68033  -0.64225  -0.64116  -0.60582
  Beta  occ. eigenvalues --   -0.60359  -0.57465  -0.57102  -0.54772  -0.54309
  Beta  occ. eigenvalues --   -0.53759  -0.52729  -0.51509  -0.51157  -0.50600
  Beta  occ. eigenvalues --   -0.48841  -0.48685  -0.47938  -0.47668  -0.46743
  Beta  occ. eigenvalues --   -0.45915  -0.45297  -0.44565  -0.44381  -0.44100
  Beta  occ. eigenvalues --   -0.43792  -0.43543  -0.43360  -0.42872  -0.42713
  Beta  occ. eigenvalues --   -0.42161  -0.42060  -0.41766  -0.41525  -0.41422
  Beta  occ. eigenvalues --   -0.40756  -0.40503  -0.40183  -0.40092  -0.39831
  Beta  occ. eigenvalues --   -0.39503  -0.39299  -0.38915  -0.38698  -0.38333
  Beta  occ. eigenvalues --   -0.38210  -0.37858  -0.37592  -0.37152  -0.36889
  Beta  occ. eigenvalues --   -0.36753  -0.36109  -0.35788  -0.34753  -0.34329
  Beta  occ. eigenvalues --   -0.33610  -0.32524  -0.31889  -0.31510  -0.31255
  Beta  occ. eigenvalues --   -0.30674  -0.29236  -0.28521  -0.26606  -0.26307
  Beta  occ. eigenvalues --   -0.25663  -0.24014  -0.23538  -0.22514  -0.21761
  Beta  occ. eigenvalues --   -0.18332  -0.17337
  Beta virt. eigenvalues --   -0.09987  -0.09391  -0.07181  -0.05460  -0.04330
  Beta virt. eigenvalues --   -0.00758  -0.00462   0.01336   0.02005   0.03434
  Beta virt. eigenvalues --    0.05077   0.06353   0.08947   0.09376   0.09463
  Beta virt. eigenvalues --    0.10331   0.10552   0.11023   0.12017   0.12303
  Beta virt. eigenvalues --    0.12678   0.12831   0.13879   0.14207   0.14555
  Beta virt. eigenvalues --    0.14796   0.15340   0.15469   0.15666   0.15728
  Beta virt. eigenvalues --    0.15984   0.16290   0.16576   0.16917   0.17467
  Beta virt. eigenvalues --    0.17756   0.18165   0.18517   0.18712   0.18839
  Beta virt. eigenvalues --    0.19034   0.19204   0.19708   0.20089   0.21024
  Beta virt. eigenvalues --    0.21444   0.21644   0.21966   0.22376   0.22844
  Beta virt. eigenvalues --    0.23347   0.23730   0.24195   0.24640   0.25170
  Beta virt. eigenvalues --    0.25671   0.26008   0.26386   0.27030   0.27117
  Beta virt. eigenvalues --    0.27585   0.28066   0.29965   0.30046   0.30896
  Beta virt. eigenvalues --    0.31670   0.32019   0.32812   0.33791   0.34328
  Beta virt. eigenvalues --    0.34800   0.35221   0.35488   0.35555   0.36351
  Beta virt. eigenvalues --    0.36718   0.37661   0.37906   0.38335   0.40192
  Beta virt. eigenvalues --    0.42510   0.43178   0.43651   0.43927   0.44298
  Beta virt. eigenvalues --    0.45395   0.46173   0.46621   0.47758   0.48219
  Beta virt. eigenvalues --    0.48548   0.49326   0.50096   0.50451   0.50777
  Beta virt. eigenvalues --    0.51676   0.51987   0.52185   0.52898   0.52982
  Beta virt. eigenvalues --    0.53268   0.53443   0.54638   0.54723   0.55401
  Beta virt. eigenvalues --    0.55599   0.56333   0.56581   0.57720   0.58023
  Beta virt. eigenvalues --    0.58412   0.58708   0.59597   0.60210   0.60493
  Beta virt. eigenvalues --    0.60926   0.61188   0.61907   0.62307   0.62652
  Beta virt. eigenvalues --    0.62870   0.63372   0.63874   0.64248   0.64499
  Beta virt. eigenvalues --    0.65026   0.65270   0.65724   0.66059   0.66580
  Beta virt. eigenvalues --    0.66938   0.67384   0.67902   0.68128   0.68654
  Beta virt. eigenvalues --    0.69066   0.69192   0.69733   0.70756   0.70974
  Beta virt. eigenvalues --    0.71275   0.72114   0.72379   0.73051   0.73850
  Beta virt. eigenvalues --    0.74383   0.75174   0.75522   0.76132   0.76481
  Beta virt. eigenvalues --    0.76829   0.77110   0.77712   0.77815   0.78215
  Beta virt. eigenvalues --    0.78607   0.78937   0.79157   0.79613   0.79681
  Beta virt. eigenvalues --    0.80604   0.80927   0.81025   0.81692   0.82056
  Beta virt. eigenvalues --    0.82825   0.83434   0.84227   0.85418   0.86131
  Beta virt. eigenvalues --    0.86444   0.86951   0.87543   0.87769   0.87912
  Beta virt. eigenvalues --    0.88051   0.88107   0.88820   0.89124   0.89737
  Beta virt. eigenvalues --    0.89866   0.90126   0.90773   0.91488   0.91656
  Beta virt. eigenvalues --    0.91970   0.92111   0.92813   0.93077   0.93326
  Beta virt. eigenvalues --    0.93440   0.93697   0.94449   0.94819   0.95752
  Beta virt. eigenvalues --    0.96200   0.96724   0.97262   0.97657   0.97990
  Beta virt. eigenvalues --    0.98602   0.98918   0.99123   0.99935   1.00316
  Beta virt. eigenvalues --    1.00533   1.00823   1.00994   1.01437   1.01908
  Beta virt. eigenvalues --    1.03217   1.04134   1.04591   1.05358   1.05505
  Beta virt. eigenvalues --    1.06060   1.06708   1.07005   1.07146   1.08464
  Beta virt. eigenvalues --    1.09351   1.10300   1.11185   1.12546   1.13922
  Beta virt. eigenvalues --    1.14574   1.15677   1.16069   1.16688   1.17217
  Beta virt. eigenvalues --    1.17643   1.18087   1.18589   1.19889   1.20081
  Beta virt. eigenvalues --    1.20693   1.21034   1.21442   1.22530   1.22883
  Beta virt. eigenvalues --    1.23864   1.24722   1.25140   1.25857   1.26912
  Beta virt. eigenvalues --    1.27362   1.28628   1.29970   1.30202   1.30468
  Beta virt. eigenvalues --    1.31232   1.33063   1.33924   1.34007   1.35053
  Beta virt. eigenvalues --    1.35742   1.36132   1.37092   1.37423   1.38253
  Beta virt. eigenvalues --    1.38442   1.39085   1.39585   1.40229   1.40709
  Beta virt. eigenvalues --    1.42785   1.43992   1.45288   1.45536   1.46446
  Beta virt. eigenvalues --    1.47225   1.48509   1.49653   1.50608   1.51483
  Beta virt. eigenvalues --    1.52764   1.52966   1.53201   1.54152   1.54720
  Beta virt. eigenvalues --    1.55415   1.56544   1.58029   1.59583   1.59840
  Beta virt. eigenvalues --    1.60462   1.62022   1.62701   1.63235   1.64146
  Beta virt. eigenvalues --    1.64733   1.66266   1.68287   1.69338   1.69729
  Beta virt. eigenvalues --    1.70107   1.70340   1.72482   1.72698   1.75627
  Beta virt. eigenvalues --    1.76793   1.77802   1.78845   1.79620   1.80012
  Beta virt. eigenvalues --    1.80514   1.81009   1.81490   1.81747   1.82532
  Beta virt. eigenvalues --    1.82835   1.83012   1.84037   1.84912   1.85477
  Beta virt. eigenvalues --    1.86642   1.87253   1.87880   1.88438   1.89205
  Beta virt. eigenvalues --    1.90948   1.91390   1.92034   1.92586   1.93461
  Beta virt. eigenvalues --    1.93980   1.94344   1.94881   1.95867   1.96535
  Beta virt. eigenvalues --    1.97476   1.99560   1.99922   2.00126   2.00489
  Beta virt. eigenvalues --    2.01110   2.01593   2.01839   2.02823   2.03664
  Beta virt. eigenvalues --    2.04061   2.04657   2.05679   2.06026   2.06932
  Beta virt. eigenvalues --    2.07503   2.09033   2.09475   2.12062   2.12811
  Beta virt. eigenvalues --    2.13096   2.14176   2.14839   2.15180   2.15907
  Beta virt. eigenvalues --    2.16598   2.18282   2.19261   2.20262   2.20432
  Beta virt. eigenvalues --    2.21166   2.22432   2.22844   2.23227   2.24077
  Beta virt. eigenvalues --    2.24460   2.24783   2.26104   2.26397   2.26649
  Beta virt. eigenvalues --    2.27014   2.27323   2.27812   2.28316   2.29441
  Beta virt. eigenvalues --    2.30068   2.30531   2.31231   2.31799   2.32561
  Beta virt. eigenvalues --    2.32974   2.33956   2.34910   2.35384   2.35869
  Beta virt. eigenvalues --    2.36018   2.36430   2.36618   2.38052   2.38942
  Beta virt. eigenvalues --    2.40497   2.41442   2.42036   2.42246   2.42718
  Beta virt. eigenvalues --    2.43441   2.43557   2.45174   2.45635   2.48076
  Beta virt. eigenvalues --    2.49068   2.49384   2.50910   2.52523   2.52671
  Beta virt. eigenvalues --    2.52999   2.53353   2.54650   2.55200   2.56159
  Beta virt. eigenvalues --    2.57134   2.57970   2.58880   2.60823   2.61178
  Beta virt. eigenvalues --    2.62342   2.65000   2.66599   2.67406   2.68956
  Beta virt. eigenvalues --    2.69388   2.71622   2.72508   2.73802   2.76370
  Beta virt. eigenvalues --    2.77801   2.79030   2.79667   2.80679   2.82659
  Beta virt. eigenvalues --    2.86729   2.88034   2.88741   2.90619   2.92177
  Beta virt. eigenvalues --    2.92541   2.95229   2.95721   2.97081   2.97682
  Beta virt. eigenvalues --    2.98903   3.00080   3.00891   3.04264   3.06414
  Beta virt. eigenvalues --    3.12466   3.14867   3.18875   3.23511   3.24885
  Beta virt. eigenvalues --    3.28809   3.30466   3.36651   3.39384   3.40605
  Beta virt. eigenvalues --    3.41193   3.45642   3.46763   3.56731   3.58121
  Beta virt. eigenvalues --    3.85894   4.02556   4.17523
          Condensed to atoms (all electrons):
          Atomic-Atomic Spin Densities.
 Mulliken charges and spin densities:
               1          2
     1  Fe   0.745395   2.835213
     2  N   -0.694600  -0.018617
     3  N   -0.692637   0.009118
     4  N   -0.705840  -0.007843
     5  N   -0.697374   0.007701
     6  C    0.326006  -0.044286
     7  C    0.030230   0.119523
     8  C    0.035912  -0.022700
     9  C    0.304940   0.144002
    10  C    0.308087   0.127402
    11  C    0.037558  -0.049810
    12  C   -0.012874   0.121155
    13  C    0.339179  -0.077246
    14  C    0.326084  -0.071301
    15  C    0.030284   0.158615
    16  C    0.000819  -0.037592
    17  C    0.307904   0.143842
    18  C    0.294457   0.132264
    19  C    0.039221  -0.045610
    20  C    0.027418   0.111986
    21  C    0.320659  -0.066312
    22  C   -0.353305   0.253175
    23  H    0.156145  -0.012731
    24  C   -0.301676  -0.074278
    25  H    0.165441   0.002760
    26  C   -0.337809   0.293229
    27  H    0.169781  -0.013948
    28  C   -0.308616  -0.082808
    29  H    0.166824   0.003104
    30  C   -0.610590   0.000595
    31  H    0.185315  -0.000484
    32  H    0.188563   0.000020
    33  H    0.195256  -0.000045
    34  C   -0.606694  -0.011793
    35  H    0.192023   0.006577
    36  H    0.184944   0.006231
    37  H    0.182659  -0.000010
    38  C   -0.604141   0.003239
    39  H    0.190354  -0.001316
    40  H    0.193083  -0.001127
    41  H    0.187784  -0.000547
    42  C   -0.156422  -0.036537
    43  H    0.164873   0.003632
    44  C   -0.399787   0.056357
    45  H    0.179282  -0.002417
    46  H    0.164653  -0.003100
    47  C   -0.609874  -0.014509
    48  H    0.191081   0.005116
    49  H    0.185476   0.008864
    50  H    0.192659   0.000884
    51  C   -0.148749   0.001859
    52  H    0.166842  -0.000588
    53  C   -0.403029   0.006566
    54  H    0.176005  -0.000347
    55  H    0.166886  -0.000502
    56  C   -0.610291   0.002906
    57  H    0.195873  -0.001113
    58  H    0.189998  -0.000840
    59  H    0.186299  -0.000531
    60  C   -0.605824  -0.010808
    61  H    0.193361   0.006076
    62  H    0.183313   0.000008
    63  H    0.185634   0.006031
    64  C   -0.686426   0.000556
    65  H    0.254048   0.001563
    66  H    0.220402   0.003098
    67  H    0.244873  -0.000077
    68  S    0.095769   0.129474
    69  H    0.176901  -0.000969
 Sum of Mulliken charges =  -0.00000   4.00000
 Mulliken charges and spin densities with hydrogens summed into heavy atoms:
               1          2
     1  Fe   0.745395   2.835213
     2  N   -0.694600  -0.018617
     3  N   -0.692637   0.009118
     4  N   -0.705840  -0.007843
     5  N   -0.697374   0.007701
     6  C    0.326006  -0.044286
     7  C    0.030230   0.119523
     8  C    0.035912  -0.022700
     9  C    0.304940   0.144002
    10  C    0.308087   0.127402
    11  C    0.037558  -0.049810
    12  C   -0.012874   0.121155
    13  C    0.339179  -0.077246
    14  C    0.326084  -0.071301
    15  C    0.030284   0.158615
    16  C    0.000819  -0.037592
    17  C    0.307904   0.143842
    18  C    0.294457   0.132264
    19  C    0.039221  -0.045610
    20  C    0.027418   0.111986
    21  C    0.320659  -0.066312
    22  C   -0.197159   0.240444
    24  C   -0.136235  -0.071518
    26  C   -0.168028   0.279281
    28  C   -0.141792  -0.079704
    30  C   -0.041456   0.000086
    34  C   -0.047068   0.001006
    38  C   -0.032920   0.000250
    42  C    0.008451  -0.032905
    44  C   -0.055852   0.050841
    47  C   -0.040657   0.000355
    51  C    0.018094   0.001271
    53  C   -0.060138   0.005717
    56  C   -0.038121   0.000422
    60  C   -0.043515   0.001307
    64  C    0.032897   0.005140
    68  S    0.272670   0.128505
 Electronic spatial extent (au):  <R**2>=          17948.9543
 Charge=             -0.0000 electrons
 Dipole moment (field-independent basis, Debye):
    X=              2.4619    Y=             -1.0363    Z=              2.5609  Tot=              3.7004
 Quadrupole moment (field-independent basis, Debye-Ang):
   XX=           -215.6616   YY=           -209.3676   ZZ=           -227.5390
   XY=              1.2968   XZ=              2.5804   YZ=             -4.5195
 Traceless Quadrupole moment (field-independent basis, Debye-Ang):
   XX=              1.8611   YY=              8.1551   ZZ=            -10.0163
   XY=              1.2968   XZ=              2.5804   YZ=             -4.5195
 Octapole moment (field-independent basis, Debye-Ang**2):
  XXX=             22.1895  YYY=             -6.2580  ZZZ=             41.6800  XYY=             17.7106
  XXY=              5.4077  XXZ=              2.1526  XZZ=             27.1967  YZZ=            -11.3559
  YYZ=            -16.3734  XYZ=              1.0219
 Hexadecapole moment (field-independent basis, Debye-Ang**3):
 XXXX=         -11467.1410 YYYY=         -10629.7064 ZZZZ=          -1249.2909 XXXY=             11.5042
 XXXZ=            -94.8892 YYYX=             13.3582 YYYZ=            -33.7843 ZZZX=             50.9590
 ZZZY=            -50.3986 XXYY=          -3680.5612 XXZZ=          -2258.5755 YYZZ=          -2162.7081
 XXYZ=            -18.2152 YYXZ=             34.2268 ZZXY=             -3.2669
 N-N= 5.040074502355D+03 E-N=-1.732964626470D+04  KE= 3.070419657333D+03
                          Isotropic Fermi Contact Couplings
        Atom                 a.u.       MegaHertz       Gauss      10(-4) cm-1
     1  Fe(57)             0.49946      18.11032       6.46221       6.04095
     2  N(14)             -0.03056      -2.46858      -0.88085      -0.82343
     3  N(14)             -0.03039      -2.45497      -0.87600      -0.81889
     4  N(14)             -0.02497      -2.01668      -0.71960      -0.67269
     5  N(14)             -0.02569      -2.07541      -0.74056      -0.69228
     6  C(13)             -0.01293      -3.63380      -1.29663      -1.21210
     7  C(13)              0.01618       4.54659       1.62234       1.51658
     8  C(13)             -0.00770      -2.16541      -0.77267      -0.72230
     9  C(13)              0.01738       4.88431       1.74284       1.62923
    10  C(13)              0.01419       3.98845       1.42318       1.33040
    11  C(13)             -0.01167      -3.27928      -1.17013      -1.09385
    12  C(13)              0.01669       4.69068       1.67375       1.56464
    13  C(13)             -0.01909      -5.36603      -1.91473      -1.78991
    14  C(13)             -0.01749      -4.91463      -1.75366      -1.63934
    15  C(13)              0.02213       6.21852       2.21892       2.07428
    16  C(13)             -0.00984      -2.76640      -0.98712      -0.92277
    17  C(13)              0.01790       5.03180       1.79547       1.67843
    18  C(13)              0.01503       4.22389       1.50719       1.40894
    19  C(13)             -0.01057      -2.97000      -1.05977      -0.99069
    20  C(13)              0.01561       4.38639       1.56517       1.46314
    21  C(13)             -0.01657      -4.65594      -1.66135      -1.55305
    22  C(13)              0.03388       9.52195       3.39767       3.17618
    23  H(1)              -0.00401      -4.47744      -1.59766      -1.49351
    24  C(13)             -0.01313      -3.68885      -1.31627      -1.23047
    25  H(1)               0.00084       0.93623       0.33407       0.31229
    26  C(13)              0.03992      11.21844       4.00302       3.74207
    27  H(1)              -0.00461      -5.14920      -1.83736      -1.71759
    28  C(13)             -0.01438      -4.04190      -1.44225      -1.34823
    29  H(1)               0.00097       1.08379       0.38672       0.36151
    30  C(13)             -0.00003      -0.00852      -0.00304      -0.00284
    31  H(1)              -0.00021      -0.23186      -0.08273      -0.07734
    32  H(1)               0.00020       0.22284       0.07952       0.07433
    33  H(1)               0.00021       0.23318       0.08320       0.07778
    34  C(13)             -0.00439      -1.23515      -0.44073      -0.41200
    35  H(1)               0.00238       2.66297       0.95021       0.88827
    36  H(1)               0.00243       2.70996       0.96698       0.90394
    37  H(1)              -0.00003      -0.03458      -0.01234      -0.01154
    38  C(13)              0.00092       0.25792       0.09203       0.08603
    39  H(1)              -0.00048      -0.53185      -0.18978      -0.17740
    40  H(1)              -0.00034      -0.38252      -0.13649      -0.12759
    41  H(1)              -0.00023      -0.25292      -0.09025      -0.08436
    42  C(13)             -0.00795      -2.23316      -0.79685      -0.74490
    43  H(1)               0.00157       1.75768       0.62718       0.58630
    44  C(13)              0.00805       2.26317       0.80756       0.75491
    45  H(1)              -0.00089      -0.99828      -0.35621      -0.33299
    46  H(1)              -0.00094      -1.04888      -0.37427      -0.34987
    47  C(13)             -0.00538      -1.51193      -0.53950      -0.50433
    48  H(1)               0.00164       1.83755       0.65568       0.61294
    49  H(1)               0.00397       4.43799       1.58358       1.48035
    50  H(1)               0.00059       0.66477       0.23721       0.22174
    51  C(13)              0.00016       0.04400       0.01570       0.01468
    52  H(1)              -0.00007      -0.07489      -0.02672      -0.02498
    53  C(13)              0.00045       0.12516       0.04466       0.04175
    54  H(1)              -0.00007      -0.08232      -0.02937      -0.02746
    55  H(1)              -0.00015      -0.16757      -0.05979      -0.05590
    56  C(13)              0.00080       0.22488       0.08024       0.07501
    57  H(1)              -0.00037      -0.40948      -0.14611      -0.13659
    58  H(1)              -0.00028      -0.31327      -0.11178      -0.10450
    59  H(1)              -0.00022      -0.24940      -0.08899      -0.08319
    60  C(13)             -0.00403      -1.13286      -0.40423      -0.37788
    61  H(1)               0.00224       2.49813       0.89139       0.83329
    62  H(1)              -0.00002      -0.02299      -0.00820      -0.00767
    63  H(1)               0.00209       2.33507       0.83321       0.77890
    64  C(13)             -0.00164      -0.46047      -0.16431      -0.15360
    65  H(1)               0.00092       1.03079       0.36781       0.34383
    66  H(1)               0.00231       2.57681       0.91947       0.85953
    67  H(1)              -0.00001      -0.00611      -0.00218      -0.00204
    68  S(33)              0.15533      13.33805       4.75935       4.44910
    69  H(1)               0.00003       0.03820       0.01363       0.01274
 --------------------------------------------------------
       Center         ----  Spin Dipole Couplings  ----
                      3XX-RR        3YY-RR        3ZZ-RR
 --------------------------------------------------------
     1   Atom       -2.067710     -2.485281      4.552992
     2   Atom       -0.051540     -0.062309      0.113849
     3   Atom       -0.084453     -0.091392      0.175845
     4   Atom       -0.052483     -0.075354      0.127837
     5   Atom       -0.080954     -0.073869      0.154823
     6   Atom        0.025944      0.000291     -0.026234
     7   Atom       -0.045815     -0.070116      0.115931
     8   Atom        0.000559      0.002768     -0.003326
     9   Atom       -0.059298     -0.074664      0.133962
    10   Atom       -0.078336     -0.045755      0.124091
    11   Atom        0.010658      0.023874     -0.034532
    12   Atom       -0.061361     -0.058904      0.120266
    13   Atom        0.031476      0.027402     -0.058878
    14   Atom        0.035727      0.012819     -0.048546
    15   Atom       -0.063306     -0.088996      0.152303
    16   Atom        0.005141      0.009251     -0.014391
    17   Atom       -0.062036     -0.073589      0.135625
    18   Atom       -0.081006     -0.044724      0.125731
    19   Atom        0.007813      0.021919     -0.029732
    20   Atom       -0.056260     -0.055903      0.112163
    21   Atom        0.028196      0.023708     -0.051904
    22   Atom       -0.098742     -0.130685      0.229428
    23   Atom        0.018897     -0.013625     -0.005272
    24   Atom        0.023645      0.039742     -0.063387
    25   Atom        0.000443      0.006436     -0.006879
    26   Atom       -0.112060     -0.150912      0.262971
    27   Atom        0.019539     -0.014180     -0.005359
    28   Atom        0.027964      0.045132     -0.073097
    29   Atom        0.000695      0.006504     -0.007199
    30   Atom        0.001248      0.001476     -0.002724
    31   Atom        0.001889      0.000647     -0.002535
    32   Atom        0.000658      0.002478     -0.003137
    33   Atom        0.000127      0.002370     -0.002497
    34   Atom        0.006633     -0.003235     -0.003397
    35   Atom        0.005453     -0.002993     -0.002461
    36   Atom        0.007072     -0.002959     -0.004112
    37   Atom        0.005182     -0.002559     -0.002623
    38   Atom       -0.002750      0.005445     -0.002695
    39   Atom       -0.002389      0.005102     -0.002713
    40   Atom       -0.002568      0.005368     -0.002800
    41   Atom       -0.001788      0.004263     -0.002475
    42   Atom        0.011615      0.004342     -0.015956
    43   Atom        0.000858      0.002030     -0.002887
    44   Atom       -0.012161      0.009230      0.002931
    45   Atom       -0.000332      0.002154     -0.001822
    46   Atom        0.003068      0.000800     -0.003868
    47   Atom        0.006509     -0.003370     -0.003139
    48   Atom        0.006034     -0.002885     -0.003149
    49   Atom        0.007153     -0.003158     -0.003995
    50   Atom        0.005330     -0.002679     -0.002651
    51   Atom        0.001959      0.001958     -0.003917
    52   Atom       -0.000002      0.003077     -0.003075
    53   Atom        0.001026     -0.001355      0.000330
    54   Atom        0.002234     -0.000095     -0.002139
    55   Atom        0.000679      0.000952     -0.001631
    56   Atom       -0.002968      0.005833     -0.002865
    57   Atom       -0.002481      0.005228     -0.002747
    58   Atom       -0.002715      0.005639     -0.002924
    59   Atom       -0.001910      0.004453     -0.002542
    60   Atom        0.000644      0.002789     -0.003433
    61   Atom        0.001560      0.001458     -0.003018
    62   Atom       -0.000540      0.003330     -0.002790
    63   Atom        0.002393      0.001542     -0.003935
    64   Atom        0.001452     -0.015757      0.014306
    65   Atom        0.003741     -0.008548      0.004807
    66   Atom       -0.002117     -0.006806      0.008923
    67   Atom        0.002663     -0.009816      0.007153
    68   Atom       -0.297917     -0.311575      0.609493
    69   Atom       -0.020085     -0.001847      0.021933
 --------------------------------------------------------
                        XY            XZ            YZ
 --------------------------------------------------------
     1   Atom       -0.143902      0.084788     -0.204409
     2   Atom        0.000315      0.007297     -0.013651
     3   Atom       -0.001219     -0.003552      0.003695
     4   Atom        0.000669      0.000339      0.015595
     5   Atom       -0.012364      0.015642      0.005365
     6   Atom       -0.000243     -0.007965     -0.002038
     7   Atom        0.003464      0.042472      0.007387
     8   Atom        0.006641     -0.002421     -0.000103
     9   Atom        0.017907      0.047707     -0.000270
    10   Atom       -0.002673     -0.013189     -0.000156
    11   Atom        0.000020      0.006579     -0.003060
    12   Atom       -0.006111     -0.006712     -0.004899
    13   Atom       -0.011393      0.011103      0.001387
    14   Atom       -0.001749      0.012019      0.001914
    15   Atom       -0.000712     -0.053025      0.010541
    16   Atom        0.006078      0.008138      0.001322
    17   Atom        0.018323     -0.033418      0.007151
    18   Atom       -0.002791      0.019183      0.002974
    19   Atom       -0.000311     -0.006913      0.003147
    20   Atom       -0.007442      0.019980      0.000048
    21   Atom       -0.012821     -0.009989      0.002058
    22   Atom       -0.010538      0.048069      0.004604
    23   Atom       -0.014662     -0.004168      0.002249
    24   Atom        0.007318     -0.004589      0.001106
    25   Atom        0.003038     -0.000635     -0.000129
    26   Atom       -0.009593     -0.078556     -0.012745
    27   Atom       -0.017154      0.006001     -0.003702
    28   Atom        0.008472      0.002777     -0.003400
    29   Atom        0.002847      0.000405     -0.000160
    30   Atom        0.004653     -0.000655     -0.000785
    31   Atom        0.003469     -0.000905     -0.000719
    32   Atom        0.004223      0.000125      0.000457
    33   Atom        0.003771     -0.001456     -0.002234
    34   Atom        0.001294     -0.001774     -0.000338
    35   Atom       -0.000148     -0.004181      0.000096
    36   Atom       -0.000120      0.000067     -0.000091
    37   Atom        0.002196     -0.001731     -0.000474
    38   Atom       -0.000486      0.000285     -0.000392
    39   Atom        0.000252     -0.000155     -0.001404
    40   Atom        0.000194      0.000139      0.001274
    41   Atom       -0.000878      0.000004     -0.000081
    42   Atom       -0.008880     -0.009223     -0.015205
    43   Atom       -0.003783      0.000193     -0.000887
    44   Atom        0.017298      0.020843      0.034542
    45   Atom       -0.004315     -0.001296     -0.000361
    46   Atom       -0.005142      0.001295      0.001287
    47   Atom        0.001119      0.001845      0.000949
    48   Atom       -0.000661      0.004175     -0.000216
    49   Atom        0.000120     -0.000521      0.000046
    50   Atom        0.002403      0.002569      0.000608
    51   Atom        0.004491      0.000824      0.000537
    52   Atom        0.004047      0.000870      0.001517
    53   Atom        0.001258      0.004470     -0.002407
    54   Atom        0.002649     -0.000501     -0.000104
    55   Atom        0.002303      0.000387      0.000131
    56   Atom       -0.000494     -0.000157      0.000340
    57   Atom        0.000286      0.000153      0.001568
    58   Atom        0.000268     -0.000190     -0.001237
    59   Atom       -0.000936     -0.000066      0.000075
    60   Atom       -0.004789     -0.000606      0.000662
    61   Atom       -0.004382     -0.002264      0.002055
    62   Atom       -0.003967     -0.000289      0.000515
    63   Atom       -0.004830      0.000744     -0.000786
    64   Atom       -0.004389      0.018921     -0.004777
    65   Atom       -0.009273      0.013686     -0.007988
    66   Atom       -0.001776      0.006157     -0.003445
    67   Atom        0.003195      0.012938      0.002947
    68   Atom       -0.004283     -0.126906     -0.007177
    69   Atom        0.008160     -0.008743     -0.021803
 --------------------------------------------------------


 ---------------------------------------------------------------------------------
              Anisotropic Spin Dipole Couplings in Principal Axis System
 ---------------------------------------------------------------------------------

       Atom             a.u.   MegaHertz   Gauss  10(-4) cm-1        Axes

              Baa    -2.5342   -43.874   -15.655   -14.635  0.2907  0.9565  0.0241
     1 Fe(57) Bbb    -2.0259   -35.075   -12.516   -11.700  0.9567 -0.2902 -0.0213
              Bcc     4.5601    78.949    28.171    26.334  0.0134 -0.0293  0.9995
 
              Baa    -0.0634    -2.446    -0.873    -0.816 -0.0752  0.9940  0.0796
     2 N(14)  Bbb    -0.0518    -1.997    -0.713    -0.666  0.9962  0.0784 -0.0374
              Bcc     0.1152     4.444     1.586     1.482  0.0434 -0.0765  0.9961
 
              Baa    -0.0916    -3.534    -1.261    -1.179  0.1618  0.9868 -0.0115
     3 N(14)  Bbb    -0.0843    -3.252    -1.160    -1.085  0.9867 -0.1616  0.0158
              Bcc     0.1759     6.786     2.421     2.263 -0.0137  0.0139  0.9998
 
              Baa    -0.0766    -2.953    -1.054    -0.985 -0.0266  0.9968 -0.0760
     4 N(14)  Bbb    -0.0525    -2.024    -0.722    -0.675  0.9996  0.0264 -0.0042
              Bcc     0.1290     4.976     1.776     1.660  0.0021  0.0761  0.9971
 
              Baa    -0.0913    -3.521    -1.256    -1.174  0.8043  0.5908 -0.0640
     5 N(14)  Bbb    -0.0647    -2.494    -0.890    -0.832 -0.5907  0.8066  0.0224
              Bcc     0.1559     6.015     2.146     2.006  0.0648  0.0198  0.9977
 
              Baa    -0.0276    -3.700    -1.320    -1.234  0.1471  0.0734  0.9864
     6 C(13)  Bbb     0.0004     0.059     0.021     0.020 -0.0131  0.9973 -0.0723
              Bcc     0.0271     3.641     1.299     1.214  0.9890  0.0023 -0.1477
 
              Baa    -0.0706    -9.476    -3.381    -3.161 -0.1169  0.9931 -0.0127
     7 C(13)  Bbb    -0.0561    -7.530    -2.687    -2.512  0.9638  0.1104 -0.2427
              Bcc     0.1267    17.006     6.068     5.673  0.2396  0.0406  0.9700
 
              Baa    -0.0062    -0.836    -0.298    -0.279  0.6770 -0.4933  0.5462
     8 C(13)  Bbb    -0.0024    -0.321    -0.115    -0.107 -0.3377  0.4512  0.8260
              Bcc     0.0086     1.158     0.413     0.386  0.6539  0.7437 -0.1389
 
              Baa    -0.0902   -12.105    -4.319    -4.038 -0.6480  0.7489  0.1388
     9 C(13)  Bbb    -0.0550    -7.374    -2.631    -2.460  0.7265  0.6625 -0.1825
              Bcc     0.1452    19.480     6.951     6.498  0.2286  0.0174  0.9734
 
              Baa    -0.0794   -10.655    -3.802    -3.554  0.9948  0.0793  0.0645
    10 C(13)  Bbb    -0.0455    -6.111    -2.181    -2.039 -0.0792  0.9968 -0.0052
              Bcc     0.1249    16.767     5.983     5.593 -0.0647  0.0001  0.9979
 
              Baa    -0.0356    -4.781    -1.706    -1.595 -0.1406  0.0509  0.9888
    11 C(13)  Bbb     0.0116     1.554     0.555     0.518  0.9897  0.0330  0.1390
              Bcc     0.0240     3.226     1.151     1.076 -0.0255  0.9982 -0.0550
 
              Baa    -0.0667    -8.955    -3.195    -2.987  0.7739  0.6318  0.0443
    12 C(13)  Bbb    -0.0539    -7.233    -2.581    -2.413 -0.6323  0.7747 -0.0026
              Bcc     0.1206    16.188     5.776     5.400 -0.0360 -0.0260  0.9990
 
              Baa    -0.0603    -8.093    -2.888    -2.700 -0.1239 -0.0318  0.9918
    13 C(13)  Bbb     0.0187     2.510     0.896     0.837  0.6115  0.7847  0.1016
              Bcc     0.0416     5.583     1.992     1.862  0.7814 -0.6191  0.0778
 
              Baa    -0.0503    -6.750    -2.408    -2.251 -0.1390 -0.0339  0.9897
    14 C(13)  Bbb     0.0128     1.718     0.613     0.573  0.0542  0.9977  0.0418
              Bcc     0.0375     5.032     1.795     1.678  0.9888 -0.0595  0.1368
 
              Baa    -0.0896   -12.027    -4.292    -4.012 -0.1078  0.9919 -0.0668
    15 C(13)  Bbb    -0.0754   -10.123    -3.612    -3.377  0.9681  0.1201  0.2199
              Bcc     0.1651    22.150     7.904     7.389 -0.2261  0.0410  0.9732
 
              Baa    -0.0174    -2.330    -0.831    -0.777 -0.3477  0.0329  0.9370
    16 C(13)  Bbb     0.0025     0.334     0.119     0.112  0.6865 -0.6718  0.2783
              Bcc     0.0149     1.996     0.712     0.666  0.6386  0.7400  0.2110
 
              Baa    -0.0901   -12.088    -4.313    -4.032 -0.6383  0.7606 -0.1186
    17 C(13)  Bbb    -0.0511    -6.860    -2.448    -2.288  0.7529  0.6489  0.1099
              Bcc     0.1412    18.948     6.761     6.320 -0.1605  0.0192  0.9868
 
              Baa    -0.0830   -11.140    -3.975    -3.716  0.9925  0.0795 -0.0923
    18 C(13)  Bbb    -0.0445    -5.975    -2.132    -1.993 -0.0806  0.9967 -0.0083
              Bcc     0.1275    17.114     6.107     5.709  0.0914  0.0157  0.9957
 
              Baa    -0.0311    -4.179    -1.491    -1.394  0.1740 -0.0573  0.9831
    19 C(13)  Bbb     0.0090     1.206     0.430     0.402  0.9832  0.0651 -0.1702
              Bcc     0.0221     2.972     1.061     0.991 -0.0542  0.9962  0.0676
 
              Baa    -0.0648    -8.692    -3.101    -2.899  0.7629  0.6407 -0.0863
    20 C(13)  Bbb    -0.0497    -6.674    -2.381    -2.226 -0.6359  0.7678  0.0783
              Bcc     0.1145    15.365     5.483     5.125  0.1164 -0.0048  0.9932
 
              Baa    -0.0531    -7.130    -2.544    -2.378  0.1209 -0.0064  0.9926
    21 C(13)  Bbb     0.0133     1.782     0.636     0.594  0.6225  0.7794 -0.0708
              Bcc     0.0399     5.348     1.908     1.784  0.7732 -0.6265 -0.0982
 
              Baa    -0.1349   -18.103    -6.460    -6.039  0.3495  0.9352 -0.0579
    22 C(13)  Bbb    -0.1014   -13.612    -4.857    -4.541  0.9262 -0.3541 -0.1296
              Bcc     0.2363    31.716    11.317    10.579  0.1417  0.0083  0.9899
 
              Baa    -0.0193   -10.290    -3.672    -3.432  0.3539  0.9342 -0.0447
    23 H(1)   Bbb    -0.0060    -3.184    -1.136    -1.062  0.1581 -0.0126  0.9873
              Bcc     0.0253    13.474     4.808     4.495  0.9218 -0.3564 -0.1521
 
              Baa    -0.0637    -8.541    -3.048    -2.849  0.0537 -0.0145  0.9985
    24 C(13)  Bbb     0.0211     2.828     1.009     0.943  0.9307 -0.3616 -0.0553
              Bcc     0.0426     5.713     2.039     1.906  0.3618  0.9322 -0.0059
 
              Baa    -0.0069    -3.700    -1.320    -1.234  0.0902 -0.0109  0.9959
    25 H(1)   Bbb    -0.0008    -0.417    -0.149    -0.139  0.9176 -0.3878 -0.0873
              Bcc     0.0077     4.117     1.469     1.373  0.3872  0.9217 -0.0250
 
              Baa    -0.1562   -20.958    -7.478    -6.991  0.3756  0.9216  0.0984
    26 C(13)  Bbb    -0.1228   -16.484    -5.882    -5.499  0.9058 -0.3875  0.1716
              Bcc     0.2790    37.442    13.360    12.489 -0.1963 -0.0247  0.9802
 
              Baa    -0.0215   -11.446    -4.084    -3.818  0.3760  0.9238  0.0723
    27 H(1)   Bbb    -0.0067    -3.589    -1.281    -1.197 -0.2157  0.0114  0.9764
              Bcc     0.0282    15.035     5.365     5.015  0.9012 -0.3827  0.2035
 
              Baa    -0.0733    -9.834    -3.509    -3.280 -0.0300  0.0308  0.9991
    28 C(13)  Bbb     0.0246     3.306     1.180     1.103  0.9257 -0.3762  0.0394
              Bcc     0.0486     6.528     2.329     2.177  0.3770  0.9260 -0.0173
 
              Baa    -0.0072    -3.856    -1.376    -1.286 -0.0596  0.0240  0.9979
    29 H(1)   Bbb    -0.0004    -0.234    -0.084    -0.078  0.9238 -0.3773  0.0642
              Bcc     0.0077     4.090     1.460     1.364  0.3781  0.9258  0.0003
 
              Baa    -0.0033    -0.444    -0.158    -0.148 -0.6930  0.7016  0.1659
    30 C(13)  Bbb    -0.0028    -0.380    -0.135    -0.127  0.1983 -0.0358  0.9795
              Bcc     0.0061     0.823     0.294     0.275  0.6931  0.7117 -0.1143
 
              Baa    -0.0027    -1.449    -0.517    -0.483  0.1567  0.0494  0.9864
    31 H(1)   Bbb    -0.0023    -1.203    -0.429    -0.401 -0.6327  0.7719  0.0619
              Bcc     0.0050     2.651     0.946     0.884  0.7583  0.6338 -0.1521
 
              Baa    -0.0032    -1.725    -0.615    -0.575  0.2575 -0.2648  0.9293
    32 H(1)   Bbb    -0.0027    -1.428    -0.510    -0.476  0.7355 -0.5700 -0.3662
              Bcc     0.0059     3.153     1.125     1.052  0.6267  0.7778  0.0480
 
              Baa    -0.0034    -1.797    -0.641    -0.599 -0.0121  0.3698  0.9290
    33 H(1)   Bbb    -0.0026    -1.413    -0.504    -0.471  0.8243 -0.5222  0.2185
              Bcc     0.0060     3.210     1.145     1.071  0.5660  0.7685 -0.2985
 
              Baa    -0.0037    -0.502    -0.179    -0.167  0.1210  0.3190  0.9400
    34 C(13)  Bbb    -0.0034    -0.452    -0.161    -0.151 -0.1741  0.9391 -0.2963
              Bcc     0.0071     0.954     0.340     0.318  0.9773  0.1278 -0.1691
 
              Baa    -0.0043    -2.273    -0.811    -0.758  0.3949 -0.0237  0.9184
    35 H(1)   Bbb    -0.0030    -1.598    -0.570    -0.533  0.0249  0.9996  0.0151
              Bcc     0.0073     3.871     1.381     1.291  0.9184 -0.0169 -0.3953
 
              Baa    -0.0041    -2.198    -0.784    -0.733 -0.0051  0.0775  0.9970
    36 H(1)   Bbb    -0.0030    -1.576    -0.562    -0.526  0.0124  0.9969 -0.0774
              Bcc     0.0071     3.774     1.347     1.259  0.9999 -0.0120  0.0061
 
              Baa    -0.0031    -1.676    -0.598    -0.559 -0.2340  0.9669  0.1017
    37 H(1)   Bbb    -0.0030    -1.595    -0.569    -0.532  0.2197 -0.0493  0.9743
              Bcc     0.0061     3.271     1.167     1.091  0.9471  0.2504 -0.2009
 
              Baa    -0.0030    -0.404    -0.144    -0.135  0.7488  0.0123 -0.6627
    38 C(13)  Bbb    -0.0025    -0.333    -0.119    -0.111  0.6600  0.0775  0.7472
              Bcc     0.0055     0.737     0.263     0.246 -0.0605  0.9969 -0.0499
 
              Baa    -0.0030    -1.589    -0.567    -0.530  0.1855  0.1626  0.9691
    39 H(1)   Bbb    -0.0024    -1.269    -0.453    -0.423  0.9820 -0.0663 -0.1768
              Bcc     0.0054     2.858     1.020     0.953  0.0355  0.9845 -0.1720
 
              Baa    -0.0030    -1.612    -0.575    -0.538 -0.2359 -0.1406  0.9615
    40 H(1)   Bbb    -0.0025    -1.359    -0.485    -0.453  0.9714 -0.0607  0.2295
              Bcc     0.0056     2.971     1.060     0.991  0.0261  0.9882  0.1509
 
              Baa    -0.0025    -1.321    -0.471    -0.441  0.0115  0.0135  0.9998
    41 H(1)   Bbb    -0.0019    -1.020    -0.364    -0.340  0.9900  0.1406 -0.0133
              Bcc     0.0044     2.341     0.835     0.781 -0.1407  0.9900 -0.0117
 
              Baa    -0.0280    -3.751    -1.339    -1.251  0.2993  0.4726  0.8289
    42 C(13)  Bbb     0.0103     1.388     0.495     0.463  0.5135  0.6525 -0.5573
              Bcc     0.0176     2.363     0.843     0.788  0.8042 -0.5924  0.0474
 
              Baa    -0.0032    -1.703    -0.608    -0.568  0.3018  0.3681  0.8795
    43 H(1)   Bbb    -0.0022    -1.151    -0.411    -0.384  0.7034  0.5368 -0.4660
              Bcc     0.0053     2.854     1.018     0.952 -0.6436  0.7592 -0.0969
 
              Baa    -0.0303    -4.070    -1.452    -1.358 -0.4152 -0.4885  0.7674
    44 C(13)  Bbb    -0.0217    -2.909    -1.038    -0.970  0.8235 -0.5603  0.0889
              Bcc     0.0520     6.979     2.490     2.328  0.3865  0.6689  0.6349
 
              Baa    -0.0042    -2.260    -0.807    -0.754  0.7217  0.5135  0.4641
    45 H(1)   Bbb    -0.0012    -0.640    -0.228    -0.213 -0.3317 -0.3320  0.8830
              Bcc     0.0054     2.900     1.035     0.967 -0.6076  0.7913  0.0692
 
              Baa    -0.0054    -2.900    -1.035    -0.967 -0.4186 -0.5014  0.7572
    46 H(1)   Bbb    -0.0018    -0.943    -0.337    -0.315  0.4628  0.5996  0.6529
              Bcc     0.0072     3.843     1.371     1.282  0.7814 -0.6237  0.0189
 
              Baa    -0.0042    -0.567    -0.202    -0.189  0.0457  0.7135 -0.6992
    47 C(13)  Bbb    -0.0028    -0.373    -0.133    -0.124 -0.2201  0.6899  0.6896
              Bcc     0.0070     0.940     0.336     0.314  0.9744  0.1224  0.1886
 
              Baa    -0.0048    -2.542    -0.907    -0.848 -0.3616 -0.0200  0.9321
    48 H(1)   Bbb    -0.0029    -1.563    -0.558    -0.521  0.0539  0.9977  0.0423
              Bcc     0.0077     4.105     1.465     1.369  0.9308 -0.0655  0.3597
 
              Baa    -0.0040    -2.146    -0.766    -0.716  0.0471 -0.0599  0.9971
    49 H(1)   Bbb    -0.0032    -1.684    -0.601    -0.562 -0.0086  0.9981  0.0603
              Bcc     0.0072     3.830     1.367     1.278  0.9989  0.0114 -0.0465
 
              Baa    -0.0035    -1.850    -0.660    -0.617 -0.3683  0.5371  0.7588
    50 H(1)   Bbb    -0.0033    -1.745    -0.623    -0.582 -0.0478  0.8042 -0.5924
              Bcc     0.0067     3.595     1.283     1.199  0.9285  0.2544  0.2705
 
              Baa    -0.0040    -0.541    -0.193    -0.180 -0.1583  0.0302  0.9869
    51 C(13)  Bbb    -0.0025    -0.336    -0.120    -0.112 -0.6907  0.7109 -0.1326
              Bcc     0.0065     0.877     0.313     0.293  0.7056  0.7026  0.0917
 
              Baa    -0.0034    -1.832    -0.654    -0.611  0.0760 -0.2707  0.9597
    52 H(1)   Bbb    -0.0028    -1.473    -0.526    -0.491  0.8281 -0.5190 -0.2120
              Bcc     0.0062     3.305     1.179     1.103  0.5554  0.8108  0.1848
 
              Baa    -0.0055    -0.736    -0.263    -0.246 -0.5448  0.5397  0.6419
    53 C(13)  Bbb     0.0002     0.032     0.011     0.011  0.4549  0.8332 -0.3144
              Bcc     0.0052     0.704     0.251     0.235  0.7045 -0.1207  0.6994
 
              Baa    -0.0023    -1.204    -0.430    -0.402  0.2751 -0.2932  0.9156
    54 H(1)   Bbb    -0.0017    -0.930    -0.332    -0.310 -0.4744  0.7870  0.3945
              Bcc     0.0040     2.134     0.761     0.712  0.8362  0.5429 -0.0774
 
              Baa    -0.0018    -0.951    -0.339    -0.317 -0.4409  0.3313  0.8342
    55 H(1)   Bbb    -0.0014    -0.729    -0.260    -0.243 -0.5785  0.6057 -0.5463
              Bcc     0.0032     1.681     0.600     0.561  0.6862  0.7235  0.0753
 
              Baa    -0.0031    -0.414    -0.148    -0.138  0.8338  0.0251  0.5515
    56 C(13)  Bbb    -0.0028    -0.374    -0.133    -0.125 -0.5492 -0.0644  0.8332
              Bcc     0.0059     0.788     0.281     0.263 -0.0564  0.9976  0.0399
 
              Baa    -0.0031    -1.633    -0.583    -0.545 -0.1690 -0.1776  0.9695
    57 H(1)   Bbb    -0.0025    -1.321    -0.472    -0.441  0.9849 -0.0689  0.1590
              Bcc     0.0055     2.954     1.054     0.985  0.0385  0.9817  0.1865
 
              Baa    -0.0032    -1.682    -0.600    -0.561  0.3327  0.1215  0.9352
    58 H(1)   Bbb    -0.0027    -1.426    -0.509    -0.476  0.9424 -0.0787 -0.3250
              Bcc     0.0058     3.108     1.109     1.037  0.0341  0.9895 -0.1407
 
              Baa    -0.0025    -1.360    -0.485    -0.454  0.1081  0.0039  0.9941
    59 H(1)   Bbb    -0.0020    -1.088    -0.388    -0.363  0.9839  0.1430 -0.1076
              Bcc     0.0046     2.448     0.874     0.817 -0.1426  0.9897  0.0117
 
              Baa    -0.0035    -0.473    -0.169    -0.158  0.1909  0.0420  0.9807
    60 C(13)  Bbb    -0.0032    -0.427    -0.152    -0.142  0.7585  0.6279 -0.1745
              Bcc     0.0067     0.899     0.321     0.300 -0.6231  0.7772  0.0880
 
              Baa    -0.0040    -2.123    -0.757    -0.708  0.2876 -0.1270  0.9493
    61 H(1)   Bbb    -0.0029    -1.526    -0.544    -0.509  0.6723  0.7327 -0.1057
              Bcc     0.0068     3.649     1.302     1.217  0.6821 -0.6686 -0.2961
 
              Baa    -0.0030    -1.612    -0.575    -0.538  0.8342  0.5325 -0.1431
    62 H(1)   Bbb    -0.0028    -1.508    -0.538    -0.503  0.1574  0.0188  0.9874
              Bcc     0.0058     3.120     1.113     1.041 -0.5285  0.8462  0.0681
 
              Baa    -0.0040    -2.159    -0.771    -0.720 -0.0282  0.1153  0.9929
    63 H(1)   Bbb    -0.0029    -1.535    -0.548    -0.512  0.6793  0.7310 -0.0656
              Bcc     0.0069     3.694     1.318     1.232  0.7334 -0.6726  0.0990
 
              Baa    -0.0168    -2.257    -0.805    -0.753  0.2143  0.9766  0.0196
    64 C(13)  Bbb    -0.0120    -1.607    -0.573    -0.536  0.7869 -0.1607 -0.5957
              Bcc     0.0288     3.864     1.379     1.289  0.5786 -0.1431  0.8029
 
              Baa    -0.0136    -7.241    -2.584    -2.415  0.4217  0.9033  0.0786
    65 H(1)   Bbb    -0.0092    -4.883    -1.743    -1.629 -0.6269  0.2279  0.7450
              Bcc     0.0227    12.125     4.326     4.044  0.6551 -0.3634  0.6624
 
              Baa    -0.0076    -4.055    -1.447    -1.353  0.1509  0.9775  0.1476
    66 H(1)   Bbb    -0.0049    -2.588    -0.923    -0.863  0.9031 -0.0756 -0.4227
              Bcc     0.0125     6.643     2.370     2.216  0.4020 -0.1971  0.8942
 
              Baa    -0.0106    -5.651    -2.016    -1.885 -0.2640  0.9640  0.0324
    67 H(1)   Bbb    -0.0081    -4.322    -1.542    -1.442  0.7226  0.2199 -0.6554
              Bcc     0.0187     9.973     3.559     3.327  0.6389  0.1496  0.7546
 
              Baa    -0.3190   -13.079    -4.667    -4.363  0.8089  0.5766  0.1150
    68 S(33)  Bbb    -0.3079   -12.625    -4.505    -4.211 -0.5721  0.8170 -0.0727
              Bcc     0.6270    25.704     9.172     8.574 -0.1359 -0.0070  0.9907
 
              Baa    -0.0232   -12.384    -4.419    -4.131  0.9397 -0.3416  0.0170
    69 H(1)   Bbb    -0.0141    -7.498    -2.675    -2.501  0.2774  0.7904  0.5463
              Bcc     0.0373    19.882     7.094     6.632 -0.2000 -0.5086  0.8374
 

 ---------------------------------------------------------------------------------

 Unable to Open any file for archive entry.
 1\1\GINC-BGN1039\SP\UAPFD\Gen\C31H32Fe1N4S1(5)\BECSLEIP\29-Sep-2024\0\
 \# apfd/gen scf=maxcycle=999 geom=check\\5g6k_II_Q\\0,5\Fe,0,-0.146522
 2814,17.2917065933,22.0799218423\N,0,0.3411373305,15.5069750241,22.860
 7154086\N,0,-0.984481083,17.7986778651,23.8744281022\N,0,-0.3560921905
 ,19.1904436536,21.5500860178\N,0,0.9574134172,16.8750215999,20.5065321
 935\C,0,1.2147665367,14.5943455601,22.3424661791\C,0,1.4547162521,13.5
 129667926,23.267172154\C,0,0.7199962761,13.7942696501,24.375321\C,0,0.
 0527402037,15.0494188813,24.112184327\C,0,-1.2336868554,16.9593719585,
 24.9174729901\C,0,-1.904962503,17.6466118423,25.9898612391\C,0,-2.0823
 877874,18.9342589728,25.5691532339\C,0,-1.4859481591,19.0070945085,24.
 2508343306\C,0,-0.7943191933,20.2586875027,22.2737923289\C,0,-0.653088
 2899,21.4829342549,21.5322300492\C,0,-0.115597563,21.1386443397,20.321
 1629594\C,0,0.1047076275,19.7074469497,20.375163922\C,0,1.1067841174,1
 7.682857241,19.4187370628\C,0,1.9113951162,17.0346885146,18.4090065227
 \C,0,2.2637624103,15.8230964845,18.9194772543\C,0,1.6561707395,15.7393
 94076,20.2267845354\C,0,1.7812014121,14.6623380144,21.0822898267\H,0,2
 .4040838227,13.8402885168,20.7660511894\C,0,-0.7880957237,15.656203762
 3,25.0202344547\H,0,-1.0034277764,15.1267248631,25.9349288814\C,0,-1.3
 704407383,20.1745192197,23.5264691225\H,0,-1.7204027406,21.0848793584,
 23.9860278044\C,0,0.6565605892,18.9864122019,19.3316134942\H,0,0.87342
 96115,19.5209864195,18.4198921051\C,0,0.5999732316,13.0302881459,25.64
 82403632\H,0,1.1815149538,12.1127948136,25.6031730497\H,0,-0.440307226
 4,12.7679356092,25.842070029\H,0,0.9616733539,13.625093834,26.48720098
 04\C,0,2.3566052175,12.3591985608,22.9951606593\H,0,3.3706481447,12.70
 5336947,22.7950133138\H,0,2.0119138726,11.7989420655,22.1254490609\H,0
 ,2.3870585321,11.6845746668,23.846969299\C,0,-2.3329892605,17.02160226
 83,27.2716642375\H,0,-1.4701396615,16.6461903387,27.8231336136\H,0,-3.
 0047004615,16.1839023746,27.0840815904\H,0,-2.8538251689,17.7459001211
 ,27.8925719442\C,0,-2.7373587061,20.0084165268,26.2901077365\H,0,-2.53
 60704743,20.0425933008,27.3552223596\C,0,-3.5712459797,20.8931991841,2
 5.757223851\H,0,-3.8431115454,20.8651617828,24.7155520565\H,0,-4.03293
 5777,21.6628873248,26.3531520262\C,0,-0.9854088069,22.8363296845,22.05
 2771162\H,0,-0.7088714188,22.9222021726,23.1023723066\H,0,-2.055408772
 9,23.0322855351,21.9683270423\H,0,-0.4508814997,23.5957089561,21.48580
 83158\C,0,0.2486538442,21.9908966108,19.209810919\H,0,1.1320937612,21.
 6926616462,18.657711\C,0,-0.4132931684,23.0788537153,18.8313345238\H,0
 ,-1.3198388268,23.3953467999,19.316942088\H,0,-0.0807212188,23.6796641
 492,18.0013140905\C,0,2.2689299702,17.6475261161,17.0995054\H,0,2.9020
 487826,18.5228671847,17.24808199\H,0,1.3729617373,17.9647951774,16.566
 0710998\H,0,2.8081940746,16.9388760868,16.4759083845\C,0,3.107159394,1
 4.7520890614,18.3193299891\H,0,3.9896402636,14.572395385,18.9336434391
 \H,0,3.4364604498,15.0328024496,17.3222014489\H,0,2.5492667938,13.8179
 412156,18.2480704217\C,0,-1.8872509086,14.9189310277,20.4877699455\H,0
 ,-0.9035187753,14.8182907534,20.0415589345\H,0,-2.6723107441,14.677483
 5603,19.7777885679\H,0,-1.9609014081,14.2803030288,21.3617109747\S,0,-
 2.120680688,16.6357768183,21.0795285018\H,0,-1.9634384575,17.195690379
 2,19.8714427524\\Version=ES64L-G16RevC.02\State=5-A\HF=-3080.1968053\S
 2=6.078854\S2-1=0.\S2A=6.001971\RMSD=9.038e-09\Dipole=-0.3827162,-1.15
 07513,-0.805508\Quadrupole=-8.0703109,1.7421788,6.3281321,-1.2636214,-
 2.4398107,-1.1454088\PG=C01 [X(C31H32Fe1N4S1)]\\@
 The archive entry for this job was punched.


 LAWS OF PROGRAMMING DEFINITION:  A WORKING PROGRAM
                                  IS ONE THAT HAS
                                  ONLY UNOBSERVED
                                  BUGS.
 Job cpu time:       0 days  2 hours 46 minutes  4.3 seconds.
 Elapsed time:       0 days  0 hours  2 minutes 54.1 seconds.
 File lengths (MBytes):  RWF=    343 Int=      0 D2E=      0 Chk=    150 Scr=      1
 Normal termination of Gaussian 16 at Sun Sep 29 05:54:05 2024.
