 Entering Gaussian System, Link 0=g16
 Input=5g6m12.com
 Output=5g6m12.log
 Initial command:
 /sw/chem/gaussian/g16_C02/a100/g16/l1.exe "/local/becsleip_8033283/Gau-2486593.inp" -scrdir="/local/becsleip_8033283/"
 Entering Link 1 = /sw/chem/gaussian/g16_C02/a100/g16/l1.exe PID=   2486594.
  
 Copyright (c) 1988-2021, Gaussian, Inc.  All Rights Reserved.
  
 This is part of the Gaussian(R) 16 program.  It is based on
 the Gaussian(R) 09 system (copyright 2009, Gaussian, Inc.),
 the Gaussian(R) 03 system (copyright 2003, Gaussian, Inc.),
 the Gaussian(R) 98 system (copyright 1998, Gaussian, Inc.),
 the Gaussian(R) 94 system (copyright 1995, Gaussian, Inc.),
 the Gaussian 92(TM) system (copyright 1992, Gaussian, Inc.),
 the Gaussian 90(TM) system (copyright 1990, Gaussian, Inc.),
 the Gaussian 88(TM) system (copyright 1988, Gaussian, Inc.),
 the Gaussian 86(TM) system (copyright 1986, Carnegie Mellon
 University), and the Gaussian 82(TM) system (copyright 1983,
 Carnegie Mellon University). Gaussian is a federally registered
 trademark of Gaussian, Inc.
  
 This software contains proprietary and confidential information,
 including trade secrets, belonging to Gaussian, Inc.
  
 This software is provided under written license and may be
 used, copied, transmitted, or stored only in accord with that
 written license.
  
 The following legend is applicable only to US Government
 contracts under FAR:
  
                    RESTRICTED RIGHTS LEGEND
  
 Use, reproduction and disclosure by the US Government is
 subject to restrictions as set forth in subparagraphs (a)
 and (c) of the Commercial Computer Software - Restricted
 Rights clause in FAR 52.227-19.
  
 Gaussian, Inc.
 340 Quinnipiac St., Bldg. 40, Wallingford CT 06492
  
  
 ---------------------------------------------------------------
 Warning -- This program may not be used in any manner that
 competes with the business of Gaussian, Inc. or will provide
 assistance to any competitor of Gaussian, Inc.  The licensee
 of this program is prohibited from giving any competitor of
 Gaussian, Inc. access to this program.  By using this program,
 the user acknowledges that Gaussian, Inc. is engaged in the
 business of creating and licensing software in the field of
 computational chemistry and represents and warrants to the
 licensee that it is not a competitor of Gaussian, Inc. and that
 it will not use this program in any manner prohibited above.
 ---------------------------------------------------------------
  

 Cite this work as:
 Gaussian 16, Revision C.02,
 M. J. Frisch, G. W. Trucks, H. B. Schlegel, G. E. Scuseria, 
 M. A. Robb, J. R. Cheeseman, G. Scalmani, V. Barone, 
 G. A. Petersson, H. Nakatsuji, X. Li, M. Caricato, A. V. Marenich, 
 J. Bloino, B. G. Janesko, R. Gomperts, B. Mennucci, H. P. Hratchian, 
 J. V. Ortiz, A. F. Izmaylov, J. L. Sonnenberg, D. Williams-Young, 
 F. Ding, F. Lipparini, F. Egidi, J. Goings, B. Peng, A. Petrone, 
 T. Henderson, D. Ranasinghe, V. G. Zakrzewski, J. Gao, N. Rega, 
 G. Zheng, W. Liang, M. Hada, M. Ehara, K. Toyota, R. Fukuda, 
 J. Hasegawa, M. Ishida, T. Nakajima, Y. Honda, O. Kitao, H. Nakai, 
 T. Vreven, K. Throssell, J. A. Montgomery, Jr., J. E. Peralta, 
 F. Ogliaro, M. J. Bearpark, J. J. Heyd, E. N. Brothers, K. N. Kudin, 
 V. N. Staroverov, T. A. Keith, R. Kobayashi, J. Normand, 
 K. Raghavachari, A. P. Rendell, J. C. Burant, S. S. Iyengar, 
 J. Tomasi, M. Cossi, J. M. Millam, M. Klene, C. Adamo, R. Cammi, 
 J. W. Ochterski, R. L. Martin, K. Morokuma, O. Farkas, 
 J. B. Foresman, and D. J. Fox, Gaussian, Inc., Wallingford CT, 2019.
 
 ******************************************
 Gaussian 16:  ES64L-G16RevC.02  7-Dec-2021
                29-Sep-2024 
 ******************************************
 %mem=16GB
 %CPU=0-71
 SetSPE:  set environment variable "OMP_PROC_BIND" = "true"
 SetSPE:  set environment variable "OMP_PLACES" = "{0},{1},{2},{3},{4},{5},{6},{7},{8},{9},{10},{11},{12},{13},{14},{15},{16},{17},{18},{19},{20},{21},{22},{23},{24},{25},{26},{27},{28},{29},{30},{31},{32},{33},{34},{35},{36},{37},{38},{39},{40},{41},{42},{43},{44},{45},{46},{47},{48},{49},{50},{51},{52},{53},{54},{55},{56},{57},{58},{59},{60},{61},{62},{63},{64},{65},{66},{67},{68},{69},{70},{71}"
 Will use up to   72 processors via shared memory.
 %gpucpu=0,1,2,3=0,1,2,3
 Will use    4 GPUs:
 Thread  CPU   GPU
      0    0     0
      1    1     1
      2    2     2
      3    3     3
      4    4    -1
      5    5    -1
      6    6    -1
      7    7    -1
      8    8    -1
      9    9    -1
     10   10    -1
     11   11    -1
     12   12    -1
     13   13    -1
     14   14    -1
     15   15    -1
     16   16    -1
     17   17    -1
     18   18    -1
     19   19    -1
     20   20    -1
     21   21    -1
     22   22    -1
     23   23    -1
     24   24    -1
     25   25    -1
     26   26    -1
     27   27    -1
     28   28    -1
     29   29    -1
     30   30    -1
     31   31    -1
     32   32    -1
     33   33    -1
     34   34    -1
     35   35    -1
     36   36    -1
     37   37    -1
     38   38    -1
     39   39    -1
     40   40    -1
     41   41    -1
     42   42    -1
     43   43    -1
     44   44    -1
     45   45    -1
     46   46    -1
     47   47    -1
     48   48    -1
     49   49    -1
     50   50    -1
     51   51    -1
     52   52    -1
     53   53    -1
     54   54    -1
     55   55    -1
     56   56    -1
     57   57    -1
     58   58    -1
     59   59    -1
     60   60    -1
     61   61    -1
     62   62    -1
     63   63    -1
     64   64    -1
     65   65    -1
     66   66    -1
     67   67    -1
     68   68    -1
     69   69    -1
     70   70    -1
     71   71    -1
 SetGPE:  set environment variable "OMP_PROC_BIND" = "true"
 SetGPE:  set environment variable "OMP_PLACES" = "{0},{1},{2},{3},{4},{5},{6},{7},{8},{9},{10},{11},{12},{13},{14},{15},{16},{17},{18},{19},{20},{21},{22},{23},{24},{25},{26},{27},{28},{29},{30},{31},{32},{33},{34},{35},{36},{37},{38},{39},{40},{41},{42},{43},{44},{45},{46},{47},{48},{49},{50},{51},{52},{53},{54},{55},{56},{57},{58},{59},{60},{61},{62},{63},{64},{65},{66},{67},{68},{69},{70},{71}"
 %oldchk=5g6m_II_Sre.chk
 %chk=5g6m_III_Dn.chk
 Properties for Device   0
 Minimum vector length:                              32
 Maximum vector length:                            1024
 Number of SMPs:                                    108
 Maximum number of threads per SMP:                2048
 Number of ASync Engines:                             5
 Memory:                                           9207742464
 Properties for Device   1
 Minimum vector length:                              32
 Maximum vector length:                            1024
 Number of SMPs:                                    108
 Maximum number of threads per SMP:                2048
 Number of ASync Engines:                             5
 Memory:                                           9207742464
 Properties for Device   2
 Minimum vector length:                              32
 Maximum vector length:                            1024
 Number of SMPs:                                    108
 Maximum number of threads per SMP:                2048
 Number of ASync Engines:                             5
 Memory:                                           9207742464
 Properties for Device   3
 Minimum vector length:                              32
 Maximum vector length:                            1024
 Number of SMPs:                                    108
 Maximum number of threads per SMP:                2048
 Number of ASync Engines:                             5
 Memory:                                           9207742464
   8286968217 words of memory will be used on each GPU.
 Copying data from "5g6m_II_Sre.chk" to current chk file "5g6m_III_Dn.chk"
 IOpt=  2 FromEx=T IUOpen= 4 IOptOp= 5 NList=   0 IFRang= 0 IUIn= 4 IUOut= 2.
 --------------------------------------------------------------
 # apfd/def2TZVP guess=read scf=maxcycle=999 geom=check pop=nbo
 --------------------------------------------------------------
 1/29=2,38=1,172=1/1;
 2/12=2,40=1/2;
 3/5=44,7=101,11=2,14=-4,25=1,30=1,74=-44,116=-2/1,2,3;
 4/5=1/1;
 5/5=2,7=999,38=6/2;
 6/7=2,8=2,9=2,10=2,28=1,40=1/1,7;
 99/5=1,9=1/99;
 ----------
 5g6m_III_D
 ----------
 Structure from the checkpoint file:  "5g6m_III_Dn.chk"
 Charge =  1 Multiplicity = 2
 Z-Matrix found in chk file.
 Fe,0,-0.2061773374,17.2289663941,22.1840453534
 N,0,0.3272289409,15.4597724558,22.9513646145
 N,0,-1.0178868648,17.7664821108,23.9427695724
 N,0,-0.330757229,19.1364075556,21.6155041551
 N,0,0.9375371595,16.8099598654,20.5940663137
 C,0,1.2038431874,14.5447923423,22.4477462926
 C,0,1.4599927415,13.4858031096,23.3935130972
 C,0,0.7130915996,13.7720681799,24.4925221342
 C,0,0.0463251576,15.0243402861,24.2148220507
 C,0,-1.2521099085,16.940362341,25.0000197039
 C,0,-1.9235359059,17.6397378579,26.0642123255
 C,0,-2.0803768729,18.9291133535,25.6388750857
 C,0,-1.4952200345,18.985351518,24.3143756609
 C,0,-0.7801446649,20.212079505,22.3257841341
 C,0,-0.6818783704,21.423132857,21.5560723562
 C,0,-0.1240441805,21.0708719068,20.3569828609
 C,0,0.1188512289,19.6446949492,20.4335751538
 C,0,1.1095424805,17.6085027696,19.5030375837
 C,0,1.8829473992,16.9342585651,18.4862957334
 C,0,2.201223835,15.7136753381,18.9958673181
 C,0,1.60216368,15.6532321368,20.308299706
 C,0,1.742337435,14.5873959756,21.1750789004
 H,0,2.355129427,13.758198992,20.8580796189
 C,0,-0.8032290212,15.6380718936,25.1116335563
 H,0,-1.0151434891,15.1187869,26.0332273816
 C,0,-1.364190792,20.1428084347,23.5766337661
 H,0,-1.7079833187,21.0609330305,24.0250533763
 C,0,0.6887408525,18.9196337673,19.4049225499
 H,0,0.9167842757,19.4452104551,18.4909403663
 C,0,0.5980319312,13.0239479946,25.7754634594
 H,0,1.2085942287,12.1249407933,25.7525845992
 H,0,-0.4361798462,12.7311556199,25.956971751
 H,0,0.9271560366,13.6418492092,26.6107490485
 C,0,2.3728971561,12.3365144292,23.1393228485
 H,0,3.3673930303,12.6913446603,22.8711641772
 H,0,1.9993716805,11.7230085855,22.3189155471
 H,0,2.4589466857,11.7098488368,24.0228743481
 C,0,-2.3512188917,17.0296717977,27.3532791964
 H,0,-1.487408619,16.6731975232,27.9155480357
 H,0,-3.0117026688,16.1812818132,27.1743130531
 H,0,-2.8847552285,17.757247215,27.9595340226
 C,0,-2.7107742246,20.0167763608,26.3614878023
 H,0,-2.5038741436,20.0457641035,27.4257078118
 C,0,-3.5265136437,20.9221934721,25.8351401859
 H,0,-3.8059615754,20.9039697418,24.7953726035
 H,0,-3.9655189006,21.7010954655,26.436157272
 C,0,-1.0514051063,22.7774756961,22.0481502754
 H,0,-0.7799437051,22.8932847271,23.0961676008
 H,0,-2.1261541662,22.9420396221,21.9576452954
 H,0,-0.536801237,23.5395919445,21.46656225
 C,0,0.2203097278,21.9111476444,19.2304096641
 H,0,1.1135420739,21.6271086486,18.6867077695
 C,0,-0.4704086863,22.9731309103,18.8300543679
 H,0,-1.3891201952,23.2696375083,19.3053286513
 H,0,-0.153334381,23.5671017595,17.9893617417
 C,0,2.2475245096,17.5336886438,17.1726072693
 H,0,2.9023168595,18.3939043169,17.3138675668
 H,0,1.3562621955,17.870048123,16.6431253978
 H,0,2.7659158796,16.8097035272,16.5490374992
 C,0,3.0060198298,14.616006659,18.3906885892
 H,0,3.9065767935,14.4353056861,18.9780595434
 H,0,3.3054310839,14.8708435912,17.3773263986
 H,0,2.4320052397,13.6897789401,18.3582849542
 C,0,-1.9104758965,14.9049601833,20.5031689494
 H,0,-0.9235442991,14.8448025439,20.0573239052
 H,0,-2.6879501597,14.6806540295,19.7799162589
 H,0,-1.9739826316,14.2250411266,21.3461324144
 S,0,-2.1786679557,16.5869569917,21.1740126811
 H,0,-2.046660191,17.2053347086,19.9911544721
 Recover connectivity data from disk.
 Stoichiometry    C31H32FeN4S(1+,2)
 Framework group  C1[X(C31H32FeN4S)]
 Deg. of freedom   201
 Full point group                 C1      NOp   1
 Largest Abelian subgroup         C1      NOp   1
 Largest concise Abelian subgroup C1      NOp   1
                         Standard orientation:                         
 ---------------------------------------------------------------------
 Center     Atomic      Atomic             Coordinates (Angstroms)
 Number     Number       Type             X           Y           Z
 ---------------------------------------------------------------------
      1         26           0        0.176498    0.023812    0.095439
      2          7           0        1.989876    0.841602   -0.119566
      3          7           0       -0.678678    1.836026   -0.064125
      4          7           0       -1.629353   -0.781444   -0.164478
      5          7           0        1.031677   -1.772578   -0.135505
      6          6           0        3.173595    0.223189   -0.394605
      7          6           0        4.218438    1.181820   -0.660829
      8          6           0        3.645869    2.408475   -0.537896
      9          6           0        2.250276    2.176671   -0.240460
     10          6           0       -0.028781    3.032282   -0.022659
     11          6           0       -0.959631    4.128975   -0.079487
     12          6           0       -2.204418    3.572958   -0.176184
     13          6           0       -2.000644    2.138264   -0.176541
     14          6           0       -2.820332   -0.153698   -0.390351
     15          6           0       -3.888910   -1.103575   -0.547317
     16          6           0       -3.317587   -2.343156   -0.446757
     17          6           0       -1.901406   -2.114516   -0.244273
     18          6           0        0.386880   -2.972855   -0.101272
     19          6           0        1.328432   -4.066772   -0.159163
     20          6           0        2.562698   -3.502976   -0.256677
     21          6           0        2.358404   -2.073665   -0.238228
     22          6           0        3.371698   -1.144899   -0.370851
     23          1           0        4.375097   -1.512429   -0.518102
     24          6           0        1.342943    3.198127   -0.050576
     25          1           0        1.718954    4.209133   -0.070083
     26          6           0       -3.008756    1.215233   -0.357823
     27          1           0       -4.005322    1.591938   -0.522676
     28          6           0       -0.983710   -3.137867   -0.105710
     29          1           0       -1.360198   -4.148735   -0.105108
     30          6           0        4.256393    3.755889   -0.712812
     31          1           0        5.313198    3.671143   -0.952616
     32          1           0        4.158357    4.342597    0.200659
     33          1           0        3.763395    4.298740   -1.519095
     34          6           0        5.624630    0.819673   -0.993011
     35          1           0        5.653915    0.156960   -1.857180
     36          1           0        6.097291    0.305599   -0.155576
     37          1           0        6.207607    1.707689   -1.221799
     38          6           0       -0.588720    5.570051   -0.029364
     39          1           0        0.028193    5.838627   -0.887661
     40          1           0       -0.021871    5.787758    0.875798
     41          1           0       -1.480035    6.192235   -0.033328
     42          6           0       -3.470944    4.274680   -0.254136
     43          1           0       -3.465106    5.172618   -0.862318
     44          6           0       -4.585463    3.927522    0.377989
     45          1           0       -4.627884    3.076117    1.035903
     46          1           0       -5.491210    4.502277    0.278421
     47          6           0       -5.304027   -0.752584   -0.842585
     48          1           0       -5.355968    0.092473   -1.527146
     49          1           0       -5.833716   -0.479700    0.071375
     50          1           0       -5.813058   -1.601450   -1.294467
     51          6           0       -3.939246   -3.644854   -0.560468
     52          1           0       -3.338031   -4.414469   -1.029923
     53          6           0       -5.160769   -3.947973   -0.134807
     54          1           0       -5.780055   -3.234205    0.379832
     55          1           0       -5.572544   -4.935154   -0.261365
     56          6           0        0.946124   -5.506058   -0.141694
     57          1           0        0.367631   -5.758375   -1.030716
     58          1           0        0.337096   -5.731265    0.733636
     59          1           0        1.829391   -6.139339   -0.118912
     60          6           0        3.895697   -4.157533   -0.372794
     61          1           0        4.360298   -3.909269   -1.327347
     62          1           0        3.801252   -5.238599   -0.310604
     63          1           0        4.560311   -3.822823    0.423885
     64          6           0        1.811145   -0.510284    2.954399
     65          1           0        2.232429   -1.262058    2.295776
     66          1           0        1.773739   -0.857659    3.981923
     67          1           0        2.392664    0.403100    2.887490
     68         16           0        0.118725   -0.087753    2.399192
     69          1           0       -0.368289   -1.327052    2.560207
 ---------------------------------------------------------------------
 Rotational constants (GHZ):           0.1132830           0.1077383           0.0606338
 Standard basis: def2TZVP (5D, 7F)
 There are  1546 symmetry adapted cartesian basis functions of A   symmetry.
 There are  1359 symmetry adapted basis functions of A   symmetry.
  1359 basis functions,  2212 primitive gaussians,  1546 cartesian basis functions
   144 alpha electrons      143 beta electrons
       nuclear repulsion energy      5037.2844235187 Hartrees.
 NAtoms=   69 NActive=   69 NUniq=   69 SFac= 1.00D+00 NAtFMM=   60 NAOKFM=T Big=T
 Integral buffers will be    131072 words long.
 Raffenetti 2 integral format.
 Two-electron integral symmetry is turned on.
 R6APFD:  NTU= -4 IXU= 1 FactS= 1.050
 Nuclear repulsion after empirical dispersion term =     5037.1539246708 Hartrees.
 One-electron integrals computed using PRISM.
   1 Symmetry operations used in ECPInt.
 ECPInt:  NShTT=  146611 NPrTT=  457451 LenC2=  115919 LenP2D=  241443.
 LDataN:  DoStor=T MaxTD1= 6 Len=  172
 Number of processors reduced to  26 by ecpmxn.
 NBasis=  1359 RedAO= T EigKep=  3.51D-06  NBF=  1359
 NBsUse=  1359 1.00D-06 EigRej= -1.00D+00 NBFU=  1359
 Initial guess from the checkpoint file:  "5g6m_III_Dn.chk"
 B after Tr=    -0.000000    0.000000    0.000000
         Rot=    1.000000   -0.000000    0.000000    0.000000 Ang=   0.00 deg.
 Initial guess <Sx>= 0.0000 <Sy>= 0.0000 <Sz>= 0.5000 <S**2>= 1.2960 S= 0.7434
 Requested convergence on RMS density matrix=1.00D-08 within 999 cycles.
 Requested convergence on MAX density matrix=1.00D-06.
 Requested convergence on             energy=1.00D-06.
 No special actions if energy rises.
 Restarting incremental Fock formation.
 Restarting incremental Fock formation.
 Restarting incremental Fock formation.
 Restarting incremental Fock formation.
 SCF Done:  E(UAPFD) =  -3080.55705041     A.U. after   82 cycles
            NFock= 82  Conv=0.21D-08     -V/T= 2.0031
 <Sx>= 0.0000 <Sy>= 0.0000 <Sz>= 0.5000 <S**2>= 1.1632 S= 0.6888
 <L.S>=  0.00000000000    
 Annihilation of the first spin contaminant:
 S**2 before annihilation     1.1632,   after     0.7812

 **********************************************************************

            Population analysis using the SCF Density.

 **********************************************************************

 Orbital symmetries:
 Alpha Orbitals:
       Occupied  (A) (A) (A) (A) (A) (A) (A) (A) (A) (A) (A) (A)
                 (A) (A) (A) (A) (A) (A) (A) (A) (A) (A) (A) (A)
                 (A) (A) (A) (A) (A) (A) (A) (A) (A) (A) (A) (A)
                 (A) (A) (A) (A) (A) (A) (A) (A) (A) (A) (A) (A)
                 (A) (A) (A) (A) (A) (A) (A) (A) (A) (A) (A) (A)
                 (A) (A) (A) (A) (A) (A) (A) (A) (A) (A) (A) (A)
                 (A) (A) (A) (A) (A) (A) (A) (A) (A) (A) (A) (A)
                 (A) (A) (A) (A) (A) (A) (A) (A) (A) (A) (A) (A)
                 (A) (A) (A) (A) (A) (A) (A) (A) (A) (A) (A) (A)
                 (A) (A) (A) (A) (A) (A) (A) (A) (A) (A) (A) (A)
                 (A) (A) (A) (A) (A) (A) (A) (A) (A) (A) (A) (A)
                 (A) (A) (A) (A) (A) (A) (A) (A) (A) (A) (A) (A)
       Virtual   (A) (A) (A) (A) (A) (A) (A) (A) (A) (A) (A) (A)
                 (A) (A) (A) (A) (A) (A) (A) (A) (A) (A) (A) (A)
                 (A) (A) (A) (A) (A) (A) (A) (A) (A) (A) (A) (A)
                 (A) (A) (A) (A) (A) (A) (A) (A) (A) (A) (A) (A)
                 (A) (A) (A) (A) (A) (A) (A) (A) (A) (A) (A) (A)
                 (A) (A) (A) (A) (A) (A) (A) (A) (A) (A) (A) (A)
                 (A) (A) (A) (A) (A) (A) (A) (A) (A) (A) (A) (A)
                 (A) (A) (A) (A) (A) (A) (A) (A) (A) (A) (A) (A)
                 (A) (A) (A) (A) (A) (A) (A) (A) (A) (A) (A) (A)
                 (A) (A) (A) (A) (A) (A) (A) (A) (A) (A) (A) (A)
                 (A) (A) (A) (A) (A) (A) (A) (A) (A) (A) (A) (A)
                 (A) (A) (A) (A) (A) (A) (A) (A) (A) (A) (A) (A)
                 (A) (A) (A) (A) (A) (A) (A) (A) (A) (A) (A) (A)
                 (A) (A) (A) (A) (A) (A) (A) (A) (A) (A) (A) (A)
                 (A) (A) (A) (A) (A) (A) (A) (A) (A) (A) (A) (A)
                 (A) (A) (A) (A) (A) (A) (A) (A) (A) (A) (A) (A)
                 (A) (A) (A) (A) (A) (A) (A) (A) (A) (A) (A) (A)
                 (A) (A) (A) (A) (A) (A) (A) (A) (A) (A) (A) (A)
                 (A) (A) (A) (A) (A) (A) (A) (A) (A) (A) (A) (A)
                 (A) (A) (A) (A) (A) (A) (A) (A) (A) (A) (A) (A)
                 (A) (A) (A) (A) (A) (A) (A) (A) (A) (A) (A) (A)
                 (A) (A) (A) (A) (A) (A) (A) (A) (A) (A) (A) (A)
                 (A) (A) (A) (A) (A) (A) (A) (A) (A) (A) (A) (A)
                 (A) (A) (A) (A) (A) (A) (A) (A) (A) (A) (A) (A)
                 (A) (A) (A) (A) (A) (A) (A) (A) (A) (A) (A) (A)
                 (A) (A) (A) (A) (A) (A) (A) (A) (A) (A) (A) (A)
                 (A) (A) (A) (A) (A) (A) (A) (A) (A) (A) (A) (A)
                 (A) (A) (A) (A) (A) (A) (A) (A) (A) (A) (A) (A)
                 (A) (A) (A) (A) (A) (A) (A) (A) (A) (A) (A) (A)
                 (A) (A) (A) (A) (A) (A) (A) (A) (A) (A) (A) (A)
                 (A) (A) (A) (A) (A) (A) (A) (A) (A) (A) (A) (A)
                 (A) (A) (A) (A) (A) (A) (A) (A) (A) (A) (A) (A)
                 (A) (A) (A) (A) (A) (A) (A) (A) (A) (A) (A) (A)
                 (A) (A) (A) (A) (A) (A) (A) (A) (A) (A) (A) (A)
                 (A) (A) (A) (A) (A) (A) (A) (A) (A) (A) (A) (A)
                 (A) (A) (A) (A) (A) (A) (A) (A) (A) (A) (A) (A)
                 (A) (A) (A) (A) (A) (A) (A) (A) (A) (A) (A) (A)
                 (A) (A) (A) (A) (A) (A) (A) (A) (A) (A) (A) (A)
                 (A) (A) (A) (A) (A) (A) (A) (A) (A) (A) (A) (A)
                 (A) (A) (A) (A) (A) (A) (A) (A) (A) (A) (A) (A)
                 (A) (A) (A) (A) (A) (A) (A) (A) (A) (A) (A) (A)
                 (A) (A) (A) (A) (A) (A) (A) (A) (A) (A) (A) (A)
                 (A) (A) (A) (A) (A) (A) (A) (A) (A) (A) (A) (A)
                 (A) (A) (A) (A) (A) (A) (A) (A) (A) (A) (A) (A)
                 (A) (A) (A) (A) (A) (A) (A) (A) (A) (A) (A) (A)
                 (A) (A) (A) (A) (A) (A) (A) (A) (A) (A) (A) (A)
                 (A) (A) (A) (A) (A) (A) (A) (A) (A) (A) (A) (A)
                 (A) (A) (A) (A) (A) (A) (A) (A) (A) (A) (A) (A)
                 (A) (A) (A) (A) (A) (A) (A) (A) (A) (A) (A) (A)
                 (A) (A) (A) (A) (A) (A) (A) (A) (A) (A) (A) (A)
                 (A) (A) (A) (A) (A) (A) (A) (A) (A) (A) (A) (A)
                 (A) (A) (A) (A) (A) (A) (A) (A) (A) (A) (A) (A)
                 (A) (A) (A) (A) (A) (A) (A) (A) (A) (A) (A) (A)
                 (A) (A) (A) (A) (A) (A) (A) (A) (A) (A) (A) (A)
                 (A) (A) (A) (A) (A) (A) (A) (A) (A) (A) (A) (A)
                 (A) (A) (A) (A) (A) (A) (A) (A) (A) (A) (A) (A)
                 (A) (A) (A) (A) (A) (A) (A) (A) (A) (A) (A) (A)
                 (A) (A) (A) (A) (A) (A) (A) (A) (A) (A) (A) (A)
                 (A) (A) (A) (A) (A) (A) (A) (A) (A) (A) (A) (A)
                 (A) (A) (A) (A) (A) (A) (A) (A) (A) (A) (A) (A)
                 (A) (A) (A) (A) (A) (A) (A) (A) (A) (A) (A) (A)
                 (A) (A) (A) (A) (A) (A) (A) (A) (A) (A) (A) (A)
                 (A) (A) (A) (A) (A) (A) (A) (A) (A) (A) (A) (A)
                 (A) (A) (A) (A) (A) (A) (A) (A) (A) (A) (A) (A)
                 (A) (A) (A) (A) (A) (A) (A) (A) (A) (A) (A) (A)
                 (A) (A) (A) (A) (A) (A) (A) (A) (A) (A) (A) (A)
                 (A) (A) (A) (A) (A) (A) (A) (A) (A) (A) (A) (A)
                 (A) (A) (A) (A) (A) (A) (A) (A) (A) (A) (A) (A)
                 (A) (A) (A) (A) (A) (A) (A) (A) (A) (A) (A) (A)
                 (A) (A) (A) (A) (A) (A) (A) (A) (A) (A) (A) (A)
                 (A) (A) (A) (A) (A) (A) (A) (A) (A) (A) (A) (A)
                 (A) (A) (A) (A) (A) (A) (A) (A) (A) (A) (A) (A)
                 (A) (A) (A) (A) (A) (A) (A) (A) (A) (A) (A) (A)
                 (A) (A) (A) (A) (A) (A) (A) (A) (A) (A) (A) (A)
                 (A) (A) (A) (A) (A) (A) (A) (A) (A) (A) (A) (A)
                 (A) (A) (A) (A) (A) (A) (A) (A) (A) (A) (A) (A)
                 (A) (A) (A) (A) (A) (A) (A) (A) (A) (A) (A) (A)
                 (A) (A) (A) (A) (A) (A) (A) (A) (A) (A) (A) (A)
                 (A) (A) (A) (A) (A) (A) (A) (A) (A) (A) (A) (A)
                 (A) (A) (A) (A) (A) (A) (A) (A) (A) (A) (A) (A)
                 (A) (A) (A) (A) (A) (A) (A) (A) (A) (A) (A) (A)
                 (A) (A) (A) (A) (A) (A) (A) (A) (A) (A) (A) (A)
                 (A) (A) (A) (A) (A) (A) (A) (A) (A) (A) (A) (A)
                 (A) (A) (A) (A) (A) (A) (A) (A) (A) (A) (A) (A)
                 (A) (A) (A) (A) (A) (A) (A) (A) (A) (A) (A) (A)
                 (A) (A) (A) (A) (A) (A) (A) (A) (A) (A) (A) (A)
                 (A) (A) (A) (A) (A) (A) (A) (A) (A) (A) (A) (A)
                 (A) (A) (A) (A) (A) (A) (A) (A) (A) (A) (A) (A)
                 (A) (A) (A) (A) (A) (A) (A) (A) (A) (A) (A) (A)
                 (A) (A) (A) (A) (A) (A) (A) (A) (A) (A) (A) (A)
                 (A) (A) (A) (A) (A) (A) (A) (A) (A) (A) (A) (A)
                 (A) (A) (A) (A) (A) (A) (A) (A) (A) (A) (A) (A)
                 (A) (A) (A) (A) (A) (A) (A) (A) (A) (A) (A) (A)
                 (A) (A) (A) (A) (A) (A) (A) (A) (A) (A) (A) (A)
                 (A) (A) (A) (A) (A) (A) (A) (A) (A) (A) (A) (A)
                 (A) (A) (A) (A) (A) (A) (A) (A) (A) (A) (A) (A)
                 (A) (A) (A) (A) (A) (A) (A) (A) (A) (A) (A) (A)
                 (A) (A) (A) (A) (A) (A) (A) (A) (A) (A) (A) (A)
                 (A) (A) (A) (A) (A) (A) (A) (A) (A) (A) (A) (A)
                 (A) (A) (A) (A) (A) (A) (A) (A) (A) (A) (A) (A)
                 (A) (A) (A) (A) (A) (A) (A) (A) (A) (A) (A) (A)
                 (A) (A) (A)
 Beta  Orbitals:
       Occupied  (A) (A) (A) (A) (A) (A) (A) (A) (A) (A) (A) (A)
                 (A) (A) (A) (A) (A) (A) (A) (A) (A) (A) (A) (A)
                 (A) (A) (A) (A) (A) (A) (A) (A) (A) (A) (A) (A)
                 (A) (A) (A) (A) (A) (A) (A) (A) (A) (A) (A) (A)
                 (A) (A) (A) (A) (A) (A) (A) (A) (A) (A) (A) (A)
                 (A) (A) (A) (A) (A) (A) (A) (A) (A) (A) (A) (A)
                 (A) (A) (A) (A) (A) (A) (A) (A) (A) (A) (A) (A)
                 (A) (A) (A) (A) (A) (A) (A) (A) (A) (A) (A) (A)
                 (A) (A) (A) (A) (A) (A) (A) (A) (A) (A) (A) (A)
                 (A) (A) (A) (A) (A) (A) (A) (A) (A) (A) (A) (A)
                 (A) (A) (A) (A) (A) (A) (A) (A) (A) (A) (A) (A)
                 (A) (A) (A) (A) (A) (A) (A) (A) (A) (A) (A)
       Virtual   (A) (A) (A) (A) (A) (A) (A) (A) (A) (A) (A) (A)
                 (A) (A) (A) (A) (A) (A) (A) (A) (A) (A) (A) (A)
                 (A) (A) (A) (A) (A) (A) (A) (A) (A) (A) (A) (A)
                 (A) (A) (A) (A) (A) (A) (A) (A) (A) (A) (A) (A)
                 (A) (A) (A) (A) (A) (A) (A) (A) (A) (A) (A) (A)
                 (A) (A) (A) (A) (A) (A) (A) (A) (A) (A) (A) (A)
                 (A) (A) (A) (A) (A) (A) (A) (A) (A) (A) (A) (A)
                 (A) (A) (A) (A) (A) (A) (A) (A) (A) (A) (A) (A)
                 (A) (A) (A) (A) (A) (A) (A) (A) (A) (A) (A) (A)
                 (A) (A) (A) (A) (A) (A) (A) (A) (A) (A) (A) (A)
                 (A) (A) (A) (A) (A) (A) (A) (A) (A) (A) (A) (A)
                 (A) (A) (A) (A) (A) (A) (A) (A) (A) (A) (A) (A)
                 (A) (A) (A) (A) (A) (A) (A) (A) (A) (A) (A) (A)
                 (A) (A) (A) (A) (A) (A) (A) (A) (A) (A) (A) (A)
                 (A) (A) (A) (A) (A) (A) (A) (A) (A) (A) (A) (A)
                 (A) (A) (A) (A) (A) (A) (A) (A) (A) (A) (A) (A)
                 (A) (A) (A) (A) (A) (A) (A) (A) (A) (A) (A) (A)
                 (A) (A) (A) (A) (A) (A) (A) (A) (A) (A) (A) (A)
                 (A) (A) (A) (A) (A) (A) (A) (A) (A) (A) (A) (A)
                 (A) (A) (A) (A) (A) (A) (A) (A) (A) (A) (A) (A)
                 (A) (A) (A) (A) (A) (A) (A) (A) (A) (A) (A) (A)
                 (A) (A) (A) (A) (A) (A) (A) (A) (A) (A) (A) (A)
                 (A) (A) (A) (A) (A) (A) (A) (A) (A) (A) (A) (A)
                 (A) (A) (A) (A) (A) (A) (A) (A) (A) (A) (A) (A)
                 (A) (A) (A) (A) (A) (A) (A) (A) (A) (A) (A) (A)
                 (A) (A) (A) (A) (A) (A) (A) (A) (A) (A) (A) (A)
                 (A) (A) (A) (A) (A) (A) (A) (A) (A) (A) (A) (A)
                 (A) (A) (A) (A) (A) (A) (A) (A) (A) (A) (A) (A)
                 (A) (A) (A) (A) (A) (A) (A) (A) (A) (A) (A) (A)
                 (A) (A) (A) (A) (A) (A) (A) (A) (A) (A) (A) (A)
                 (A) (A) (A) (A) (A) (A) (A) (A) (A) (A) (A) (A)
                 (A) (A) (A) (A) (A) (A) (A) (A) (A) (A) (A) (A)
                 (A) (A) (A) (A) (A) (A) (A) (A) (A) (A) (A) (A)
                 (A) (A) (A) (A) (A) (A) (A) (A) (A) (A) (A) (A)
                 (A) (A) (A) (A) (A) (A) (A) (A) (A) (A) (A) (A)
                 (A) (A) (A) (A) (A) (A) (A) (A) (A) (A) (A) (A)
                 (A) (A) (A) (A) (A) (A) (A) (A) (A) (A) (A) (A)
                 (A) (A) (A) (A) (A) (A) (A) (A) (A) (A) (A) (A)
                 (A) (A) (A) (A) (A) (A) (A) (A) (A) (A) (A) (A)
                 (A) (A) (A) (A) (A) (A) (A) (A) (A) (A) (A) (A)
                 (A) (A) (A) (A) (A) (A) (A) (A) (A) (A) (A) (A)
                 (A) (A) (A) (A) (A) (A) (A) (A) (A) (A) (A) (A)
                 (A) (A) (A) (A) (A) (A) (A) (A) (A) (A) (A) (A)
                 (A) (A) (A) (A) (A) (A) (A) (A) (A) (A) (A) (A)
                 (A) (A) (A) (A) (A) (A) (A) (A) (A) (A) (A) (A)
                 (A) (A) (A) (A) (A) (A) (A) (A) (A) (A) (A) (A)
                 (A) (A) (A) (A) (A) (A) (A) (A) (A) (A) (A) (A)
                 (A) (A) (A) (A) (A) (A) (A) (A) (A) (A) (A) (A)
                 (A) (A) (A) (A) (A) (A) (A) (A) (A) (A) (A) (A)
                 (A) (A) (A) (A) (A) (A) (A) (A) (A) (A) (A) (A)
                 (A) (A) (A) (A) (A) (A) (A) (A) (A) (A) (A) (A)
                 (A) (A) (A) (A) (A) (A) (A) (A) (A) (A) (A) (A)
                 (A) (A) (A) (A) (A) (A) (A) (A) (A) (A) (A) (A)
                 (A) (A) (A) (A) (A) (A) (A) (A) (A) (A) (A) (A)
                 (A) (A) (A) (A) (A) (A) (A) (A) (A) (A) (A) (A)
                 (A) (A) (A) (A) (A) (A) (A) (A) (A) (A) (A) (A)
                 (A) (A) (A) (A) (A) (A) (A) (A) (A) (A) (A) (A)
                 (A) (A) (A) (A) (A) (A) (A) (A) (A) (A) (A) (A)
                 (A) (A) (A) (A) (A) (A) (A) (A) (A) (A) (A) (A)
                 (A) (A) (A) (A) (A) (A) (A) (A) (A) (A) (A) (A)
                 (A) (A) (A) (A) (A) (A) (A) (A) (A) (A) (A) (A)
                 (A) (A) (A) (A) (A) (A) (A) (A) (A) (A) (A) (A)
                 (A) (A) (A) (A) (A) (A) (A) (A) (A) (A) (A) (A)
                 (A) (A) (A) (A) (A) (A) (A) (A) (A) (A) (A) (A)
                 (A) (A) (A) (A) (A) (A) (A) (A) (A) (A) (A) (A)
                 (A) (A) (A) (A) (A) (A) (A) (A) (A) (A) (A) (A)
                 (A) (A) (A) (A) (A) (A) (A) (A) (A) (A) (A) (A)
                 (A) (A) (A) (A) (A) (A) (A) (A) (A) (A) (A) (A)
                 (A) (A) (A) (A) (A) (A) (A) (A) (A) (A) (A) (A)
                 (A) (A) (A) (A) (A) (A) (A) (A) (A) (A) (A) (A)
                 (A) (A) (A) (A) (A) (A) (A) (A) (A) (A) (A) (A)
                 (A) (A) (A) (A) (A) (A) (A) (A) (A) (A) (A) (A)
                 (A) (A) (A) (A) (A) (A) (A) (A) (A) (A) (A) (A)
                 (A) (A) (A) (A) (A) (A) (A) (A) (A) (A) (A) (A)
                 (A) (A) (A) (A) (A) (A) (A) (A) (A) (A) (A) (A)
                 (A) (A) (A) (A) (A) (A) (A) (A) (A) (A) (A) (A)
                 (A) (A) (A) (A) (A) (A) (A) (A) (A) (A) (A) (A)
                 (A) (A) (A) (A) (A) (A) (A) (A) (A) (A) (A) (A)
                 (A) (A) (A) (A) (A) (A) (A) (A) (A) (A) (A) (A)
                 (A) (A) (A) (A) (A) (A) (A) (A) (A) (A) (A) (A)
                 (A) (A) (A) (A) (A) (A) (A) (A) (A) (A) (A) (A)
                 (A) (A) (A) (A) (A) (A) (A) (A) (A) (A) (A) (A)
                 (A) (A) (A) (A) (A) (A) (A) (A) (A) (A) (A) (A)
                 (A) (A) (A) (A) (A) (A) (A) (A) (A) (A) (A) (A)
                 (A) (A) (A) (A) (A) (A) (A) (A) (A) (A) (A) (A)
                 (A) (A) (A) (A) (A) (A) (A) (A) (A) (A) (A) (A)
                 (A) (A) (A) (A) (A) (A) (A) (A) (A) (A) (A) (A)
                 (A) (A) (A) (A) (A) (A) (A) (A) (A) (A) (A) (A)
                 (A) (A) (A) (A) (A) (A) (A) (A) (A) (A) (A) (A)
                 (A) (A) (A) (A) (A) (A) (A) (A) (A) (A) (A) (A)
                 (A) (A) (A) (A) (A) (A) (A) (A) (A) (A) (A) (A)
                 (A) (A) (A) (A) (A) (A) (A) (A) (A) (A) (A) (A)
                 (A) (A) (A) (A) (A) (A) (A) (A) (A) (A) (A) (A)
                 (A) (A) (A) (A) (A) (A) (A) (A) (A) (A) (A) (A)
                 (A) (A) (A) (A) (A) (A) (A) (A) (A) (A) (A) (A)
                 (A) (A) (A) (A) (A) (A) (A) (A) (A) (A) (A) (A)
                 (A) (A) (A) (A) (A) (A) (A) (A) (A) (A) (A) (A)
                 (A) (A) (A) (A) (A) (A) (A) (A) (A) (A) (A) (A)
                 (A) (A) (A) (A) (A) (A) (A) (A) (A) (A) (A) (A)
                 (A) (A) (A) (A) (A) (A) (A) (A) (A) (A) (A) (A)
                 (A) (A) (A) (A) (A) (A) (A) (A) (A) (A) (A) (A)
                 (A) (A) (A) (A)
 The electronic state is 2-A.
 Alpha  occ. eigenvalues -- -256.37232 -89.11436 -30.24027 -26.08519 -26.08430
 Alpha  occ. eigenvalues --  -26.05937 -14.48131 -14.48078 -14.47707 -14.47411
 Alpha  occ. eigenvalues --  -10.34872 -10.34281 -10.34144 -10.34080 -10.33984
 Alpha  occ. eigenvalues --  -10.33957 -10.33942 -10.33843 -10.33778 -10.31588
 Alpha  occ. eigenvalues --  -10.31511 -10.31485 -10.31212 -10.31003 -10.30892
 Alpha  occ. eigenvalues --  -10.30816 -10.30686 -10.30571 -10.30542 -10.30496
 Alpha  occ. eigenvalues --  -10.30345 -10.29653 -10.29557 -10.28883 -10.28843
 Alpha  occ. eigenvalues --  -10.28769 -10.28708 -10.28513 -10.28412 -10.28329
 Alpha  occ. eigenvalues --  -10.28208  -8.14167  -6.08682  -6.08424  -6.07978
 Alpha  occ. eigenvalues --   -3.63854  -2.42361  -2.41771  -2.36115  -1.10309
 Alpha  occ. eigenvalues --   -1.09438  -1.09093  -1.08230  -0.95068  -0.94246
 Alpha  occ. eigenvalues --   -0.93358  -0.92973  -0.92637  -0.92349  -0.92162
 Alpha  occ. eigenvalues --   -0.91995  -0.87982  -0.86836  -0.86533  -0.85492
 Alpha  occ. eigenvalues --   -0.84056  -0.82142  -0.81059  -0.79846  -0.79639
 Alpha  occ. eigenvalues --   -0.79481  -0.79185  -0.76642  -0.76399  -0.71709
 Alpha  occ. eigenvalues --   -0.71516  -0.69965  -0.69618  -0.66462  -0.65963
 Alpha  occ. eigenvalues --   -0.65289  -0.64135  -0.63224  -0.62943  -0.62178
 Alpha  occ. eigenvalues --   -0.60164  -0.60020  -0.59555  -0.59238  -0.58138
 Alpha  occ. eigenvalues --   -0.57345  -0.56682  -0.56041  -0.55928  -0.55452
 Alpha  occ. eigenvalues --   -0.55104  -0.54584  -0.54561  -0.54123  -0.54081
 Alpha  occ. eigenvalues --   -0.53666  -0.53306  -0.52381  -0.51846  -0.51686
 Alpha  occ. eigenvalues --   -0.51623  -0.51498  -0.51389  -0.51243  -0.51116
 Alpha  occ. eigenvalues --   -0.51015  -0.50789  -0.50371  -0.50142  -0.49660
 Alpha  occ. eigenvalues --   -0.49349  -0.49205  -0.48946  -0.48755  -0.48488
 Alpha  occ. eigenvalues --   -0.47914  -0.47419  -0.47091  -0.46227  -0.45761
 Alpha  occ. eigenvalues --   -0.45253  -0.44731  -0.44340  -0.44197  -0.43818
 Alpha  occ. eigenvalues --   -0.43151  -0.43009  -0.40902  -0.40699  -0.40071
 Alpha  occ. eigenvalues --   -0.39928  -0.38529  -0.38182  -0.35764  -0.34417
 Alpha  occ. eigenvalues --   -0.33776  -0.33146  -0.31775  -0.30422
 Alpha virt. eigenvalues --   -0.25520  -0.18853  -0.18687  -0.15379  -0.13101
 Alpha virt. eigenvalues --   -0.11791  -0.09882  -0.09011  -0.08132  -0.06808
 Alpha virt. eigenvalues --   -0.05813  -0.04702  -0.03886  -0.03863  -0.03452
 Alpha virt. eigenvalues --   -0.03374  -0.02863  -0.02443  -0.01975  -0.01546
 Alpha virt. eigenvalues --   -0.00898  -0.00711  -0.00418   0.00155   0.00558
 Alpha virt. eigenvalues --    0.01014   0.01351   0.01367   0.01615   0.01787
 Alpha virt. eigenvalues --    0.01851   0.02159   0.02581   0.02801   0.02876
 Alpha virt. eigenvalues --    0.03045   0.03508   0.03664   0.04051   0.04301
 Alpha virt. eigenvalues --    0.04583   0.04780   0.05031   0.05740   0.05816
 Alpha virt. eigenvalues --    0.05995   0.06184   0.06546   0.06620   0.06755
 Alpha virt. eigenvalues --    0.06911   0.07184   0.07471   0.07750   0.07771
 Alpha virt. eigenvalues --    0.07860   0.08099   0.08574   0.09004   0.09404
 Alpha virt. eigenvalues --    0.09548   0.09685   0.09800   0.10118   0.10377
 Alpha virt. eigenvalues --    0.10426   0.10755   0.11197   0.11551   0.11659
 Alpha virt. eigenvalues --    0.11778   0.12156   0.12358   0.13067   0.13259
 Alpha virt. eigenvalues --    0.13497   0.13564   0.14242   0.14433   0.14737
 Alpha virt. eigenvalues --    0.14873   0.15675   0.16028   0.16237   0.16497
 Alpha virt. eigenvalues --    0.16608   0.16782   0.17252   0.17663   0.17693
 Alpha virt. eigenvalues --    0.18063   0.18598   0.18808   0.19082   0.19300
 Alpha virt. eigenvalues --    0.19633   0.19943   0.20113   0.20233   0.20642
 Alpha virt. eigenvalues --    0.20779   0.20819   0.21201   0.21371   0.22080
 Alpha virt. eigenvalues --    0.22280   0.22570   0.22867   0.22961   0.23638
 Alpha virt. eigenvalues --    0.23846   0.24091   0.24525   0.24766   0.25296
 Alpha virt. eigenvalues --    0.25384   0.25798   0.26072   0.26217   0.26425
 Alpha virt. eigenvalues --    0.26925   0.27096   0.27217   0.27987   0.28372
 Alpha virt. eigenvalues --    0.28461   0.28703   0.28886   0.29566   0.29670
 Alpha virt. eigenvalues --    0.30035   0.30163   0.30183   0.30476   0.30706
 Alpha virt. eigenvalues --    0.31037   0.31295   0.31709   0.31806   0.32156
 Alpha virt. eigenvalues --    0.32426   0.32696   0.32835   0.33005   0.33292
 Alpha virt. eigenvalues --    0.33507   0.33774   0.34121   0.34519   0.34788
 Alpha virt. eigenvalues --    0.35013   0.35111   0.35640   0.35692   0.36092
 Alpha virt. eigenvalues --    0.36579   0.36663   0.36748   0.36891   0.37156
 Alpha virt. eigenvalues --    0.37393   0.37628   0.37882   0.37966   0.38518
 Alpha virt. eigenvalues --    0.38562   0.38713   0.39118   0.39516   0.39860
 Alpha virt. eigenvalues --    0.39887   0.40020   0.40283   0.40561   0.40998
 Alpha virt. eigenvalues --    0.41199   0.41396   0.41510   0.41843   0.42054
 Alpha virt. eigenvalues --    0.42077   0.42266   0.42775   0.42901   0.43127
 Alpha virt. eigenvalues --    0.43278   0.43316   0.43750   0.44089   0.44224
 Alpha virt. eigenvalues --    0.44960   0.44984   0.45059   0.45798   0.45856
 Alpha virt. eigenvalues --    0.46246   0.46509   0.46736   0.47087   0.47442
 Alpha virt. eigenvalues --    0.47839   0.47927   0.48479   0.48816   0.48907
 Alpha virt. eigenvalues --    0.49395   0.49572   0.50122   0.50608   0.50794
 Alpha virt. eigenvalues --    0.51532   0.51745   0.51917   0.52197   0.52783
 Alpha virt. eigenvalues --    0.52859   0.53252   0.53703   0.53973   0.54414
 Alpha virt. eigenvalues --    0.54565   0.54710   0.55239   0.55491   0.55981
 Alpha virt. eigenvalues --    0.56136   0.56494   0.56848   0.56955   0.57285
 Alpha virt. eigenvalues --    0.58120   0.58144   0.58412   0.58695   0.58930
 Alpha virt. eigenvalues --    0.59170   0.59537   0.59830   0.60082   0.60490
 Alpha virt. eigenvalues --    0.60826   0.61068   0.61397   0.61882   0.62269
 Alpha virt. eigenvalues --    0.62474   0.62908   0.63235   0.63622   0.63754
 Alpha virt. eigenvalues --    0.63812   0.64257   0.64817   0.64945   0.65578
 Alpha virt. eigenvalues --    0.65709   0.66134   0.66585   0.66687   0.67600
 Alpha virt. eigenvalues --    0.67903   0.68315   0.68709   0.68850   0.69366
 Alpha virt. eigenvalues --    0.69939   0.70267   0.70583   0.71087   0.71553
 Alpha virt. eigenvalues --    0.71909   0.72484   0.72769   0.73030   0.73799
 Alpha virt. eigenvalues --    0.74557   0.74619   0.75083   0.75690   0.75772
 Alpha virt. eigenvalues --    0.76109   0.76537   0.77423   0.77591   0.77804
 Alpha virt. eigenvalues --    0.78479   0.78868   0.79272   0.79506   0.79732
 Alpha virt. eigenvalues --    0.80013   0.80685   0.80864   0.81751   0.82309
 Alpha virt. eigenvalues --    0.82459   0.82826   0.83404   0.83805   0.84046
 Alpha virt. eigenvalues --    0.84695   0.84855   0.85259   0.85654   0.86004
 Alpha virt. eigenvalues --    0.86287   0.86928   0.87105   0.87426   0.87919
 Alpha virt. eigenvalues --    0.87961   0.88459   0.88842   0.89124   0.89462
 Alpha virt. eigenvalues --    0.90014   0.90294   0.90659   0.90970   0.91519
 Alpha virt. eigenvalues --    0.91852   0.92071   0.92264   0.92479   0.92957
 Alpha virt. eigenvalues --    0.93056   0.93494   0.93836   0.94062   0.94215
 Alpha virt. eigenvalues --    0.94926   0.95181   0.95939   0.96386   0.96783
 Alpha virt. eigenvalues --    0.97236   0.98098   0.98522   0.99478   0.99553
 Alpha virt. eigenvalues --    0.99836   1.00540   1.00806   1.00970   1.01820
 Alpha virt. eigenvalues --    1.02063   1.03441   1.04343   1.04785   1.05511
 Alpha virt. eigenvalues --    1.06060   1.06226   1.06979   1.07218   1.07409
 Alpha virt. eigenvalues --    1.07637   1.08102   1.08758   1.09131   1.09542
 Alpha virt. eigenvalues --    1.09995   1.10495   1.10811   1.11099   1.11604
 Alpha virt. eigenvalues --    1.12045   1.12496   1.13186   1.13441   1.14697
 Alpha virt. eigenvalues --    1.14826   1.15052   1.15256   1.15618   1.16333
 Alpha virt. eigenvalues --    1.16535   1.16724   1.17414   1.17725   1.18110
 Alpha virt. eigenvalues --    1.18239   1.18626   1.19205   1.19287   1.19960
 Alpha virt. eigenvalues --    1.20386   1.20634   1.21785   1.22444   1.23096
 Alpha virt. eigenvalues --    1.24464   1.24870   1.25217   1.25548   1.26263
 Alpha virt. eigenvalues --    1.26575   1.27950   1.28407   1.29292   1.30148
 Alpha virt. eigenvalues --    1.30592   1.31159   1.31618   1.32251   1.32444
 Alpha virt. eigenvalues --    1.32746   1.33090   1.34065   1.34558   1.35175
 Alpha virt. eigenvalues --    1.35891   1.35897   1.36620   1.36896   1.37013
 Alpha virt. eigenvalues --    1.37412   1.37776   1.38123   1.38837   1.39308
 Alpha virt. eigenvalues --    1.39543   1.40085   1.40286   1.40592   1.40778
 Alpha virt. eigenvalues --    1.41089   1.41557   1.41643   1.41975   1.42133
 Alpha virt. eigenvalues --    1.42780   1.43193   1.43655   1.43814   1.44619
 Alpha virt. eigenvalues --    1.44735   1.45064   1.45270   1.45608   1.45796
 Alpha virt. eigenvalues --    1.45901   1.46239   1.46443   1.46782   1.47013
 Alpha virt. eigenvalues --    1.47389   1.47585   1.47867   1.48117   1.48148
 Alpha virt. eigenvalues --    1.48666   1.48959   1.49290   1.49419   1.49976
 Alpha virt. eigenvalues --    1.50457   1.50525   1.51073   1.51464   1.51749
 Alpha virt. eigenvalues --    1.51875   1.52206   1.52909   1.53094   1.53365
 Alpha virt. eigenvalues --    1.53468   1.53895   1.54365   1.54571   1.54902
 Alpha virt. eigenvalues --    1.55428   1.55886   1.56002   1.56555   1.56780
 Alpha virt. eigenvalues --    1.56948   1.57297   1.58030   1.58044   1.58345
 Alpha virt. eigenvalues --    1.59020   1.59364   1.59656   1.59878   1.60192
 Alpha virt. eigenvalues --    1.60787   1.61298   1.61327   1.61927   1.62206
 Alpha virt. eigenvalues --    1.62858   1.63152   1.63521   1.63976   1.64613
 Alpha virt. eigenvalues --    1.65150   1.65649   1.66519   1.67357   1.67679
 Alpha virt. eigenvalues --    1.68039   1.68616   1.68920   1.69514   1.70116
 Alpha virt. eigenvalues --    1.70889   1.71184   1.71341   1.72115   1.72630
 Alpha virt. eigenvalues --    1.73101   1.73264   1.73723   1.74746   1.74916
 Alpha virt. eigenvalues --    1.75731   1.76068   1.76492   1.77256   1.77403
 Alpha virt. eigenvalues --    1.78066   1.78655   1.78888   1.79201   1.79688
 Alpha virt. eigenvalues --    1.81387   1.81540   1.82086   1.82684   1.83316
 Alpha virt. eigenvalues --    1.84087   1.84701   1.84805   1.84964   1.85323
 Alpha virt. eigenvalues --    1.85903   1.86419   1.86733   1.87073   1.87885
 Alpha virt. eigenvalues --    1.88365   1.88940   1.89461   1.89832   1.90077
 Alpha virt. eigenvalues --    1.90319   1.90808   1.91310   1.91939   1.92491
 Alpha virt. eigenvalues --    1.93418   1.93656   1.94556   1.94970   1.95128
 Alpha virt. eigenvalues --    1.95644   1.96055   1.96842   1.97573   1.97825
 Alpha virt. eigenvalues --    1.98669   1.99024   1.99248   1.99775   2.00552
 Alpha virt. eigenvalues --    2.01030   2.01196   2.01699   2.02130   2.02291
 Alpha virt. eigenvalues --    2.02977   2.03756   2.04586   2.04741   2.05761
 Alpha virt. eigenvalues --    2.06273   2.06628   2.07463   2.07568   2.08679
 Alpha virt. eigenvalues --    2.09004   2.09415   2.10171   2.10901   2.11074
 Alpha virt. eigenvalues --    2.12281   2.12368   2.13392   2.13804   2.14278
 Alpha virt. eigenvalues --    2.14532   2.15025   2.15790   2.16223   2.16377
 Alpha virt. eigenvalues --    2.16970   2.17601   2.17726   2.18432   2.18856
 Alpha virt. eigenvalues --    2.19253   2.19665   2.20125   2.20538   2.20825
 Alpha virt. eigenvalues --    2.21689   2.22109   2.22468   2.23037   2.23770
 Alpha virt. eigenvalues --    2.24165   2.25169   2.25525   2.25552   2.25948
 Alpha virt. eigenvalues --    2.26342   2.26675   2.26906   2.27731   2.28102
 Alpha virt. eigenvalues --    2.28256   2.28656   2.28884   2.29294   2.29876
 Alpha virt. eigenvalues --    2.30395   2.30644   2.31800   2.31943   2.32361
 Alpha virt. eigenvalues --    2.32908   2.33306   2.33848   2.34223   2.34852
 Alpha virt. eigenvalues --    2.35780   2.36165   2.36574   2.36832   2.37229
 Alpha virt. eigenvalues --    2.37512   2.38208   2.38913   2.39421   2.40045
 Alpha virt. eigenvalues --    2.40448   2.41697   2.42136   2.42653   2.43012
 Alpha virt. eigenvalues --    2.43084   2.43483   2.44362   2.44505   2.44585
 Alpha virt. eigenvalues --    2.45271   2.45541   2.45904   2.46259   2.46611
 Alpha virt. eigenvalues --    2.46708   2.47486   2.47775   2.48345   2.48833
 Alpha virt. eigenvalues --    2.49033   2.49429   2.49808   2.50097   2.50438
 Alpha virt. eigenvalues --    2.51008   2.51296   2.51637   2.51774   2.52440
 Alpha virt. eigenvalues --    2.53362   2.53625   2.54571   2.54748   2.54951
 Alpha virt. eigenvalues --    2.55483   2.56220   2.56908   2.57000   2.57390
 Alpha virt. eigenvalues --    2.57713   2.58155   2.58540   2.59036   2.59516
 Alpha virt. eigenvalues --    2.59771   2.60700   2.60795   2.61446   2.62415
 Alpha virt. eigenvalues --    2.62747   2.63266   2.63532   2.63896   2.64193
 Alpha virt. eigenvalues --    2.65298   2.65735   2.66257   2.67166   2.67294
 Alpha virt. eigenvalues --    2.67801   2.68167   2.68490   2.68902   2.69645
 Alpha virt. eigenvalues --    2.70081   2.70604   2.71174   2.71605   2.71897
 Alpha virt. eigenvalues --    2.72357   2.73223   2.73470   2.73761   2.74069
 Alpha virt. eigenvalues --    2.74411   2.74879   2.75349   2.75799   2.76163
 Alpha virt. eigenvalues --    2.76545   2.76705   2.77153   2.77497   2.78295
 Alpha virt. eigenvalues --    2.78955   2.79066   2.79660   2.79929   2.80213
 Alpha virt. eigenvalues --    2.80542   2.81317   2.81653   2.82159   2.82634
 Alpha virt. eigenvalues --    2.83422   2.83664   2.84326   2.84659   2.85137
 Alpha virt. eigenvalues --    2.85545   2.86146   2.86884   2.86940   2.87573
 Alpha virt. eigenvalues --    2.87803   2.88705   2.89344   2.89639   2.89995
 Alpha virt. eigenvalues --    2.90690   2.90893   2.91700   2.92211   2.92932
 Alpha virt. eigenvalues --    2.93280   2.93479   2.93930   2.94087   2.94618
 Alpha virt. eigenvalues --    2.94744   2.95593   2.95917   2.96499   2.96551
 Alpha virt. eigenvalues --    2.96663   2.97077   2.97611   2.98081   2.98190
 Alpha virt. eigenvalues --    2.98307   2.98731   2.99665   3.00168   3.00204
 Alpha virt. eigenvalues --    3.00666   3.00753   3.01425   3.01708   3.02096
 Alpha virt. eigenvalues --    3.02972   3.03281   3.03571   3.03706   3.04015
 Alpha virt. eigenvalues --    3.04399   3.04852   3.05435   3.05653   3.06003
 Alpha virt. eigenvalues --    3.06693   3.07090   3.07221   3.07373   3.07790
 Alpha virt. eigenvalues --    3.07980   3.08529   3.08670   3.09234   3.09399
 Alpha virt. eigenvalues --    3.09577   3.10115   3.10245   3.10585   3.11054
 Alpha virt. eigenvalues --    3.11403   3.11756   3.12514   3.12787   3.13251
 Alpha virt. eigenvalues --    3.13373   3.13744   3.14050   3.14065   3.14303
 Alpha virt. eigenvalues --    3.14669   3.15178   3.15610   3.15885   3.16073
 Alpha virt. eigenvalues --    3.16624   3.16926   3.17655   3.17723   3.18439
 Alpha virt. eigenvalues --    3.18703   3.19198   3.19324   3.19811   3.19883
 Alpha virt. eigenvalues --    3.20257   3.20402   3.20645   3.21005   3.21256
 Alpha virt. eigenvalues --    3.21710   3.21897   3.22730   3.22793   3.22926
 Alpha virt. eigenvalues --    3.23281   3.23636   3.23721   3.23788   3.23981
 Alpha virt. eigenvalues --    3.24777   3.24849   3.25188   3.25308   3.25691
 Alpha virt. eigenvalues --    3.25792   3.26138   3.26288   3.26684   3.26778
 Alpha virt. eigenvalues --    3.27075   3.27466   3.27849   3.28091   3.28348
 Alpha virt. eigenvalues --    3.28908   3.29468   3.29730   3.29893   3.30573
 Alpha virt. eigenvalues --    3.30639   3.31380   3.31607   3.32027   3.32175
 Alpha virt. eigenvalues --    3.33203   3.33565   3.33718   3.34014   3.34526
 Alpha virt. eigenvalues --    3.35013   3.35340   3.35864   3.36313   3.37004
 Alpha virt. eigenvalues --    3.37233   3.38173   3.38507   3.38854   3.39346
 Alpha virt. eigenvalues --    3.39693   3.40721   3.41392   3.41727   3.42258
 Alpha virt. eigenvalues --    3.43159   3.43590   3.44044   3.44782   3.45779
 Alpha virt. eigenvalues --    3.45885   3.46407   3.46817   3.47190   3.47939
 Alpha virt. eigenvalues --    3.48236   3.48945   3.49269   3.49554   3.49981
 Alpha virt. eigenvalues --    3.50526   3.51042   3.52034   3.52496   3.52755
 Alpha virt. eigenvalues --    3.53708   3.53916   3.54622   3.54903   3.55458
 Alpha virt. eigenvalues --    3.56193   3.56742   3.57239   3.57884   3.58677
 Alpha virt. eigenvalues --    3.59067   3.59426   3.59849   3.60255   3.60451
 Alpha virt. eigenvalues --    3.60959   3.61531   3.61679   3.61862   3.62206
 Alpha virt. eigenvalues --    3.62407   3.63255   3.63968   3.64401   3.64738
 Alpha virt. eigenvalues --    3.65245   3.65868   3.66270   3.66889   3.67604
 Alpha virt. eigenvalues --    3.68299   3.69565   3.69691   3.70660   3.70858
 Alpha virt. eigenvalues --    3.72040   3.73080   3.73144   3.73801   3.74480
 Alpha virt. eigenvalues --    3.74675   3.75800   3.76076   3.76185   3.76944
 Alpha virt. eigenvalues --    3.78107   3.78868   3.78996   3.79870   3.80933
 Alpha virt. eigenvalues --    3.81367   3.81875   3.82386   3.83274   3.84297
 Alpha virt. eigenvalues --    3.84992   3.85697   3.86474   3.87104   3.87573
 Alpha virt. eigenvalues --    3.88831   3.89087   3.89724   3.89981   3.90727
 Alpha virt. eigenvalues --    3.91242   3.91293   3.92435   3.93144   3.93348
 Alpha virt. eigenvalues --    3.93570   3.94775   3.95586   3.96528   3.97194
 Alpha virt. eigenvalues --    3.97607   3.97963   3.99329   3.99795   4.00709
 Alpha virt. eigenvalues --    4.01236   4.01416   4.02859   4.03961   4.04327
 Alpha virt. eigenvalues --    4.05279   4.05694   4.05813   4.06480   4.07409
 Alpha virt. eigenvalues --    4.07622   4.08382   4.08949   4.09271   4.09859
 Alpha virt. eigenvalues --    4.10371   4.10739   4.11277   4.11656   4.12013
 Alpha virt. eigenvalues --    4.12851   4.13184   4.14080   4.14345   4.15406
 Alpha virt. eigenvalues --    4.16110   4.16173   4.17452   4.18690   4.18977
 Alpha virt. eigenvalues --    4.19926   4.20741   4.21238   4.21507   4.22212
 Alpha virt. eigenvalues --    4.23216   4.23941   4.24342   4.25184   4.26727
 Alpha virt. eigenvalues --    4.27691   4.28014   4.28293   4.28780   4.29613
 Alpha virt. eigenvalues --    4.29626   4.30060   4.30708   4.31192   4.31744
 Alpha virt. eigenvalues --    4.32538   4.33248   4.33728   4.34242   4.34409
 Alpha virt. eigenvalues --    4.35336   4.35887   4.36030   4.36765   4.38958
 Alpha virt. eigenvalues --    4.39615   4.40984   4.41335   4.42027   4.42902
 Alpha virt. eigenvalues --    4.43599   4.45075   4.45535   4.45849   4.47863
 Alpha virt. eigenvalues --    4.49691   4.50997   4.51454   4.52369   4.53534
 Alpha virt. eigenvalues --    4.53993   4.55561   4.56295   4.56782   4.56970
 Alpha virt. eigenvalues --    4.57270   4.59263   4.60650   4.61464   4.62927
 Alpha virt. eigenvalues --    4.64225   4.64669   4.65960   4.66526   4.67846
 Alpha virt. eigenvalues --    4.69520   4.70021   4.70915   4.71701   4.72084
 Alpha virt. eigenvalues --    4.72645   4.72782   4.73658   4.74353   4.75184
 Alpha virt. eigenvalues --    4.75588   4.78075   4.78500   4.80677   4.81250
 Alpha virt. eigenvalues --    4.81702   4.82821   4.83822   4.85564   4.86115
 Alpha virt. eigenvalues --    4.86860   4.88562   4.89353   4.90002   4.90696
 Alpha virt. eigenvalues --    4.91100   4.92969   4.93326   4.94710   4.96128
 Alpha virt. eigenvalues --    4.96557   4.98356   4.98961   5.00406   5.02365
 Alpha virt. eigenvalues --    5.04737   5.05697   5.06526   5.07519   5.08573
 Alpha virt. eigenvalues --    5.08869   5.10173   5.10675   5.12642   5.13150
 Alpha virt. eigenvalues --    5.16160   5.22194   5.22747   5.24050   5.24311
 Alpha virt. eigenvalues --    5.25481   5.26170   5.26554   5.27149   5.30250
 Alpha virt. eigenvalues --    5.34792   5.35844   5.36275   5.37660   5.38017
 Alpha virt. eigenvalues --    5.38345   5.40211   5.46386   5.46777   5.48275
 Alpha virt. eigenvalues --    5.48707   5.50422   5.53090   5.54951   5.55519
 Alpha virt. eigenvalues --    5.57862   5.61452   5.62031   5.62480   5.63563
 Alpha virt. eigenvalues --    5.64851   5.71123   5.74725   5.76000   5.87240
 Alpha virt. eigenvalues --    5.88185   5.89221   5.92891   5.96424   5.97020
 Alpha virt. eigenvalues --    5.98477   6.04757   6.12366   6.19150   6.20500
 Alpha virt. eigenvalues --    6.27111   8.90502   9.04538   9.23918  19.33549
 Alpha virt. eigenvalues --   22.18039  22.24552  22.25716  22.35961  22.36538
 Alpha virt. eigenvalues --   22.43459  22.44948  22.51783  22.52522  22.67475
 Alpha virt. eigenvalues --   22.75975  22.77145  22.79325  22.80919  22.83383
 Alpha virt. eigenvalues --   22.84256  22.90541  22.91954  23.02062  23.13238
 Alpha virt. eigenvalues --   23.17642  23.17930  23.23571  23.30684  23.38985
 Alpha virt. eigenvalues --   23.40142  23.44759  23.63019  23.66598  23.67262
 Alpha virt. eigenvalues --   23.75803  32.70593  32.72249  32.74056  32.88333
  Beta  occ. eigenvalues -- -256.37177 -89.11506 -30.21028 -26.05658 -26.04867
  Beta  occ. eigenvalues --  -26.04855 -14.48330 -14.48291 -14.47985 -14.47629
  Beta  occ. eigenvalues --  -10.34864 -10.34227 -10.34081 -10.34030 -10.33929
  Beta  occ. eigenvalues --  -10.33908 -10.33892 -10.33792 -10.33723 -10.31748
  Beta  occ. eigenvalues --  -10.31657 -10.31628 -10.31352 -10.30977 -10.30867
  Beta  occ. eigenvalues --  -10.30791 -10.30662 -10.30568 -10.30540 -10.30493
  Beta  occ. eigenvalues --  -10.30341 -10.29663 -10.29558 -10.28884 -10.28846
  Beta  occ. eigenvalues --  -10.28769 -10.28709 -10.28514 -10.28414 -10.28312
  Beta  occ. eigenvalues --  -10.28206  -8.14231  -6.08724  -6.08490  -6.08172
  Beta  occ. eigenvalues --   -3.56483  -2.33058  -2.32408  -2.31197  -1.10507
  Beta  occ. eigenvalues --   -1.09589  -1.09348  -1.08432  -0.95218  -0.94435
  Beta  occ. eigenvalues --   -0.93380  -0.93029  -0.92680  -0.92456  -0.92332
  Beta  occ. eigenvalues --   -0.92122  -0.87975  -0.87131  -0.86612  -0.85505
  Beta  occ. eigenvalues --   -0.84088  -0.82162  -0.81107  -0.79928  -0.79682
  Beta  occ. eigenvalues --   -0.79501  -0.79247  -0.76691  -0.76443  -0.71735
  Beta  occ. eigenvalues --   -0.71518  -0.69979  -0.69766  -0.66492  -0.66003
  Beta  occ. eigenvalues --   -0.65310  -0.64128  -0.63290  -0.62992  -0.62234
  Beta  occ. eigenvalues --   -0.60161  -0.59988  -0.59597  -0.59281  -0.58303
  Beta  occ. eigenvalues --   -0.57352  -0.56733  -0.56116  -0.55859  -0.55504
  Beta  occ. eigenvalues --   -0.55150  -0.54646  -0.54615  -0.54187  -0.54071
  Beta  occ. eigenvalues --   -0.53710  -0.53228  -0.52428  -0.51850  -0.51685
  Beta  occ. eigenvalues --   -0.51636  -0.51497  -0.51359  -0.51235  -0.51022
  Beta  occ. eigenvalues --   -0.50910  -0.50711  -0.50331  -0.49929  -0.49597
  Beta  occ. eigenvalues --   -0.49393  -0.49249  -0.48915  -0.48591  -0.48320
  Beta  occ. eigenvalues --   -0.47893  -0.47266  -0.47111  -0.46144  -0.45188
  Beta  occ. eigenvalues --   -0.44811  -0.44544  -0.43988  -0.43773  -0.43447
  Beta  occ. eigenvalues --   -0.43118  -0.40904  -0.40513  -0.39668  -0.39317
  Beta  occ. eigenvalues --   -0.37164  -0.36973  -0.35548  -0.34831  -0.33923
  Beta  occ. eigenvalues --   -0.32767  -0.32019  -0.30004
  Beta virt. eigenvalues --   -0.21160  -0.19234  -0.17666  -0.17446  -0.13286
  Beta virt. eigenvalues --   -0.11315  -0.11098  -0.09786  -0.08997  -0.08202
  Beta virt. eigenvalues --   -0.06920  -0.05700  -0.04698  -0.03736  -0.03660
  Beta virt. eigenvalues --   -0.03372  -0.03256  -0.02703  -0.02216  -0.01939
  Beta virt. eigenvalues --   -0.01431  -0.00885  -0.00707  -0.00319   0.00140
  Beta virt. eigenvalues --    0.00580   0.00998   0.01323   0.01354   0.01587
  Beta virt. eigenvalues --    0.01742   0.01850   0.02085   0.02597   0.02737
  Beta virt. eigenvalues --    0.02882   0.03081   0.03463   0.03598   0.04000
  Beta virt. eigenvalues --    0.04267   0.04542   0.04784   0.05019   0.05728
  Beta virt. eigenvalues --    0.05829   0.05997   0.06176   0.06595   0.06690
  Beta virt. eigenvalues --    0.06814   0.07022   0.07172   0.07498   0.07759
  Beta virt. eigenvalues --    0.07823   0.07988   0.08281   0.08577   0.09160
  Beta virt. eigenvalues --    0.09446   0.09542   0.09706   0.09804   0.10129
  Beta virt. eigenvalues --    0.10433   0.10562   0.10742   0.11210   0.11560
  Beta virt. eigenvalues --    0.11690   0.11828   0.12213   0.12364   0.13083
  Beta virt. eigenvalues --    0.13318   0.13509   0.13589   0.14303   0.14440
  Beta virt. eigenvalues --    0.14789   0.14866   0.15655   0.16025   0.16240
  Beta virt. eigenvalues --    0.16479   0.16646   0.16853   0.17227   0.17694
  Beta virt. eigenvalues --    0.17717   0.18084   0.18746   0.18812   0.19086
  Beta virt. eigenvalues --    0.19296   0.19615   0.19924   0.20117   0.20241
  Beta virt. eigenvalues --    0.20670   0.20780   0.20865   0.21215   0.21380
  Beta virt. eigenvalues --    0.22068   0.22293   0.22601   0.22892   0.22952
  Beta virt. eigenvalues --    0.23662   0.23843   0.24081   0.24504   0.24745
  Beta virt. eigenvalues --    0.25362   0.25476   0.25795   0.26065   0.26254
  Beta virt. eigenvalues --    0.26439   0.26928   0.27088   0.27250   0.27986
  Beta virt. eigenvalues --    0.28343   0.28415   0.28732   0.28954   0.29581
  Beta virt. eigenvalues --    0.29678   0.30010   0.30154   0.30214   0.30470
  Beta virt. eigenvalues --    0.30687   0.31032   0.31301   0.31702   0.31797
  Beta virt. eigenvalues --    0.32123   0.32444   0.32694   0.32837   0.33004
  Beta virt. eigenvalues --    0.33293   0.33482   0.33746   0.34083   0.34524
  Beta virt. eigenvalues --    0.34797   0.35038   0.35131   0.35647   0.35702
  Beta virt. eigenvalues --    0.36142   0.36603   0.36681   0.36745   0.36882
  Beta virt. eigenvalues --    0.37183   0.37405   0.37627   0.37905   0.37974
  Beta virt. eigenvalues --    0.38519   0.38569   0.38703   0.39130   0.39500
  Beta virt. eigenvalues --    0.39888   0.39902   0.40039   0.40273   0.40585
  Beta virt. eigenvalues --    0.41018   0.41203   0.41419   0.41515   0.41843
  Beta virt. eigenvalues --    0.42057   0.42100   0.42289   0.42750   0.42909
  Beta virt. eigenvalues --    0.43119   0.43303   0.43354   0.43759   0.44099
  Beta virt. eigenvalues --    0.44262   0.44959   0.45015   0.45132   0.45799
  Beta virt. eigenvalues --    0.45896   0.46244   0.46557   0.46783   0.47071
  Beta virt. eigenvalues --    0.47458   0.47836   0.47995   0.48514   0.48824
  Beta virt. eigenvalues --    0.48925   0.49388   0.49561   0.50125   0.50577
  Beta virt. eigenvalues --    0.50775   0.51533   0.51684   0.51924   0.52176
  Beta virt. eigenvalues --    0.52787   0.52893   0.53244   0.53719   0.53992
  Beta virt. eigenvalues --    0.54401   0.54567   0.54714   0.55238   0.55478
  Beta virt. eigenvalues --    0.55992   0.56123   0.56531   0.56858   0.56954
  Beta virt. eigenvalues --    0.57270   0.58139   0.58215   0.58362   0.58692
  Beta virt. eigenvalues --    0.58934   0.59145   0.59486   0.59818   0.60111
  Beta virt. eigenvalues --    0.60495   0.60819   0.61046   0.61407   0.61960
  Beta virt. eigenvalues --    0.62275   0.62463   0.62919   0.63242   0.63634
  Beta virt. eigenvalues --    0.63772   0.63938   0.64264   0.64853   0.64954
  Beta virt. eigenvalues --    0.65593   0.65679   0.66122   0.66587   0.66680
  Beta virt. eigenvalues --    0.67687   0.67916   0.68353   0.68713   0.68861
  Beta virt. eigenvalues --    0.69401   0.69925   0.70309   0.70617   0.71072
  Beta virt. eigenvalues --    0.71545   0.71899   0.72527   0.72773   0.73016
  Beta virt. eigenvalues --    0.73791   0.74569   0.74644   0.75083   0.75696
  Beta virt. eigenvalues --    0.75778   0.76079   0.76496   0.77492   0.77583
  Beta virt. eigenvalues --    0.77818   0.78490   0.78847   0.79268   0.79491
  Beta virt. eigenvalues --    0.79775   0.79995   0.80718   0.80859   0.81731
  Beta virt. eigenvalues --    0.82279   0.82485   0.82804   0.83381   0.83797
  Beta virt. eigenvalues --    0.84037   0.84688   0.84871   0.85250   0.85654
  Beta virt. eigenvalues --    0.86015   0.86283   0.86995   0.87193   0.87421
  Beta virt. eigenvalues --    0.87947   0.88156   0.88502   0.88887   0.89204
  Beta virt. eigenvalues --    0.89568   0.90023   0.90321   0.90680   0.91030
  Beta virt. eigenvalues --    0.91513   0.91871   0.92218   0.92271   0.92533
  Beta virt. eigenvalues --    0.92991   0.93059   0.93498   0.93872   0.94100
  Beta virt. eigenvalues --    0.94272   0.95044   0.95189   0.96117   0.96557
  Beta virt. eigenvalues --    0.96857   0.97238   0.98162   0.98569   0.99502
  Beta virt. eigenvalues --    0.99690   0.99826   1.00586   1.00828   1.01250
  Beta virt. eigenvalues --    1.01836   1.02164   1.03506   1.04411   1.04892
  Beta virt. eigenvalues --    1.05530   1.06067   1.06311   1.07016   1.07220
  Beta virt. eigenvalues --    1.07439   1.07681   1.08135   1.08811   1.09290
  Beta virt. eigenvalues --    1.09575   1.10038   1.10605   1.10845   1.11176
  Beta virt. eigenvalues --    1.11851   1.12112   1.12639   1.13226   1.13500
  Beta virt. eigenvalues --    1.14754   1.15014   1.15219   1.15256   1.15625
  Beta virt. eigenvalues --    1.16380   1.16636   1.16746   1.17527   1.17765
  Beta virt. eigenvalues --    1.18144   1.18265   1.18698   1.19224   1.19299
  Beta virt. eigenvalues --    1.20048   1.20456   1.20682   1.21857   1.22468
  Beta virt. eigenvalues --    1.23170   1.24459   1.24826   1.25222   1.25551
  Beta virt. eigenvalues --    1.26275   1.26647   1.27962   1.28423   1.29289
  Beta virt. eigenvalues --    1.30203   1.30591   1.31191   1.31577   1.32208
  Beta virt. eigenvalues --    1.32434   1.32710   1.33102   1.34141   1.34551
  Beta virt. eigenvalues --    1.35213   1.35870   1.35948   1.36612   1.36915
  Beta virt. eigenvalues --    1.37044   1.37360   1.37748   1.38115   1.38799
  Beta virt. eigenvalues --    1.39273   1.39526   1.40119   1.40366   1.40566
  Beta virt. eigenvalues --    1.40816   1.41071   1.41565   1.41676   1.42005
  Beta virt. eigenvalues --    1.42239   1.42903   1.43182   1.43625   1.43847
  Beta virt. eigenvalues --    1.44637   1.44716   1.45058   1.45291   1.45600
  Beta virt. eigenvalues --    1.45777   1.45903   1.46237   1.46435   1.46775
  Beta virt. eigenvalues --    1.47016   1.47376   1.47555   1.47845   1.48135
  Beta virt. eigenvalues --    1.48138   1.48625   1.48938   1.49293   1.49408
  Beta virt. eigenvalues --    1.50006   1.50462   1.50509   1.51042   1.51416
  Beta virt. eigenvalues --    1.51731   1.51887   1.52180   1.52898   1.53059
  Beta virt. eigenvalues --    1.53328   1.53440   1.53878   1.54326   1.54541
  Beta virt. eigenvalues --    1.54888   1.55410   1.55902   1.55995   1.56538
  Beta virt. eigenvalues --    1.56770   1.56958   1.57284   1.57981   1.58005
  Beta virt. eigenvalues --    1.58321   1.58975   1.59352   1.59628   1.59844
  Beta virt. eigenvalues --    1.60159   1.60797   1.61227   1.61293   1.61905
  Beta virt. eigenvalues --    1.62154   1.62844   1.63125   1.63536   1.63980
  Beta virt. eigenvalues --    1.64542   1.65151   1.65591   1.66497   1.67353
  Beta virt. eigenvalues --    1.67686   1.68021   1.68631   1.68886   1.69473
  Beta virt. eigenvalues --    1.70101   1.70869   1.71199   1.71293   1.72028
  Beta virt. eigenvalues --    1.72622   1.73056   1.73250   1.73706   1.74733
  Beta virt. eigenvalues --    1.74952   1.75690   1.76060   1.76509   1.77202
  Beta virt. eigenvalues --    1.77481   1.78068   1.78599   1.78888   1.79155
  Beta virt. eigenvalues --    1.79607   1.81339   1.81550   1.82014   1.82635
  Beta virt. eigenvalues --    1.83304   1.84184   1.84722   1.84810   1.84970
  Beta virt. eigenvalues --    1.85338   1.85944   1.86386   1.86747   1.87089
  Beta virt. eigenvalues --    1.87871   1.88334   1.88950   1.89461   1.89846
  Beta virt. eigenvalues --    1.90095   1.90359   1.90838   1.91317   1.91951
  Beta virt. eigenvalues --    1.92507   1.93465   1.93670   1.94616   1.94969
  Beta virt. eigenvalues --    1.95321   1.95647   1.96039   1.96886   1.97589
  Beta virt. eigenvalues --    1.97818   1.98684   1.99051   1.99256   1.99795
  Beta virt. eigenvalues --    2.00597   2.01055   2.01220   2.01720   2.02197
  Beta virt. eigenvalues --    2.02290   2.03037   2.03753   2.04590   2.04769
  Beta virt. eigenvalues --    2.05891   2.06289   2.06609   2.07513   2.07575
  Beta virt. eigenvalues --    2.08684   2.08983   2.09408   2.10185   2.10908
  Beta virt. eigenvalues --    2.11162   2.12335   2.12382   2.13394   2.13849
  Beta virt. eigenvalues --    2.14316   2.14559   2.15090   2.15887   2.16230
  Beta virt. eigenvalues --    2.16474   2.16970   2.17618   2.17844   2.18449
  Beta virt. eigenvalues --    2.18885   2.19305   2.19712   2.20142   2.20638
  Beta virt. eigenvalues --    2.20847   2.21795   2.22188   2.22629   2.23081
  Beta virt. eigenvalues --    2.23779   2.24434   2.25454   2.25527   2.25862
  Beta virt. eigenvalues --    2.26037   2.26352   2.26888   2.27037   2.27735
  Beta virt. eigenvalues --    2.28134   2.28265   2.28707   2.28961   2.29330
  Beta virt. eigenvalues --    2.29899   2.30421   2.30663   2.31765   2.31965
  Beta virt. eigenvalues --    2.32401   2.32930   2.33341   2.33855   2.34237
  Beta virt. eigenvalues --    2.34931   2.35783   2.36170   2.36580   2.36810
  Beta virt. eigenvalues --    2.37223   2.37552   2.38082   2.38894   2.39301
  Beta virt. eigenvalues --    2.40066   2.40390   2.41689   2.42106   2.42630
  Beta virt. eigenvalues --    2.42964   2.43078   2.43485   2.44334   2.44432
  Beta virt. eigenvalues --    2.44581   2.45239   2.45521   2.45894   2.46257
  Beta virt. eigenvalues --    2.46572   2.46695   2.47462   2.47791   2.48313
  Beta virt. eigenvalues --    2.48818   2.49013   2.49412   2.49790   2.50101
  Beta virt. eigenvalues --    2.50418   2.51015   2.51277   2.51636   2.51761
  Beta virt. eigenvalues --    2.52461   2.53356   2.53611   2.54586   2.54758
  Beta virt. eigenvalues --    2.54966   2.55483   2.56252   2.56922   2.57027
  Beta virt. eigenvalues --    2.57363   2.57700   2.58196   2.58541   2.59070
  Beta virt. eigenvalues --    2.59517   2.59765   2.60686   2.60809   2.61449
  Beta virt. eigenvalues --    2.62430   2.62738   2.63277   2.63508   2.63875
  Beta virt. eigenvalues --    2.64210   2.65305   2.65724   2.66284   2.67180
  Beta virt. eigenvalues --    2.67330   2.67779   2.68173   2.68505   2.68874
  Beta virt. eigenvalues --    2.69612   2.70107   2.70549   2.71152   2.71559
  Beta virt. eigenvalues --    2.71960   2.72347   2.73208   2.73479   2.73778
  Beta virt. eigenvalues --    2.74149   2.74378   2.74862   2.75379   2.75852
  Beta virt. eigenvalues --    2.76180   2.76647   2.76699   2.77198   2.77630
  Beta virt. eigenvalues --    2.78280   2.78973   2.79041   2.79671   2.79913
  Beta virt. eigenvalues --    2.80204   2.80527   2.81265   2.81667   2.82174
  Beta virt. eigenvalues --    2.82613   2.83442   2.83672   2.84318   2.84651
  Beta virt. eigenvalues --    2.85097   2.85529   2.86118   2.86845   2.86938
  Beta virt. eigenvalues --    2.87564   2.87803   2.88687   2.89318   2.89610
  Beta virt. eigenvalues --    2.89973   2.90681   2.90901   2.91712   2.92211
  Beta virt. eigenvalues --    2.92929   2.93251   2.93468   2.93948   2.94101
  Beta virt. eigenvalues --    2.94640   2.94758   2.95576   2.95907   2.96506
  Beta virt. eigenvalues --    2.96546   2.96680   2.97063   2.97650   2.98097
  Beta virt. eigenvalues --    2.98215   2.98302   2.98725   2.99659   3.00168
  Beta virt. eigenvalues --    3.00192   3.00681   3.00747   3.01404   3.01690
  Beta virt. eigenvalues --    3.02085   3.02960   3.03274   3.03562   3.03695
  Beta virt. eigenvalues --    3.03995   3.04397   3.04872   3.05450   3.05676
  Beta virt. eigenvalues --    3.06074   3.06699   3.07199   3.07246   3.07367
  Beta virt. eigenvalues --    3.07799   3.07946   3.08574   3.08699   3.09233
  Beta virt. eigenvalues --    3.09437   3.09558   3.10094   3.10319   3.10560
  Beta virt. eigenvalues --    3.11043   3.11438   3.11815   3.12506   3.12771
  Beta virt. eigenvalues --    3.13222   3.13346   3.13719   3.14001   3.14043
  Beta virt. eigenvalues --    3.14285   3.14658   3.15197   3.15621   3.15883
  Beta virt. eigenvalues --    3.16091   3.16616   3.16932   3.17603   3.17711
  Beta virt. eigenvalues --    3.18444   3.18678   3.19150   3.19319   3.19810
  Beta virt. eigenvalues --    3.19886   3.20236   3.20396   3.20624   3.21036
  Beta virt. eigenvalues --    3.21248   3.21700   3.21911   3.22749   3.22765
  Beta virt. eigenvalues --    3.22957   3.23275   3.23644   3.23729   3.23781
  Beta virt. eigenvalues --    3.23982   3.24747   3.24879   3.25223   3.25302
  Beta virt. eigenvalues --    3.25701   3.25852   3.26180   3.26296   3.26717
  Beta virt. eigenvalues --    3.26877   3.27095   3.27484   3.27874   3.28120
  Beta virt. eigenvalues --    3.28354   3.28905   3.29494   3.29753   3.29924
  Beta virt. eigenvalues --    3.30592   3.30738   3.31424   3.31653   3.32034
  Beta virt. eigenvalues --    3.32220   3.33212   3.33591   3.33731   3.34007
  Beta virt. eigenvalues --    3.34572   3.35071   3.35380   3.35871   3.36286
  Beta virt. eigenvalues --    3.36997   3.37270   3.38195   3.38569   3.38938
  Beta virt. eigenvalues --    3.39361   3.39739   3.40874   3.41428   3.41720
  Beta virt. eigenvalues --    3.42393   3.43236   3.43622   3.44145   3.44819
  Beta virt. eigenvalues --    3.45756   3.45924   3.46468   3.47007   3.47247
  Beta virt. eigenvalues --    3.47991   3.48346   3.48935   3.49332   3.49682
  Beta virt. eigenvalues --    3.49999   3.50676   3.51042   3.52109   3.52639
  Beta virt. eigenvalues --    3.52828   3.53938   3.54207   3.54796   3.55160
  Beta virt. eigenvalues --    3.55450   3.56208   3.56925   3.57421   3.58210
  Beta virt. eigenvalues --    3.58825   3.59270   3.59594   3.60019   3.60286
  Beta virt. eigenvalues --    3.60626   3.61075   3.61586   3.61743   3.62114
  Beta virt. eigenvalues --    3.62249   3.62427   3.63360   3.64176   3.64470
  Beta virt. eigenvalues --    3.64801   3.65598   3.66090   3.66539   3.67217
  Beta virt. eigenvalues --    3.67937   3.68846   3.69901   3.70294   3.70939
  Beta virt. eigenvalues --    3.71872   3.72593   3.73191   3.73768   3.74175
  Beta virt. eigenvalues --    3.74616   3.74754   3.76090   3.76163   3.77023
  Beta virt. eigenvalues --    3.77211   3.78365   3.78930   3.79430   3.80035
  Beta virt. eigenvalues --    3.81192   3.81611   3.82053   3.82667   3.83515
  Beta virt. eigenvalues --    3.84548   3.85286   3.85803   3.86750   3.87254
  Beta virt. eigenvalues --    3.87585   3.88885   3.89252   3.90067   3.90330
  Beta virt. eigenvalues --    3.91054   3.91536   3.91866   3.92990   3.93366
  Beta virt. eigenvalues --    3.93588   3.93984   3.94892   3.95874   3.96573
  Beta virt. eigenvalues --    3.97680   3.97987   3.98095   3.99681   3.99911
  Beta virt. eigenvalues --    4.00777   4.01476   4.02861   4.03839   4.04268
  Beta virt. eigenvalues --    4.04506   4.05306   4.05866   4.06395   4.06763
  Beta virt. eigenvalues --    4.07753   4.07932   4.08740   4.09134   4.09286
  Beta virt. eigenvalues --    4.09868   4.10374   4.11076   4.12114   4.13098
  Beta virt. eigenvalues --    4.13376   4.13920   4.14477   4.14991   4.15461
  Beta virt. eigenvalues --    4.15946   4.16914   4.17673   4.18303   4.19171
  Beta virt. eigenvalues --    4.19681   4.20570   4.21349   4.21771   4.21939
  Beta virt. eigenvalues --    4.22577   4.23350   4.24261   4.24742   4.25445
  Beta virt. eigenvalues --    4.26762   4.27802   4.28325   4.28834   4.28919
  Beta virt. eigenvalues --    4.29827   4.29979   4.30172   4.30903   4.31494
  Beta virt. eigenvalues --    4.32497   4.33156   4.33405   4.33894   4.34355
  Beta virt. eigenvalues --    4.34517   4.35518   4.35853   4.36098   4.36788
  Beta virt. eigenvalues --    4.38999   4.39641   4.41049   4.41413   4.42074
  Beta virt. eigenvalues --    4.42964   4.43605   4.45119   4.45532   4.45860
  Beta virt. eigenvalues --    4.47865   4.49737   4.51078   4.51499   4.52495
  Beta virt. eigenvalues --    4.53617   4.54038   4.55537   4.56257   4.56760
  Beta virt. eigenvalues --    4.56936   4.57257   4.59242   4.60577   4.61448
  Beta virt. eigenvalues --    4.62992   4.64209   4.64653   4.65852   4.66488
  Beta virt. eigenvalues --    4.67755   4.69526   4.69953   4.70838   4.71646
  Beta virt. eigenvalues --    4.72041   4.72624   4.72762   4.73589   4.74269
  Beta virt. eigenvalues --    4.75079   4.75526   4.77990   4.78318   4.80415
  Beta virt. eigenvalues --    4.80883   4.81565   4.82532   4.83585   4.85436
  Beta virt. eigenvalues --    4.85953   4.86681   4.88313   4.89193   4.89861
  Beta virt. eigenvalues --    4.90477   4.90899   4.92765   4.93287   4.94638
  Beta virt. eigenvalues --    4.96122   4.96490   4.98299   4.98934   5.00307
  Beta virt. eigenvalues --    5.02296   5.04698   5.05497   5.06410   5.07464
  Beta virt. eigenvalues --    5.08395   5.08763   5.09786   5.10348   5.12476
  Beta virt. eigenvalues --    5.13010   5.16108   5.22011   5.22674   5.23966
  Beta virt. eigenvalues --    5.24135   5.25269   5.25886   5.26432   5.26889
  Beta virt. eigenvalues --    5.30241   5.34696   5.35632   5.36068   5.37439
  Beta virt. eigenvalues --    5.37830   5.38028   5.40051   5.46295   5.46665
  Beta virt. eigenvalues --    5.48142   5.48613   5.50401   5.52987   5.54917
  Beta virt. eigenvalues --    5.55481   5.57756   5.61338   5.61934   5.62384
  Beta virt. eigenvalues --    5.63445   5.64762   5.71076   5.74622   5.75929
  Beta virt. eigenvalues --    5.87113   5.88061   5.89085   5.92798   5.96295
  Beta virt. eigenvalues --    5.96984   5.98420   6.04678   6.12255   6.19068
  Beta virt. eigenvalues --    6.20427   6.27041   8.90437   9.04268   9.23824
  Beta virt. eigenvalues --   19.33439  22.18048  22.24554  22.25723  22.35960
  Beta virt. eigenvalues --   22.36534  22.43457  22.44946  22.51776  22.52518
  Beta virt. eigenvalues --   22.67448  22.75966  22.77136  22.79355  22.80893
  Beta virt. eigenvalues --   22.83364  22.84249  22.90417  22.91821  23.01918
  Beta virt. eigenvalues --   23.13262  23.17660  23.17959  23.23600  23.30724
  Beta virt. eigenvalues --   23.39021  23.40166  23.44782  23.63046  23.66629
  Beta virt. eigenvalues --   23.67305  23.75847  32.70367  32.72021  32.73820
  Beta virt. eigenvalues --   32.88106
          Condensed to atoms (all electrons):
          Atomic-Atomic Spin Densities.
 Mulliken charges and spin densities:
               1          2
     1  Fe  -0.214824   1.587842
     2  N   -0.092791  -0.116022
     3  N   -0.049021  -0.134957
     4  N   -0.063068  -0.111985
     5  N   -0.040115  -0.108435
     6  C    0.303144   0.043039
     7  C   -0.061099   0.016141
     8  C   -0.018027   0.019755
     9  C    0.236519   0.033391
    10  C    0.250567   0.042204
    11  C   -0.083417   0.002389
    12  C    0.090076   0.003994
    13  C    0.250931   0.041797
    14  C    0.277348   0.029751
    15  C   -0.049831   0.019236
    16  C    0.066509   0.016480
    17  C    0.238379   0.042884
    18  C    0.241037   0.038670
    19  C   -0.038312   0.002878
    20  C   -0.039527   0.003475
    21  C    0.206008   0.037080
    22  C   -0.437002  -0.117639
    23  H    0.171675   0.005425
    24  C   -0.384000  -0.108168
    25  H    0.171331   0.004759
    26  C   -0.412753  -0.105293
    27  H    0.197349   0.004957
    28  C   -0.418965  -0.111025
    29  H    0.150521   0.004903
    30  C   -0.408058  -0.002081
    31  H    0.139184  -0.000103
    32  H    0.149129   0.001172
    33  H    0.157555   0.001207
    34  C   -0.402632  -0.001709
    35  H    0.155036   0.000859
    36  H    0.147211   0.001107
    37  H    0.140009  -0.000127
    38  C   -0.394621  -0.000467
    39  H    0.153435   0.000248
    40  H    0.149339   0.000242
    41  H    0.146585  -0.000092
    42  C   -0.230636  -0.001049
    43  H    0.143597   0.000124
    44  C   -0.301803   0.001059
    45  H    0.152690   0.000121
    46  H    0.150053  -0.000224
    47  C   -0.439771  -0.001954
    48  H    0.146281   0.000659
    49  H    0.160869   0.001368
    50  H    0.174234   0.000173
    51  C   -0.205226  -0.007832
    52  H    0.128692   0.000567
    53  C   -0.274006   0.012109
    54  H    0.155695  -0.000542
    55  H    0.149718  -0.000490
    56  C   -0.405982  -0.000617
    57  H    0.156358   0.000391
    58  H    0.145476   0.000261
    59  H    0.138894  -0.000153
    60  C   -0.399458  -0.000562
    61  H    0.153681   0.000284
    62  H    0.138948  -0.000138
    63  H    0.143617   0.000314
    64  C   -0.342818   0.005169
    65  H    0.174088  -0.001137
    66  H    0.189463  -0.002204
    67  H    0.164168   0.000134
    68  S    0.052351  -0.097838
    69  H    0.200012   0.004226
 Sum of Mulliken charges =   1.00000   1.00000
 Mulliken charges and spin densities with hydrogens summed into heavy atoms:
               1          2
     1  Fe  -0.214824   1.587842
[...]
  1064. RY*(  13) C  51                  0.00000     3.00241   
  1065. RY*(  14) C  51                  0.00000     2.07146   
  1066. RY*(  15) C  51                  0.00000     2.88274   
  1067. RY*(  16) C  51                  0.00001     1.30295   
  1068. RY*(  17) C  51                  0.00001     2.67508   
  1069. RY*(  18) C  51                  0.00000    21.15999   
  1070. RY*(  19) C  51                  0.00000     3.11180   
  1071. RY*(  20) C  51                  0.00000     3.40536   
  1072. RY*(  21) C  51                  0.00000     3.35710   
  1073. RY*(  22) C  51                  0.00000     3.40560   
  1074. RY*(  23) C  51                  0.00000     3.51354   
  1075. RY*(  24) C  51                  0.00000     3.61100   
  1076. RY*(  25) C  51                  0.00000     3.95459   
  1077. RY*(  26) C  51                  0.00000     3.94280   
  1078. RY*(   1) H  52                  0.00054     0.59806   
  1079. RY*(   2) H  52                  0.00011     2.16640   
  1080. RY*(   3) H  52                  0.00006     2.20397   
  1081. RY*(   4) H  52                  0.00005     2.66459   
  1082. RY*(   5) H  52                  0.00000     3.02469   
  1083. RY*(   1) C  53                  0.00113     1.18114   
  1084. RY*(   2) C  53                  0.00067     0.93868   
  1085. RY*(   3) C  53                  0.00039     0.48911   
  1086. RY*(   4) C  53                  0.00014     0.91688   
  1087. RY*(   5) C  53                  0.00007     0.96745   
  1088. RY*(   6) C  53                  0.00002     1.58017   
  1089. RY*(   7) C  53                  0.00001     1.76631   
  1090. RY*(   8) C  53                  0.00000    21.11932   
  1091. RY*(   9) C  53                  0.00000     1.59324   
  1092. RY*(  10) C  53                  0.00000     2.16773   
  1093. RY*(  11) C  53                  0.00000     3.17113   
  1094. RY*(  12) C  53                  0.00000     1.47039   
  1095. RY*(  13) C  53                  0.00000     2.77681   
  1096. RY*(  14) C  53                  0.00001     1.06580   
  1097. RY*(  15) C  53                  0.00000     2.94015   
  1098. RY*(  16) C  53                  0.00000     1.07100   
  1099. RY*(  17) C  53                  0.00000     3.06742   
  1100. RY*(  18) C  53                  0.00001     1.40396   
  1101. RY*(  19) C  53                  0.00000     2.76135   
  1102. RY*(  20) C  53                  0.00000     3.27855   
  1103. RY*(  21) C  53                  0.00000     3.36412   
  1104. RY*(  22) C  53                  0.00000     3.11406   
  1105. RY*(  23) C  53                  0.00000     3.31340   
  1106. RY*(  24) C  53                  0.00000     3.45252   
  1107. RY*(  25) C  53                  0.00000     3.81833   
  1108. RY*(  26) C  53                  0.00000     3.61996   
  1109. RY*(   1) H  54                  0.00031     1.00500   
  1110. RY*(   2) H  54                  0.00014     1.58682   
  1111. RY*(   3) H  54                  0.00009     2.08938   
  1112. RY*(   4) H  54                  0.00003     2.24744   
  1113. RY*(   5) H  54                  0.00001     3.01951   
  1114. RY*(   1) H  55                  0.00017     1.04094   
  1115. RY*(   2) H  55                  0.00014     1.38574   
  1116. RY*(   3) H  55                  0.00007     2.03933   
  1117. RY*(   4) H  55                  0.00003     2.37763   
  1118. RY*(   5) H  55                  0.00000     2.97894   
  1119. RY*(   1) C  56                  0.00061     1.01660   
  1120. RY*(   2) C  56                  0.00061     0.81790   
  1121. RY*(   3) C  56                  0.00039     1.56008   
  1122. RY*(   4) C  56                  0.00012     1.08961   
  1123. RY*(   5) C  56                  0.00006     1.12367   
  1124. RY*(   6) C  56                  0.00005     1.11041   
  1125. RY*(   7) C  56                  0.00001     2.34134   
  1126. RY*(   8) C  56                  0.00002     1.16625   
  1127. RY*(   9) C  56                  0.00002     1.74134   
  1128. RY*(  10) C  56                  0.00001     1.45519   
  1129. RY*(  11) C  56                  0.00000     2.96070   
  1130. RY*(  12) C  56                  0.00000     1.78982   
  1131. RY*(  13) C  56                  0.00000     3.07663   
  1132. RY*(  14) C  56                  0.00000     1.41531   
  1133. RY*(  15) C  56                  0.00000     2.69830   
  1134. RY*(  16) C  56                  0.00000    21.45119   
  1135. RY*(  17) C  56                  0.00000     2.99590   
  1136. RY*(  18) C  56                  0.00001     1.56233   
  1137. RY*(  19) C  56                  0.00000     2.93009   
  1138. RY*(  20) C  56                  0.00000     3.14464   
  1139. RY*(  21) C  56                  0.00000     3.70574   
  1140. RY*(  22) C  56                  0.00000     3.44478   
  1141. RY*(  23) C  56                  0.00000     3.39753   
  1142. RY*(  24) C  56                  0.00000     3.32988   
  1143. RY*(  25) C  56                  0.00000     3.54157   
  1144. RY*(  26) C  56                  0.00000     3.75176   
  1145. RY*(   1) H  57                  0.00035     0.87754   
  1146. RY*(   2) H  57                  0.00010     1.65592   
  1147. RY*(   3) H  57                  0.00005     2.11398   
  1148. RY*(   4) H  57                  0.00003     2.29241   
  1149. RY*(   5) H  57                  0.00001     2.93447   
  1150. RY*(   1) H  58                  0.00030     0.81797   
  1151. RY*(   2) H  58                  0.00011     1.72503   
  1152. RY*(   3) H  58                  0.00005     2.11760   
  1153. RY*(   4) H  58                  0.00003     2.30853   
  1154. RY*(   5) H  58                  0.00001     2.92630   
  1155. RY*(   1) H  59                  0.00031     0.79553   
  1156. RY*(   2) H  59                  0.00008     1.95099   
  1157. RY*(   3) H  59                  0.00005     2.10354   
  1158. RY*(   4) H  59                  0.00003     2.20036   
  1159. RY*(   5) H  59                  0.00000     2.94160   
  1160. RY*(   1) C  60                  0.00062     0.82696   
  1161. RY*(   2) C  60                  0.00060     1.02153   
  1162. RY*(   3) C  60                  0.00039     1.55494   
  1163. RY*(   4) C  60                  0.00012     1.08722   
  1164. RY*(   5) C  60                  0.00006     1.09469   
  1165. RY*(   6) C  60                  0.00005     1.12520   
  1166. RY*(   7) C  60                  0.00002     2.11893   
  1167. RY*(   8) C  60                  0.00002     1.13183   
  1168. RY*(   9) C  60                  0.00002     1.44662   
  1169. RY*(  10) C  60                  0.00000     1.63801   
  1170. RY*(  11) C  60                  0.00000     2.81095   
  1171. RY*(  12) C  60                  0.00000     1.50997   
  1172. RY*(  13) C  60                  0.00000     2.62327   
  1173. RY*(  14) C  60                  0.00001     2.17937   
  1174. RY*(  15) C  60                  0.00000     3.06652   
  1175. RY*(  16) C  60                  0.00000    21.45804   
  1176. RY*(  17) C  60                  0.00000     3.23268   
  1177. RY*(  18) C  60                  0.00001     1.59339   
  1178. RY*(  19) C  60                  0.00000     2.87248   
  1179. RY*(  20) C  60                  0.00000     3.20405   
  1180. RY*(  21) C  60                  0.00000     3.62640   
  1181. RY*(  22) C  60                  0.00000     3.47866   
  1182. RY*(  23) C  60                  0.00000     3.30296   
  1183. RY*(  24) C  60                  0.00000     3.44035   
  1184. RY*(  25) C  60                  0.00000     3.66752   
  1185. RY*(  26) C  60                  0.00000     3.57069   
  1186. RY*(   1) H  61                  0.00034     0.84913   
  1187. RY*(   2) H  61                  0.00011     1.67302   
  1188. RY*(   3) H  61                  0.00005     2.11162   
  1189. RY*(   4) H  61                  0.00003     2.29307   
  1190. RY*(   5) H  61                  0.00001     2.93442   
  1191. RY*(   1) H  62                  0.00031     0.79114   
  1192. RY*(   2) H  62                  0.00008     1.95495   
  1193. RY*(   3) H  62                  0.00005     2.10125   
  1194. RY*(   4) H  62                  0.00004     2.20514   
  1195. RY*(   5) H  62                  0.00000     2.94295   
  1196. RY*(   1) H  63                  0.00031     0.80852   
  1197. RY*(   2) H  63                  0.00011     1.73182   
  1198. RY*(   3) H  63                  0.00005     2.11570   
  1199. RY*(   4) H  63                  0.00003     2.30784   
  1200. RY*(   5) H  63                  0.00001     2.92851   
  1276. BD*(   1) N   2 - C   6          0.01384     0.36865   
  1277. BD*(   2) N   2 - C   6          0.33265    -0.12314  1322(v),1290(v),1295(v)
                                                    283(g),143(r),10(r),179(g)
                                                    697(v),140(r),142(r),1275(r)
                                                    138(r),139(r)
  1278. BD*(   1) N   2 - C   9          0.01376     0.36616   
  1279. BD*(   1) N   3 - C  10          0.01350     0.37396   
  1280. BD*(   2) N   3 - C  10          0.32478    -0.11991  1295(v),1299(v),1304(v)
                                                    387(g),143(r),203(g),1285(r)
                                                    728(v),139(r),141(r),138(r)
                                                    1275(r),142(r)
  1281. BD*(   1) N   3 - C  13          0.01304     0.37687   
  1282. BD*(   1) N   4 - C  14          0.01394     0.36839   
  1283. BD*(   1) N   4 - C  17          0.01342     0.37003   
  1284. BD*(   1) N   5 - C  18          0.01356     0.37364   
  1285. BD*(   2) N   5 - C  18          0.32535    -0.12106  1313(v),1317(v),1322(v)
                                                    595(g),143(r),255(g),1280(r)
                                                    138(r),139(r),597(g),141(r)
                                                    1275(r),1359(r),163(r)
  1286. BD*(   1) N   5 - C  21          0.01373     0.37049   
  1287. BD*(   1) C   6 - C   7          0.01736     0.37431   
  1288. BD*(   1) C   6 - C  22          0.01031     0.45075   
  1289. BD*(   1) C   7 - C   8          0.01162     0.49417   
  1290. BD*(   2) C   7 - C   8          0.11942    -0.04337  1295(v),1277(v),1331(v)
                                                    1329(v),1328(v),1330(v)
  1291. BD*(   1) C   7 - C  34          0.00803     0.30908   
  1292. BD*(   1) C   8 - C   9          0.01751     0.37048   
  1293. BD*(   1) C   8 - C  30          0.00801     0.30950   
  1294. BD*(   1) C   9 - C  24          0.01020     0.45478   
  1295. BD*(   2) C   9 - C  24          0.19749    -0.07677  1280(v),1290(v),1277(v)
                                                    1322(r),728(g),1304(r)
                                                    363(g),143(r)
  1296. BD*(   1) C  10 - C  11          0.01715     0.38037   
  1297. BD*(   1) C  10 - C  24          0.01042     0.45119   
  1298. BD*(   1) C  11 - C  12          0.01127     0.48451   
  1299. BD*(   2) C  11 - C  12          0.12930    -0.04326  1338(v),1304(v),1280(v)
                                                    1333(v),1334(v),1336(v)
  1300. BD*(   1) C  11 - C  38          0.00773     0.31330   
  1301. BD*(   1) C  12 - C  13          0.01888     0.37157   
  1302. BD*(   1) C  12 - C  42          0.01319     0.38885   
  1303. BD*(   1) C  13 - C  26          0.01007     0.45886   
  1304. BD*(   2) C  13 - C  26          0.19376    -0.07207  10(v),1299(v),1280(v),760(g)
                                                    1295(r),1313(r),465(g)
                                                    467(g),143(r)
  1305. BD*(   1) C  14 - C  15          0.01671     0.38094   
  1306. BD*(   1) C  14 - C  26          0.01055     0.45440   
  1307. BD*(   1) C  15 - C  16          0.01273     0.48055   
  1308. BD*(   2) C  15 - C  16          0.13751    -0.04584  1346(v),1313(v),10(v)
                                                    1342(v),1341(v)
  1309. BD*(   1) C  15 - C  47          0.00760     0.31400   
  1310. BD*(   1) C  16 - C  17          0.01703     0.36908   
  1311. BD*(   1) C  16 - C  51          0.01332     0.38947   
  1312. BD*(   1) C  17 - C  28          0.01028     0.45203   
  1313. BD*(   2) C  17 - C  28          0.20259    -0.07778  1285(v),1308(v),1322(r)
                                                    10(v),790(g),1304(r),571(g)
                                                    143(r)
  1314. BD*(   1) C  18 - C  19          0.01764     0.37446   
  1315. BD*(   1) C  18 - C  28          0.01052     0.45436   
  1316. BD*(   1) C  19 - C  20          0.01162     0.49484   
  1317. BD*(   2) C  19 - C  20          0.11575    -0.04220  1322(v),1285(v),1349(v)
                                                    1352(v),1354(v),1350(v)
  1318. BD*(   1) C  19 - C  56          0.00802     0.31166   
  1319. BD*(   1) C  20 - C  21          0.01756     0.37525   
  1320. BD*(   1) C  20 - C  60          0.00808     0.31086   
  1321. BD*(   1) C  21 - C  22          0.01035     0.45287   
  1322. BD*(   2) C  21 - C  22          0.20444    -0.07796  1277(v),1317(v),1313(r)
                                                    1285(v),1295(r),697(g)
                                                    675(g),143(r),1355(r)
  1323. BD*(   1) C  22 - H  23          0.00603     0.31812   
  1324. BD*(   1) C  24 - H  25          0.00598     0.31733   
  1325. BD*(   1) C  26 - H  27          0.00710     0.32578   
  1326. BD*(   1) C  28 - H  29          0.00622     0.31863   
  1327. BD*(   1) C  30 - H  31          0.00299     0.29708   
  1328. BD*(   1) C  30 - H  32          0.00431     0.28324   
  1329. BD*(   1) C  30 - H  33          0.00435     0.28495   
  1330. BD*(   1) C  34 - H  35          0.00414     0.28523   
  1331. BD*(   1) C  34 - H  36          0.00454     0.28213   
  1332. BD*(   1) C  34 - H  37          0.00295     0.29714   
  1333. BD*(   1) C  38 - H  39          0.00468     0.28592   
  1334. BD*(   1) C  38 - H  40          0.00433     0.28756   
  1335. BD*(   1) C  38 - H  41          0.00267     0.30069   
  1336. BD*(   1) C  42 - H  43          0.01034     0.32983   
  1337. BD*(   1) C  42 - C  44          0.00340     0.52792   
  1338. BD*(   2) C  42 - C  44          0.02588    -0.02719   
  1339. BD*(   1) C  44 - H  45          0.00544     0.33936   
  1340. BD*(   1) C  44 - H  46          0.00405     0.34876   
  1341. BD*(   1) C  47 - H  48          0.00411     0.29300   
  1342. BD*(   1) C  47 - H  49          0.00505     0.28473   
  1343. BD*(   1) C  47 - H  50          0.00364     0.30077   
  1344. BD*(   1) C  51 - H  52          0.01021     0.32575   
  1345. BD*(   1) C  51 - C  53          0.00363     0.53499   
  1346. BD*(   2) C  51 - C  53          0.02744    -0.03596   
  1347. BD*(   1) C  53 - H  54          0.00506     0.34266   
  1348. BD*(   1) C  53 - H  55          0.00380     0.34816   
  1349. BD*(   1) C  56 - H  57          0.00482     0.28508   
  1350. BD*(   1) C  56 - H  58          0.00432     0.28500   
  1351. BD*(   1) C  56 - H  59          0.00299     0.29805   
  1352. BD*(   1) C  60 - H  61          0.00476     0.28468   
  1353. BD*(   1) C  60 - H  62          0.00297     0.29792   
  1354. BD*(   1) C  60 - H  63          0.00443     0.28350   
       -------------------------------
              Total Lewis  114.67570  ( 97.0315%)
        Valence non-Lewis    3.27370  (  2.7700%)
        Rydberg non-Lewis    0.23458  (  0.1985%)
       -------------------------------
            Total unit  2  118.18398  (100.0000%)
           Charge unit  2   -0.18398
 Unable to Open any file for archive entry.
 1\1\GINC-BGN1024\SP\UAPFD\def2TZVP\C31H32Fe1N4S1(1+,2)\BECSLEIP\29-Sep
 -2024\0\\# apfd/def2TZVP guess=read scf=maxcycle=999 geom=check pop=nb
 o\\5g6m_III_D\\1,2\Fe,0,-0.2061773374,17.2289663941,22.1840453534\N,0,
 0.3272289409,15.4597724558,22.9513646145\N,0,-1.0178868648,17.76648211
 08,23.9427695724\N,0,-0.330757229,19.1364075556,21.6155041551\N,0,0.93
 75371595,16.8099598654,20.5940663137\C,0,1.2038431874,14.5447923423,22
 .4477462926\C,0,1.4599927415,13.4858031096,23.3935130972\C,0,0.7130915
 996,13.7720681799,24.4925221342\C,0,0.0463251576,15.0243402861,24.2148
 220507\C,0,-1.2521099085,16.940362341,25.0000197039\C,0,-1.9235359059,
 17.6397378579,26.0642123255\C,0,-2.0803768729,18.9291133535,25.6388750
 857\C,0,-1.4952200345,18.985351518,24.3143756609\C,0,-0.7801446649,20.
 212079505,22.3257841341\C,0,-0.6818783704,21.423132857,21.5560723562\C
 ,0,-0.1240441805,21.0708719068,20.3569828609\C,0,0.1188512289,19.64469
 49492,20.4335751538\C,0,1.1095424805,17.6085027696,19.5030375837\C,0,1
 .8829473992,16.9342585651,18.4862957334\C,0,2.201223835,15.7136753381,
 18.9958673181\C,0,1.60216368,15.6532321368,20.308299706\C,0,1.74233743
 5,14.5873959756,21.1750789004\H,0,2.355129427,13.758198992,20.85807961
 89\C,0,-0.8032290212,15.6380718936,25.1116335563\H,0,-1.0151434891,15.
 1187869,26.0332273816\C,0,-1.364190792,20.1428084347,23.5766337661\H,0
 ,-1.7079833187,21.0609330305,24.0250533763\C,0,0.6887408525,18.9196337
 673,19.4049225499\H,0,0.9167842757,19.4452104551,18.4909403663\C,0,0.5
 980319312,13.0239479946,25.7754634594\H,0,1.2085942287,12.1249407933,2
 5.7525845992\H,0,-0.4361798462,12.7311556199,25.956971751\H,0,0.927156
 0366,13.6418492092,26.6107490485\C,0,2.3728971561,12.3365144292,23.139
 3228485\H,0,3.3673930303,12.6913446603,22.8711641772\H,0,1.9993716805,
 11.7230085855,22.3189155471\H,0,2.4589466857,11.7098488368,24.02287434
 81\C,0,-2.3512188917,17.0296717977,27.3532791964\H,0,-1.487408619,16.6
 731975232,27.9155480357\H,0,-3.0117026688,16.1812818132,27.1743130531\
 H,0,-2.8847552285,17.757247215,27.9595340226\C,0,-2.7107742246,20.0167
 763608,26.3614878023\H,0,-2.5038741436,20.0457641035,27.4257078118\C,0
 ,-3.5265136437,20.9221934721,25.8351401859\H,0,-3.8059615754,20.903969
 7418,24.7953726035\H,0,-3.9655189006,21.7010954655,26.436157272\C,0,-1
 .0514051063,22.7774756961,22.0481502754\H,0,-0.7799437051,22.893284727
 1,23.0961676008\H,0,-2.1261541662,22.9420396221,21.9576452954\H,0,-0.5
 36801237,23.5395919445,21.46656225\C,0,0.2203097278,21.9111476444,19.2
 304096641\H,0,1.1135420739,21.6271086486,18.6867077695\C,0,-0.47040868
 63,22.9731309103,18.8300543679\H,0,-1.3891201952,23.2696375083,19.3053
 286513\H,0,-0.153334381,23.5671017595,17.9893617417\C,0,2.2475245096,1
 7.5336886438,17.1726072693\H,0,2.9023168595,18.3939043169,17.313867566
 8\H,0,1.3562621955,17.870048123,16.6431253978\H,0,2.7659158796,16.8097
 035272,16.5490374992\C,0,3.0060198298,14.616006659,18.3906885892\H,0,3
 .9065767935,14.4353056861,18.9780595434\H,0,3.3054310839,14.8708435912
 ,17.3773263986\H,0,2.4320052397,13.6897789401,18.3582849542\C,0,-1.910
 4758965,14.9049601833,20.5031689494\H,0,-0.9235442991,14.8448025439,20
 .0573239052\H,0,-2.6879501597,14.6806540295,19.7799162589\H,0,-1.97398
 26316,14.2250411266,21.3461324144\S,0,-2.1786679557,16.5869569917,21.1
 740126811\H,0,-2.046660191,17.2053347086,19.9911544721\\Version=ES64L-
 G16RevC.02\State=2-A\HF=-3080.5570504\S2=1.163155\S2-1=0.\S2A=0.781198
 \RMSD=2.055e-09\Dipole=-0.454886,-1.0498,-0.6827939\Quadrupole=-21.602
 7847,13.0604532,8.5423316,-12.6844673,-12.3396574,-4.8036201\PG=C01 [X
 (C31H32Fe1N4S1)]\\@
 The archive entry for this job was punched.


 WHEN YOU'VE SEEN ONE NUCLEAR WAR YOU'VE SEEN THEM ALL.
 Job cpu time:       1 days 17 hours 58 minutes 56.3 seconds.
 Elapsed time:       0 days  0 hours 39 minutes 10.5 seconds.
 File lengths (MBytes):  RWF=   1706 Int=      0 D2E=      0 Chk=    156 Scr=      1
 Normal termination of Gaussian 16 at Sun Sep 29 11:37:36 2024.
