 Entering Gaussian System, Link 0=g16
 Input=5g6n12.com
 Output=5g6n12.log
 Initial command:
 /sw/chem/gaussian/g16_C02/a100/g16/l1.exe "/local/becsleip_8033285/Gau-2432644.inp" -scrdir="/local/becsleip_8033285/"
 Entering Link 1 = /sw/chem/gaussian/g16_C02/a100/g16/l1.exe PID=   2432645.
  
 Copyright (c) 1988-2021, Gaussian, Inc.  All Rights Reserved.
  
 This is part of the Gaussian(R) 16 program.  It is based on
 the Gaussian(R) 09 system (copyright 2009, Gaussian, Inc.),
 the Gaussian(R) 03 system (copyright 2003, Gaussian, Inc.),
 the Gaussian(R) 98 system (copyright 1998, Gaussian, Inc.),
 the Gaussian(R) 94 system (copyright 1995, Gaussian, Inc.),
 the Gaussian 92(TM) system (copyright 1992, Gaussian, Inc.),
 the Gaussian 90(TM) system (copyright 1990, Gaussian, Inc.),
 the Gaussian 88(TM) system (copyright 1988, Gaussian, Inc.),
 the Gaussian 86(TM) system (copyright 1986, Carnegie Mellon
 University), and the Gaussian 82(TM) system (copyright 1983,
 Carnegie Mellon University). Gaussian is a federally registered
 trademark of Gaussian, Inc.
  
 This software contains proprietary and confidential information,
 including trade secrets, belonging to Gaussian, Inc.
  
 This software is provided under written license and may be
 used, copied, transmitted, or stored only in accord with that
 written license.
  
 The following legend is applicable only to US Government
 contracts under FAR:
  
                    RESTRICTED RIGHTS LEGEND
  
 Use, reproduction and disclosure by the US Government is
 subject to restrictions as set forth in subparagraphs (a)
 and (c) of the Commercial Computer Software - Restricted
 Rights clause in FAR 52.227-19.
  
 Gaussian, Inc.
 340 Quinnipiac St., Bldg. 40, Wallingford CT 06492
  
  
 ---------------------------------------------------------------
 Warning -- This program may not be used in any manner that
 competes with the business of Gaussian, Inc. or will provide
 assistance to any competitor of Gaussian, Inc.  The licensee
 of this program is prohibited from giving any competitor of
 Gaussian, Inc. access to this program.  By using this program,
 the user acknowledges that Gaussian, Inc. is engaged in the
 business of creating and licensing software in the field of
 computational chemistry and represents and warrants to the
 licensee that it is not a competitor of Gaussian, Inc. and that
 it will not use this program in any manner prohibited above.
 ---------------------------------------------------------------
  

 Cite this work as:
 Gaussian 16, Revision C.02,
 M. J. Frisch, G. W. Trucks, H. B. Schlegel, G. E. Scuseria, 
 M. A. Robb, J. R. Cheeseman, G. Scalmani, V. Barone, 
 G. A. Petersson, H. Nakatsuji, X. Li, M. Caricato, A. V. Marenich, 
 J. Bloino, B. G. Janesko, R. Gomperts, B. Mennucci, H. P. Hratchian, 
 J. V. Ortiz, A. F. Izmaylov, J. L. Sonnenberg, D. Williams-Young, 
 F. Ding, F. Lipparini, F. Egidi, J. Goings, B. Peng, A. Petrone, 
 T. Henderson, D. Ranasinghe, V. G. Zakrzewski, J. Gao, N. Rega, 
 G. Zheng, W. Liang, M. Hada, M. Ehara, K. Toyota, R. Fukuda, 
 J. Hasegawa, M. Ishida, T. Nakajima, Y. Honda, O. Kitao, H. Nakai, 
 T. Vreven, K. Throssell, J. A. Montgomery, Jr., J. E. Peralta, 
 F. Ogliaro, M. J. Bearpark, J. J. Heyd, E. N. Brothers, K. N. Kudin, 
 V. N. Staroverov, T. A. Keith, R. Kobayashi, J. Normand, 
 K. Raghavachari, A. P. Rendell, J. C. Burant, S. S. Iyengar, 
 J. Tomasi, M. Cossi, J. M. Millam, M. Klene, C. Adamo, R. Cammi, 
 J. W. Ochterski, R. L. Martin, K. Morokuma, O. Farkas, 
 J. B. Foresman, and D. J. Fox, Gaussian, Inc., Wallingford CT, 2019.
 
 ******************************************
 Gaussian 16:  ES64L-G16RevC.02  7-Dec-2021
                29-Sep-2024 
 ******************************************
 %mem=16GB
 %CPU=0-71
 SetSPE:  set environment variable "OMP_PROC_BIND" = "true"
 SetSPE:  set environment variable "OMP_PLACES" = "{0},{1},{2},{3},{4},{5},{6},{7},{8},{9},{10},{11},{12},{13},{14},{15},{16},{17},{18},{19},{20},{21},{22},{23},{24},{25},{26},{27},{28},{29},{30},{31},{32},{33},{34},{35},{36},{37},{38},{39},{40},{41},{42},{43},{44},{45},{46},{47},{48},{49},{50},{51},{52},{53},{54},{55},{56},{57},{58},{59},{60},{61},{62},{63},{64},{65},{66},{67},{68},{69},{70},{71}"
 Will use up to   72 processors via shared memory.
 %gpucpu=0,1,2,3=0,1,2,3
 Will use    4 GPUs:
 Thread  CPU   GPU
      0    0     0
      1    1     1
      2    2     2
      3    3     3
      4    4    -1
      5    5    -1
      6    6    -1
      7    7    -1
      8    8    -1
      9    9    -1
     10   10    -1
     11   11    -1
     12   12    -1
     13   13    -1
     14   14    -1
     15   15    -1
     16   16    -1
     17   17    -1
     18   18    -1
     19   19    -1
     20   20    -1
     21   21    -1
     22   22    -1
     23   23    -1
     24   24    -1
     25   25    -1
     26   26    -1
     27   27    -1
     28   28    -1
     29   29    -1
     30   30    -1
     31   31    -1
     32   32    -1
     33   33    -1
     34   34    -1
     35   35    -1
     36   36    -1
     37   37    -1
     38   38    -1
     39   39    -1
     40   40    -1
     41   41    -1
     42   42    -1
     43   43    -1
     44   44    -1
     45   45    -1
     46   46    -1
     47   47    -1
     48   48    -1
     49   49    -1
     50   50    -1
     51   51    -1
     52   52    -1
     53   53    -1
     54   54    -1
     55   55    -1
     56   56    -1
     57   57    -1
     58   58    -1
     59   59    -1
     60   60    -1
     61   61    -1
     62   62    -1
     63   63    -1
     64   64    -1
     65   65    -1
     66   66    -1
     67   67    -1
     68   68    -1
     69   69    -1
     70   70    -1
     71   71    -1
 SetGPE:  set environment variable "OMP_PROC_BIND" = "true"
 SetGPE:  set environment variable "OMP_PLACES" = "{0},{1},{2},{3},{4},{5},{6},{7},{8},{9},{10},{11},{12},{13},{14},{15},{16},{17},{18},{19},{20},{21},{22},{23},{24},{25},{26},{27},{28},{29},{30},{31},{32},{33},{34},{35},{36},{37},{38},{39},{40},{41},{42},{43},{44},{45},{46},{47},{48},{49},{50},{51},{52},{53},{54},{55},{56},{57},{58},{59},{60},{61},{62},{63},{64},{65},{66},{67},{68},{69},{70},{71}"
 %oldchk=5g6n_II_Sre.chk
 %chk=5g6n_III_Dn.chk
 Properties for Device   0
 Minimum vector length:                              32
 Maximum vector length:                            1024
 Number of SMPs:                                    108
 Maximum number of threads per SMP:                2048
 Number of ASync Engines:                             5
 Memory:                                           9207742464
 Properties for Device   1
 Minimum vector length:                              32
 Maximum vector length:                            1024
 Number of SMPs:                                    108
 Maximum number of threads per SMP:                2048
 Number of ASync Engines:                             5
 Memory:                                           9207742464
 Properties for Device   2
 Minimum vector length:                              32
 Maximum vector length:                            1024
 Number of SMPs:                                    108
 Maximum number of threads per SMP:                2048
 Number of ASync Engines:                             5
 Memory:                                           9207742464
 Properties for Device   3
 Minimum vector length:                              32
 Maximum vector length:                            1024
 Number of SMPs:                                    108
 Maximum number of threads per SMP:                2048
 Number of ASync Engines:                             5
 Memory:                                           9207742464
   8286968217 words of memory will be used on each GPU.
 Copying data from "5g6n_II_Sre.chk" to current chk file "5g6n_III_Dn.chk"
 IOpt=  2 FromEx=T IUOpen= 4 IOptOp= 5 NList=   0 IFRang= 0 IUIn= 4 IUOut= 2.
 --------------------------------------------------------------
 # apfd/def2TZVP guess=read scf=maxcycle=999 geom=check pop=nbo
 --------------------------------------------------------------
 1/29=2,38=1,172=1/1;
 2/12=2,40=1/2;
 3/5=44,7=101,11=2,14=-4,25=1,30=1,74=-44,116=-2/1,2,3;
 4/5=1/1;
 5/5=2,7=999,38=6/2;
 6/7=2,8=2,9=2,10=2,28=1,40=1/1,7;
 99/5=1,9=1/99;
 ----------
 5g6n_III_D
 ----------
 Structure from the checkpoint file:  "5g6n_III_Dn.chk"
 Charge =  1 Multiplicity = 2
 Z-Matrix found in chk file.
 Fe,0,-0.2167460081,17.306362185,22.0225492949
 N,0,0.2630377281,15.5151942209,22.8038939533
 N,0,-1.0707539843,17.8106803164,23.8023749427
 N,0,-0.4003576616,19.204485696,21.4848664619
 N,0,0.8958098757,16.8840736726,20.452824929
 C,0,1.1685301222,14.6216989436,22.3051578914
 C,0,1.4632134956,13.5826937116,23.2608105621
 C,0,0.7145430869,13.8583101541,24.3616576584
 C,0,-0.0011833809,15.0787440437,24.0699493175
 C,0,-1.3286457971,16.9723212739,24.8463442458
 C,0,-2.0109209119,17.6613258223,25.9087605676
 C,0,-2.168909042,18.9529449944,25.4904592904
 C,0,-1.5720222522,19.0214700304,24.1732268236
 C,0,-0.8608176154,20.2687911122,22.1993731859
 C,0,-0.7146228924,21.4942447234,21.4578820314
 C,0,-0.1643400795,21.1501113857,20.253088475
 C,0,0.046793315,19.7165781216,20.3053356601
 C,0,1.037265007,17.6830122022,19.3588814236
 C,0,1.8201395273,17.0195006789,18.3407696869
 C,0,2.1593618487,15.804146708,18.8499131842
 C,0,1.569930778,15.7364684748,20.1666761992
 C,0,1.7175549717,14.6738018012,21.0364257425
 H,0,2.345503261,13.8532866956,20.7262983204
 C,0,-0.8676857765,15.6745087973,24.9621179079
 H,0,-1.0736603653,15.1544428102,25.8843000315
 C,0,-1.4449433775,20.1875992731,23.4481260528
 H,0,-1.7992514394,21.0985524015,23.9030352483
 C,0,0.607311694,18.992466485,19.2699742438
 H,0,0.8207200475,19.5200806125,18.3534226261
 C,0,0.6333546959,13.1246422853,25.6552884047
 H,0,1.2221109389,12.2117941908,25.6170399447
 H,0,-0.3988764961,12.8570771139,25.8816941191
 H,0,1.0097509068,13.7427693676,26.4705887813
 C,0,2.4167146196,12.4646453424,23.0175947728
 H,0,3.4082187489,12.852702616,22.785244147
 H,0,2.0866879392,11.8534841962,22.1768830277
 H,0,2.4953418148,11.8271708509,23.8944772498
 C,0,-2.4514028738,17.0415174008,27.1890850127
 H,0,-1.5891687959,16.7501344533,27.7905422116
 H,0,-3.0474106504,16.1491306146,27.0004419699
 H,0,-3.0527876187,17.7419881737,27.7629646274
 C,0,-2.8192520617,20.0309983985,26.2103633904
 H,0,-2.6176205541,20.0653828929,27.275273719
 C,0,-3.6486753143,20.9189220891,25.6758793462
 H,0,-3.9209074831,20.8908678476,24.634397483
 H,0,-4.1070508935,21.6912519118,26.2708767526
 C,0,-1.0502486899,22.8478288042,21.9761431785
 H,0,-0.7850294917,22.9325235251,23.0288007779
 H,0,-2.1187997094,23.0458909908,21.8799217499
 H,0,-0.5079330222,23.6066304062,21.4158282655
 C,0,0.2091676184,22.000093667,19.1431873938
 H,0,1.0916025099,21.6947251188,18.5935911999
 C,0,-0.44303669,23.0932844048,18.7625819829
 H,0,-1.349417262,23.4157454596,19.2442736426
 H,0,-0.1035703984,23.6906998046,17.9329408274
 C,0,2.1651058385,17.6201141661,17.0223343364
 H,0,2.838546235,18.4676250375,17.1532303213
 H,0,1.2680743939,17.9758051346,16.5164688501
 H,0,2.6553112328,16.8909166184,16.3822249722
 C,0,2.9740019811,14.7158645145,18.2411761656
 H,0,3.8528739594,14.5094460184,18.8519025647
 H,0,3.3084468598,14.9944800744,17.2453038284
 H,0,2.3915675297,13.7973017045,18.1655761606
 C,0,-1.8448165258,15.1130280793,20.096271249
 H,0,-1.4415417602,15.4781933401,19.1574921077
 H,0,-2.7619933551,14.5600432242,19.91999578
 H,0,-1.1039910369,14.5035097159,20.6029541023
 S,0,-2.2191458883,16.5890600248,21.1126984507
 H,0,-2.6800554253,15.8918130732,22.1599711747
 Recover connectivity data from disk.
 Stoichiometry    C31H32FeN4S(1+,2)
 Framework group  C1[X(C31H32FeN4S)]
 Deg. of freedom   201
 Full point group                 C1      NOp   1
 Largest Abelian subgroup         C1      NOp   1
 Largest concise Abelian subgroup C1      NOp   1
                         Standard orientation:                         
 ---------------------------------------------------------------------
 Center     Atomic      Atomic             Coordinates (Angstroms)
 Number     Number       Type             X           Y           Z
 ---------------------------------------------------------------------
      1         26           0        0.176706   -0.006734    0.076541
      2          7           0        1.948370    0.932724   -0.089585
      3          7           0       -0.751420    1.801924   -0.060507
      4          7           0       -1.602794   -0.849724   -0.143547
      5          7           0        1.108680   -1.731073   -0.118968
      6          6           0        3.152361    0.360376   -0.389269
      7          6           0        4.145764    1.358062   -0.701385
      8          6           0        3.522936    2.560925   -0.585021
      9          6           0        2.151234    2.274837   -0.233729
     10          6           0       -0.156904    3.027286    0.004803
     11          6           0       -1.133884    4.081549   -0.049916
     12          6           0       -2.352908    3.471515   -0.150192
     13          6           0       -2.087403    2.048302   -0.156737
     14          6           0       -2.815798   -0.271816   -0.367001
     15          6           0       -3.834089   -1.267401   -0.578696
     16          6           0       -3.213667   -2.481493   -0.461127
     17          6           0       -1.814207   -2.192719   -0.215267
     18          6           0        0.511132   -2.953132   -0.051655
     19          6           0        1.498558   -4.007343   -0.109292
     20          6           0        2.707476   -3.393802   -0.225349
     21          6           0        2.444010   -1.973781   -0.225298
     22          6           0        3.411270   -0.998439   -0.368942
     23          1           0        4.429001   -1.318730   -0.528254
     24          6           0        1.205315    3.257900   -0.032356
     25          1           0        1.534859    4.284452   -0.062453
     26          6           0       -3.059325    1.087280   -0.339992
     27          1           0       -4.070089    1.425235   -0.502641
     28          6           0       -0.852428   -3.172506   -0.055613
     29          1           0       -1.186624   -4.198145   -0.036536
     30          6           0        4.066611    3.930034   -0.804785
     31          1           0        5.133173    3.891583   -1.010592
     32          1           0        3.910197    4.552142    0.076617
     33          1           0        3.570360    4.408310   -1.649449
     34          6           0        5.554659    1.051447   -1.074689
     35          1           0        5.584988    0.411596   -1.956350
     36          1           0        6.063832    0.532428   -0.261920
     37          1           0        6.102632    1.963989   -1.294852
     38          6           0       -0.828539    5.537802    0.009314
     39          1           0       -0.285627    5.852272   -0.883131
     40          1           0       -0.211235    5.767304    0.877318
     41          1           0       -1.746621    6.115854    0.077461
     42          6           0       -3.649963    4.116990   -0.216663
     43          1           0       -3.692080    5.011339   -0.828413
     44          6           0       -4.737307    3.721570    0.433990
     45          1           0       -4.729290    2.871621    1.095129
     46          1           0       -5.670090    4.253695    0.348072
     47          6           0       -5.252033   -0.975092   -0.921361
     48          1           0       -5.315913   -0.124933   -1.598673
     49          1           0       -5.826380   -0.736810   -0.024904
     50          1           0       -5.705703   -1.840091   -1.400735
     51          6           0       -3.770446   -3.809533   -0.603133
     52          1           0       -3.114499   -4.549179   -1.046590
     53          6           0       -4.993684   -4.170811   -0.231025
     54          1           0       -5.668909   -3.488585    0.254951
     55          1           0       -5.352301   -5.176037   -0.377185
     56          6           0        1.178347   -5.461135   -0.064998
     57          1           0        0.636076   -5.760265   -0.962436
     58          1           0        0.555322   -5.690448    0.798909
     59          1           0        2.086783   -6.054877   -0.001870
     60          6           0        4.066399   -3.992418   -0.341724
     61          1           0        4.536258   -3.693861   -1.278798
     62          1           0        4.013897   -5.077719   -0.317084
     63          1           0        4.703872   -3.658736    0.477414
     64          6           0        1.750615   -0.720701    2.937474
     65          1           0        1.639239   -1.796675    2.852867
     66          1           0        1.933323   -0.443234    3.970774
     67          1           0        2.549817   -0.381015    2.287128
     68         16           0        0.164994    0.012675    2.389860
     69          1           0        0.553018    1.280328    2.584446
 ---------------------------------------------------------------------
 Rotational constants (GHZ):           0.1130544           0.1081343           0.0607665
 Standard basis: def2TZVP (5D, 7F)
 There are  1546 symmetry adapted cartesian basis functions of A   symmetry.
 There are  1359 symmetry adapted basis functions of A   symmetry.
  1359 basis functions,  2212 primitive gaussians,  1546 cartesian basis functions
   144 alpha electrons      143 beta electrons
       nuclear repulsion energy      5041.0316318531 Hartrees.
 NAtoms=   69 NActive=   69 NUniq=   69 SFac= 1.00D+00 NAtFMM=   60 NAOKFM=T Big=T
 Integral buffers will be    131072 words long.
 Raffenetti 2 integral format.
 Two-electron integral symmetry is turned on.
 R6APFD:  NTU= -4 IXU= 1 FactS= 1.050
 Nuclear repulsion after empirical dispersion term =     5040.8996414097 Hartrees.
 One-electron integrals computed using PRISM.
   1 Symmetry operations used in ECPInt.
 ECPInt:  NShTT=  146611 NPrTT=  457451 LenC2=  115977 LenP2D=  241563.
 LDataN:  DoStor=T MaxTD1= 6 Len=  172
 Number of processors reduced to  26 by ecpmxn.
 NBasis=  1359 RedAO= T EigKep=  3.55D-06  NBF=  1359
 NBsUse=  1359 1.00D-06 EigRej= -1.00D+00 NBFU=  1359
 Initial guess from the checkpoint file:  "5g6n_III_Dn.chk"
 B after Tr=     0.000000    0.000000   -0.000000
         Rot=    1.000000    0.000000   -0.000000   -0.000000 Ang=   0.00 deg.
 Initial guess <Sx>= 0.0000 <Sy>= 0.0000 <Sz>= 0.5000 <S**2>= 1.2066 S= 0.7069
 Requested convergence on RMS density matrix=1.00D-08 within 999 cycles.
 Requested convergence on MAX density matrix=1.00D-06.
 Requested convergence on             energy=1.00D-06.
 No special actions if energy rises.
 Restarting incremental Fock formation.
 Restarting incremental Fock formation.
 SCF Done:  E(UAPFD) =  -3080.56363968     A.U. after   56 cycles
            NFock= 56  Conv=0.44D-08     -V/T= 2.0031
 <Sx>= 0.0000 <Sy>= 0.0000 <Sz>= 0.5000 <S**2>= 1.1767 S= 0.6945
 <L.S>=  0.00000000000    
 Annihilation of the first spin contaminant:
 S**2 before annihilation     1.1767,   after     0.7678

 **********************************************************************

            Population analysis using the SCF Density.

 **********************************************************************

 Orbital symmetries:
 Alpha Orbitals:
       Occupied  (A) (A) (A) (A) (A) (A) (A) (A) (A) (A) (A) (A)
                 (A) (A) (A) (A) (A) (A) (A) (A) (A) (A) (A) (A)
                 (A) (A) (A) (A) (A) (A) (A) (A) (A) (A) (A) (A)
                 (A) (A) (A) (A) (A) (A) (A) (A) (A) (A) (A) (A)
                 (A) (A) (A) (A) (A) (A) (A) (A) (A) (A) (A) (A)
                 (A) (A) (A) (A) (A) (A) (A) (A) (A) (A) (A) (A)
                 (A) (A) (A) (A) (A) (A) (A) (A) (A) (A) (A) (A)
                 (A) (A) (A) (A) (A) (A) (A) (A) (A) (A) (A) (A)
                 (A) (A) (A) (A) (A) (A) (A) (A) (A) (A) (A) (A)
                 (A) (A) (A) (A) (A) (A) (A) (A) (A) (A) (A) (A)
                 (A) (A) (A) (A) (A) (A) (A) (A) (A) (A) (A) (A)
                 (A) (A) (A) (A) (A) (A) (A) (A) (A) (A) (A) (A)
       Virtual   (A) (A) (A) (A) (A) (A) (A) (A) (A) (A) (A) (A)
                 (A) (A) (A) (A) (A) (A) (A) (A) (A) (A) (A) (A)
                 (A) (A) (A) (A) (A) (A) (A) (A) (A) (A) (A) (A)
                 (A) (A) (A) (A) (A) (A) (A) (A) (A) (A) (A) (A)
                 (A) (A) (A) (A) (A) (A) (A) (A) (A) (A) (A) (A)
                 (A) (A) (A) (A) (A) (A) (A) (A) (A) (A) (A) (A)
                 (A) (A) (A) (A) (A) (A) (A) (A) (A) (A) (A) (A)
                 (A) (A) (A) (A) (A) (A) (A) (A) (A) (A) (A) (A)
                 (A) (A) (A) (A) (A) (A) (A) (A) (A) (A) (A) (A)
                 (A) (A) (A) (A) (A) (A) (A) (A) (A) (A) (A) (A)
                 (A) (A) (A) (A) (A) (A) (A) (A) (A) (A) (A) (A)
                 (A) (A) (A) (A) (A) (A) (A) (A) (A) (A) (A) (A)
                 (A) (A) (A) (A) (A) (A) (A) (A) (A) (A) (A) (A)
                 (A) (A) (A) (A) (A) (A) (A) (A) (A) (A) (A) (A)
                 (A) (A) (A) (A) (A) (A) (A) (A) (A) (A) (A) (A)
                 (A) (A) (A) (A) (A) (A) (A) (A) (A) (A) (A) (A)
                 (A) (A) (A) (A) (A) (A) (A) (A) (A) (A) (A) (A)
                 (A) (A) (A) (A) (A) (A) (A) (A) (A) (A) (A) (A)
                 (A) (A) (A) (A) (A) (A) (A) (A) (A) (A) (A) (A)
                 (A) (A) (A) (A) (A) (A) (A) (A) (A) (A) (A) (A)
                 (A) (A) (A) (A) (A) (A) (A) (A) (A) (A) (A) (A)
                 (A) (A) (A) (A) (A) (A) (A) (A) (A) (A) (A) (A)
                 (A) (A) (A) (A) (A) (A) (A) (A) (A) (A) (A) (A)
                 (A) (A) (A) (A) (A) (A) (A) (A) (A) (A) (A) (A)
                 (A) (A) (A) (A) (A) (A) (A) (A) (A) (A) (A) (A)
                 (A) (A) (A) (A) (A) (A) (A) (A) (A) (A) (A) (A)
                 (A) (A) (A) (A) (A) (A) (A) (A) (A) (A) (A) (A)
                 (A) (A) (A) (A) (A) (A) (A) (A) (A) (A) (A) (A)
                 (A) (A) (A) (A) (A) (A) (A) (A) (A) (A) (A) (A)
                 (A) (A) (A) (A) (A) (A) (A) (A) (A) (A) (A) (A)
                 (A) (A) (A) (A) (A) (A) (A) (A) (A) (A) (A) (A)
                 (A) (A) (A) (A) (A) (A) (A) (A) (A) (A) (A) (A)
                 (A) (A) (A) (A) (A) (A) (A) (A) (A) (A) (A) (A)
                 (A) (A) (A) (A) (A) (A) (A) (A) (A) (A) (A) (A)
                 (A) (A) (A) (A) (A) (A) (A) (A) (A) (A) (A) (A)
                 (A) (A) (A) (A) (A) (A) (A) (A) (A) (A) (A) (A)
                 (A) (A) (A) (A) (A) (A) (A) (A) (A) (A) (A) (A)
                 (A) (A) (A) (A) (A) (A) (A) (A) (A) (A) (A) (A)
                 (A) (A) (A) (A) (A) (A) (A) (A) (A) (A) (A) (A)
                 (A) (A) (A) (A) (A) (A) (A) (A) (A) (A) (A) (A)
                 (A) (A) (A) (A) (A) (A) (A) (A) (A) (A) (A) (A)
                 (A) (A) (A) (A) (A) (A) (A) (A) (A) (A) (A) (A)
                 (A) (A) (A) (A) (A) (A) (A) (A) (A) (A) (A) (A)
                 (A) (A) (A) (A) (A) (A) (A) (A) (A) (A) (A) (A)
                 (A) (A) (A) (A) (A) (A) (A) (A) (A) (A) (A) (A)
                 (A) (A) (A) (A) (A) (A) (A) (A) (A) (A) (A) (A)
                 (A) (A) (A) (A) (A) (A) (A) (A) (A) (A) (A) (A)
                 (A) (A) (A) (A) (A) (A) (A) (A) (A) (A) (A) (A)
                 (A) (A) (A) (A) (A) (A) (A) (A) (A) (A) (A) (A)
                 (A) (A) (A) (A) (A) (A) (A) (A) (A) (A) (A) (A)
                 (A) (A) (A) (A) (A) (A) (A) (A) (A) (A) (A) (A)
                 (A) (A) (A) (A) (A) (A) (A) (A) (A) (A) (A) (A)
                 (A) (A) (A) (A) (A) (A) (A) (A) (A) (A) (A) (A)
                 (A) (A) (A) (A) (A) (A) (A) (A) (A) (A) (A) (A)
                 (A) (A) (A) (A) (A) (A) (A) (A) (A) (A) (A) (A)
                 (A) (A) (A) (A) (A) (A) (A) (A) (A) (A) (A) (A)
                 (A) (A) (A) (A) (A) (A) (A) (A) (A) (A) (A) (A)
                 (A) (A) (A) (A) (A) (A) (A) (A) (A) (A) (A) (A)
                 (A) (A) (A) (A) (A) (A) (A) (A) (A) (A) (A) (A)
                 (A) (A) (A) (A) (A) (A) (A) (A) (A) (A) (A) (A)
                 (A) (A) (A) (A) (A) (A) (A) (A) (A) (A) (A) (A)
                 (A) (A) (A) (A) (A) (A) (A) (A) (A) (A) (A) (A)
                 (A) (A) (A) (A) (A) (A) (A) (A) (A) (A) (A) (A)
                 (A) (A) (A) (A) (A) (A) (A) (A) (A) (A) (A) (A)
                 (A) (A) (A) (A) (A) (A) (A) (A) (A) (A) (A) (A)
                 (A) (A) (A) (A) (A) (A) (A) (A) (A) (A) (A) (A)
                 (A) (A) (A) (A) (A) (A) (A) (A) (A) (A) (A) (A)
                 (A) (A) (A) (A) (A) (A) (A) (A) (A) (A) (A) (A)
                 (A) (A) (A) (A) (A) (A) (A) (A) (A) (A) (A) (A)
                 (A) (A) (A) (A) (A) (A) (A) (A) (A) (A) (A) (A)
                 (A) (A) (A) (A) (A) (A) (A) (A) (A) (A) (A) (A)
                 (A) (A) (A) (A) (A) (A) (A) (A) (A) (A) (A) (A)
                 (A) (A) (A) (A) (A) (A) (A) (A) (A) (A) (A) (A)
                 (A) (A) (A) (A) (A) (A) (A) (A) (A) (A) (A) (A)
                 (A) (A) (A) (A) (A) (A) (A) (A) (A) (A) (A) (A)
                 (A) (A) (A) (A) (A) (A) (A) (A) (A) (A) (A) (A)
                 (A) (A) (A) (A) (A) (A) (A) (A) (A) (A) (A) (A)
                 (A) (A) (A) (A) (A) (A) (A) (A) (A) (A) (A) (A)
                 (A) (A) (A) (A) (A) (A) (A) (A) (A) (A) (A) (A)
                 (A) (A) (A) (A) (A) (A) (A) (A) (A) (A) (A) (A)
                 (A) (A) (A) (A) (A) (A) (A) (A) (A) (A) (A) (A)
                 (A) (A) (A) (A) (A) (A) (A) (A) (A) (A) (A) (A)
                 (A) (A) (A) (A) (A) (A) (A) (A) (A) (A) (A) (A)
                 (A) (A) (A) (A) (A) (A) (A) (A) (A) (A) (A) (A)
                 (A) (A) (A) (A) (A) (A) (A) (A) (A) (A) (A) (A)
                 (A) (A) (A) (A) (A) (A) (A) (A) (A) (A) (A) (A)
                 (A) (A) (A) (A) (A) (A) (A) (A) (A) (A) (A) (A)
                 (A) (A) (A) (A) (A) (A) (A) (A) (A) (A) (A) (A)
                 (A) (A) (A) (A) (A) (A) (A) (A) (A) (A) (A) (A)
                 (A) (A) (A) (A) (A) (A) (A) (A) (A) (A) (A) (A)
                 (A) (A) (A) (A) (A) (A) (A) (A) (A) (A) (A) (A)
                 (A) (A) (A) (A) (A) (A) (A) (A) (A) (A) (A) (A)
                 (A) (A) (A) (A) (A) (A) (A) (A) (A) (A) (A) (A)
                 (A) (A) (A) (A) (A) (A) (A) (A) (A) (A) (A) (A)
                 (A) (A) (A) (A) (A) (A) (A) (A) (A) (A) (A) (A)
                 (A) (A) (A) (A) (A) (A) (A) (A) (A) (A) (A) (A)
                 (A) (A) (A) (A) (A) (A) (A) (A) (A) (A) (A) (A)
                 (A) (A) (A) (A) (A) (A) (A) (A) (A) (A) (A) (A)
                 (A) (A) (A) (A) (A) (A) (A) (A) (A) (A) (A) (A)
                 (A) (A) (A) (A) (A) (A) (A) (A) (A) (A) (A) (A)
                 (A) (A) (A) (A) (A) (A) (A) (A) (A) (A) (A) (A)
                 (A) (A) (A)
 Beta  Orbitals:
       Occupied  (A) (A) (A) (A) (A) (A) (A) (A) (A) (A) (A) (A)
                 (A) (A) (A) (A) (A) (A) (A) (A) (A) (A) (A) (A)
                 (A) (A) (A) (A) (A) (A) (A) (A) (A) (A) (A) (A)
                 (A) (A) (A) (A) (A) (A) (A) (A) (A) (A) (A) (A)
                 (A) (A) (A) (A) (A) (A) (A) (A) (A) (A) (A) (A)
                 (A) (A) (A) (A) (A) (A) (A) (A) (A) (A) (A) (A)
                 (A) (A) (A) (A) (A) (A) (A) (A) (A) (A) (A) (A)
                 (A) (A) (A) (A) (A) (A) (A) (A) (A) (A) (A) (A)
                 (A) (A) (A) (A) (A) (A) (A) (A) (A) (A) (A) (A)
                 (A) (A) (A) (A) (A) (A) (A) (A) (A) (A) (A) (A)
                 (A) (A) (A) (A) (A) (A) (A) (A) (A) (A) (A) (A)
                 (A) (A) (A) (A) (A) (A) (A) (A) (A) (A) (A)
       Virtual   (A) (A) (A) (A) (A) (A) (A) (A) (A) (A) (A) (A)
                 (A) (A) (A) (A) (A) (A) (A) (A) (A) (A) (A) (A)
                 (A) (A) (A) (A) (A) (A) (A) (A) (A) (A) (A) (A)
                 (A) (A) (A) (A) (A) (A) (A) (A) (A) (A) (A) (A)
                 (A) (A) (A) (A) (A) (A) (A) (A) (A) (A) (A) (A)
                 (A) (A) (A) (A) (A) (A) (A) (A) (A) (A) (A) (A)
                 (A) (A) (A) (A) (A) (A) (A) (A) (A) (A) (A) (A)
                 (A) (A) (A) (A) (A) (A) (A) (A) (A) (A) (A) (A)
                 (A) (A) (A) (A) (A) (A) (A) (A) (A) (A) (A) (A)
                 (A) (A) (A) (A) (A) (A) (A) (A) (A) (A) (A) (A)
                 (A) (A) (A) (A) (A) (A) (A) (A) (A) (A) (A) (A)
                 (A) (A) (A) (A) (A) (A) (A) (A) (A) (A) (A) (A)
                 (A) (A) (A) (A) (A) (A) (A) (A) (A) (A) (A) (A)
                 (A) (A) (A) (A) (A) (A) (A) (A) (A) (A) (A) (A)
                 (A) (A) (A) (A) (A) (A) (A) (A) (A) (A) (A) (A)
                 (A) (A) (A) (A) (A) (A) (A) (A) (A) (A) (A) (A)
                 (A) (A) (A) (A) (A) (A) (A) (A) (A) (A) (A) (A)
                 (A) (A) (A) (A) (A) (A) (A) (A) (A) (A) (A) (A)
                 (A) (A) (A) (A) (A) (A) (A) (A) (A) (A) (A) (A)
                 (A) (A) (A) (A) (A) (A) (A) (A) (A) (A) (A) (A)
                 (A) (A) (A) (A) (A) (A) (A) (A) (A) (A) (A) (A)
                 (A) (A) (A) (A) (A) (A) (A) (A) (A) (A) (A) (A)
                 (A) (A) (A) (A) (A) (A) (A) (A) (A) (A) (A) (A)
                 (A) (A) (A) (A) (A) (A) (A) (A) (A) (A) (A) (A)
                 (A) (A) (A) (A) (A) (A) (A) (A) (A) (A) (A) (A)
                 (A) (A) (A) (A) (A) (A) (A) (A) (A) (A) (A) (A)
                 (A) (A) (A) (A) (A) (A) (A) (A) (A) (A) (A) (A)
                 (A) (A) (A) (A) (A) (A) (A) (A) (A) (A) (A) (A)
                 (A) (A) (A) (A) (A) (A) (A) (A) (A) (A) (A) (A)
                 (A) (A) (A) (A) (A) (A) (A) (A) (A) (A) (A) (A)
                 (A) (A) (A) (A) (A) (A) (A) (A) (A) (A) (A) (A)
                 (A) (A) (A) (A) (A) (A) (A) (A) (A) (A) (A) (A)
                 (A) (A) (A) (A) (A) (A) (A) (A) (A) (A) (A) (A)
                 (A) (A) (A) (A) (A) (A) (A) (A) (A) (A) (A) (A)
                 (A) (A) (A) (A) (A) (A) (A) (A) (A) (A) (A) (A)
                 (A) (A) (A) (A) (A) (A) (A) (A) (A) (A) (A) (A)
                 (A) (A) (A) (A) (A) (A) (A) (A) (A) (A) (A) (A)
                 (A) (A) (A) (A) (A) (A) (A) (A) (A) (A) (A) (A)
                 (A) (A) (A) (A) (A) (A) (A) (A) (A) (A) (A) (A)
                 (A) (A) (A) (A) (A) (A) (A) (A) (A) (A) (A) (A)
                 (A) (A) (A) (A) (A) (A) (A) (A) (A) (A) (A) (A)
                 (A) (A) (A) (A) (A) (A) (A) (A) (A) (A) (A) (A)
                 (A) (A) (A) (A) (A) (A) (A) (A) (A) (A) (A) (A)
                 (A) (A) (A) (A) (A) (A) (A) (A) (A) (A) (A) (A)
                 (A) (A) (A) (A) (A) (A) (A) (A) (A) (A) (A) (A)
                 (A) (A) (A) (A) (A) (A) (A) (A) (A) (A) (A) (A)
                 (A) (A) (A) (A) (A) (A) (A) (A) (A) (A) (A) (A)
                 (A) (A) (A) (A) (A) (A) (A) (A) (A) (A) (A) (A)
                 (A) (A) (A) (A) (A) (A) (A) (A) (A) (A) (A) (A)
                 (A) (A) (A) (A) (A) (A) (A) (A) (A) (A) (A) (A)
                 (A) (A) (A) (A) (A) (A) (A) (A) (A) (A) (A) (A)
                 (A) (A) (A) (A) (A) (A) (A) (A) (A) (A) (A) (A)
                 (A) (A) (A) (A) (A) (A) (A) (A) (A) (A) (A) (A)
                 (A) (A) (A) (A) (A) (A) (A) (A) (A) (A) (A) (A)
                 (A) (A) (A) (A) (A) (A) (A) (A) (A) (A) (A) (A)
                 (A) (A) (A) (A) (A) (A) (A) (A) (A) (A) (A) (A)
                 (A) (A) (A) (A) (A) (A) (A) (A) (A) (A) (A) (A)
                 (A) (A) (A) (A) (A) (A) (A) (A) (A) (A) (A) (A)
                 (A) (A) (A) (A) (A) (A) (A) (A) (A) (A) (A) (A)
                 (A) (A) (A) (A) (A) (A) (A) (A) (A) (A) (A) (A)
                 (A) (A) (A) (A) (A) (A) (A) (A) (A) (A) (A) (A)
                 (A) (A) (A) (A) (A) (A) (A) (A) (A) (A) (A) (A)
                 (A) (A) (A) (A) (A) (A) (A) (A) (A) (A) (A) (A)
                 (A) (A) (A) (A) (A) (A) (A) (A) (A) (A) (A) (A)
                 (A) (A) (A) (A) (A) (A) (A) (A) (A) (A) (A) (A)
                 (A) (A) (A) (A) (A) (A) (A) (A) (A) (A) (A) (A)
                 (A) (A) (A) (A) (A) (A) (A) (A) (A) (A) (A) (A)
                 (A) (A) (A) (A) (A) (A) (A) (A) (A) (A) (A) (A)
                 (A) (A) (A) (A) (A) (A) (A) (A) (A) (A) (A) (A)
                 (A) (A) (A) (A) (A) (A) (A) (A) (A) (A) (A) (A)
                 (A) (A) (A) (A) (A) (A) (A) (A) (A) (A) (A) (A)
                 (A) (A) (A) (A) (A) (A) (A) (A) (A) (A) (A) (A)
                 (A) (A) (A) (A) (A) (A) (A) (A) (A) (A) (A) (A)
                 (A) (A) (A) (A) (A) (A) (A) (A) (A) (A) (A) (A)
                 (A) (A) (A) (A) (A) (A) (A) (A) (A) (A) (A) (A)
                 (A) (A) (A) (A) (A) (A) (A) (A) (A) (A) (A) (A)
                 (A) (A) (A) (A) (A) (A) (A) (A) (A) (A) (A) (A)
                 (A) (A) (A) (A) (A) (A) (A) (A) (A) (A) (A) (A)
                 (A) (A) (A) (A) (A) (A) (A) (A) (A) (A) (A) (A)
                 (A) (A) (A) (A) (A) (A) (A) (A) (A) (A) (A) (A)
                 (A) (A) (A) (A) (A) (A) (A) (A) (A) (A) (A) (A)
                 (A) (A) (A) (A) (A) (A) (A) (A) (A) (A) (A) (A)
                 (A) (A) (A) (A) (A) (A) (A) (A) (A) (A) (A) (A)
                 (A) (A) (A) (A) (A) (A) (A) (A) (A) (A) (A) (A)
                 (A) (A) (A) (A) (A) (A) (A) (A) (A) (A) (A) (A)
                 (A) (A) (A) (A) (A) (A) (A) (A) (A) (A) (A) (A)
                 (A) (A) (A) (A) (A) (A) (A) (A) (A) (A) (A) (A)
                 (A) (A) (A) (A) (A) (A) (A) (A) (A) (A) (A) (A)
                 (A) (A) (A) (A) (A) (A) (A) (A) (A) (A) (A) (A)
                 (A) (A) (A) (A) (A) (A) (A) (A) (A) (A) (A) (A)
                 (A) (A) (A) (A) (A) (A) (A) (A) (A) (A) (A) (A)
                 (A) (A) (A) (A) (A) (A) (A) (A) (A) (A) (A) (A)
                 (A) (A) (A) (A) (A) (A) (A) (A) (A) (A) (A) (A)
                 (A) (A) (A) (A) (A) (A) (A) (A) (A) (A) (A) (A)
                 (A) (A) (A) (A) (A) (A) (A) (A) (A) (A) (A) (A)
                 (A) (A) (A) (A) (A) (A) (A) (A) (A) (A) (A) (A)
                 (A) (A) (A) (A) (A) (A) (A) (A) (A) (A) (A) (A)
                 (A) (A) (A) (A) (A) (A) (A) (A) (A) (A) (A) (A)
                 (A) (A) (A) (A) (A) (A) (A) (A) (A) (A) (A) (A)
                 (A) (A) (A) (A) (A) (A) (A) (A) (A) (A) (A) (A)
                 (A) (A) (A) (A) (A) (A) (A) (A) (A) (A) (A) (A)
                 (A) (A) (A) (A)
 The electronic state is 2-A.
 Alpha  occ. eigenvalues -- -256.39419 -89.11779 -30.26179 -26.09994 -26.09930
 Alpha  occ. eigenvalues --  -26.09465 -14.48063 -14.47991 -14.47934 -14.47838
 Alpha  occ. eigenvalues --  -10.34934 -10.34172 -10.34142 -10.34126 -10.34090
 Alpha  occ. eigenvalues --  -10.33963 -10.33962 -10.33905 -10.33875 -10.31250
 Alpha  occ. eigenvalues --  -10.31175 -10.31143 -10.30902 -10.30870 -10.30869
 Alpha  occ. eigenvalues --  -10.30799 -10.30764 -10.30756 -10.30655 -10.30563
 Alpha  occ. eigenvalues --  -10.30529 -10.29680 -10.29478 -10.28852 -10.28807
 Alpha  occ. eigenvalues --  -10.28800 -10.28784 -10.28720 -10.28332 -10.28231
 Alpha  occ. eigenvalues --  -10.28182  -8.14502  -6.09014  -6.08746  -6.08325
 Alpha  occ. eigenvalues --   -3.65553  -2.42565  -2.41680  -2.40998  -1.10447
 Alpha  occ. eigenvalues --   -1.09456  -1.09336  -1.08373  -0.95018  -0.94441
 Alpha  occ. eigenvalues --   -0.93298  -0.93035  -0.92693  -0.92374  -0.92170
 Alpha  occ. eigenvalues --   -0.92052  -0.87995  -0.86777  -0.86495  -0.85472
 Alpha  occ. eigenvalues --   -0.84070  -0.82109  -0.81112  -0.79999  -0.79654
 Alpha  occ. eigenvalues --   -0.79507  -0.79317  -0.76586  -0.76395  -0.71798
 Alpha  occ. eigenvalues --   -0.71396  -0.69899  -0.69647  -0.66528  -0.66026
 Alpha  occ. eigenvalues --   -0.65254  -0.64225  -0.63156  -0.63037  -0.62254
 Alpha  occ. eigenvalues --   -0.60351  -0.60226  -0.59565  -0.59325  -0.58224
 Alpha  occ. eigenvalues --   -0.57324  -0.56728  -0.56124  -0.55796  -0.55501
 Alpha  occ. eigenvalues --   -0.55346  -0.54671  -0.54490  -0.54250  -0.53919
 Alpha  occ. eigenvalues --   -0.53779  -0.53364  -0.52350  -0.51951  -0.51702
 Alpha  occ. eigenvalues --   -0.51620  -0.51510  -0.51436  -0.51284  -0.51168
 Alpha  occ. eigenvalues --   -0.51086  -0.50864  -0.50373  -0.50298  -0.49776
 Alpha  occ. eigenvalues --   -0.49415  -0.49290  -0.49212  -0.48894  -0.48480
 Alpha  occ. eigenvalues --   -0.48016  -0.47497  -0.47250  -0.46742  -0.46153
 Alpha  occ. eigenvalues --   -0.45490  -0.44961  -0.44825  -0.44172  -0.44030
 Alpha  occ. eigenvalues --   -0.43776  -0.43014  -0.42314  -0.41641  -0.40583
 Alpha  occ. eigenvalues --   -0.40190  -0.38625  -0.38453  -0.35767  -0.34874
 Alpha  occ. eigenvalues --   -0.33661  -0.33364  -0.31656  -0.30319
 Alpha virt. eigenvalues --   -0.24509  -0.19070  -0.18825  -0.17016  -0.13150
 Alpha virt. eigenvalues --   -0.11926  -0.09907  -0.08975  -0.08265  -0.06967
 Alpha virt. eigenvalues --   -0.05845  -0.04693  -0.04053  -0.03903  -0.03498
 Alpha virt. eigenvalues --   -0.03404  -0.02749  -0.02523  -0.01891  -0.01515
 Alpha virt. eigenvalues --   -0.01069  -0.00734  -0.00392   0.00105   0.00636
 Alpha virt. eigenvalues --    0.01048   0.01335   0.01392   0.01632   0.01693
 Alpha virt. eigenvalues --    0.01956   0.02241   0.02492   0.02574   0.02840
 Alpha virt. eigenvalues --    0.03229   0.03528   0.03692   0.04043   0.04226
 Alpha virt. eigenvalues --    0.04365   0.04857   0.05074   0.05340   0.05893
 Alpha virt. eigenvalues --    0.05942   0.06111   0.06478   0.06657   0.06726
 Alpha virt. eigenvalues --    0.06840   0.07083   0.07340   0.07440   0.07790
 Alpha virt. eigenvalues --    0.07866   0.08109   0.08669   0.08913   0.09165
 Alpha virt. eigenvalues --    0.09439   0.09601   0.09974   0.10154   0.10328
 Alpha virt. eigenvalues --    0.10440   0.10779   0.11218   0.11420   0.11725
 Alpha virt. eigenvalues --    0.11927   0.12063   0.12805   0.12851   0.13192
 Alpha virt. eigenvalues --    0.13558   0.13718   0.13836   0.14567   0.14831
 Alpha virt. eigenvalues --    0.15494   0.15719   0.15978   0.16100   0.16434
 Alpha virt. eigenvalues --    0.16641   0.16915   0.17208   0.17612   0.18043
 Alpha virt. eigenvalues --    0.18203   0.18393   0.18408   0.18975   0.19140
 Alpha virt. eigenvalues --    0.19585   0.19708   0.20112   0.20293   0.20529
 Alpha virt. eigenvalues --    0.20776   0.20873   0.21214   0.21557   0.21723
 Alpha virt. eigenvalues --    0.22169   0.22562   0.22873   0.23106   0.23428
 Alpha virt. eigenvalues --    0.23749   0.23860   0.24660   0.24974   0.25250
 Alpha virt. eigenvalues --    0.25461   0.25680   0.25921   0.26058   0.26333
 Alpha virt. eigenvalues --    0.26744   0.27318   0.27521   0.27882   0.28429
 Alpha virt. eigenvalues --    0.28558   0.28838   0.29031   0.29243   0.29480
 Alpha virt. eigenvalues --    0.29733   0.30135   0.30301   0.30469   0.30757
 Alpha virt. eigenvalues --    0.31066   0.31435   0.31880   0.31959   0.32203
 Alpha virt. eigenvalues --    0.32290   0.32435   0.32842   0.32973   0.33438
 Alpha virt. eigenvalues --    0.33581   0.33993   0.34224   0.34604   0.34821
 Alpha virt. eigenvalues --    0.34833   0.35004   0.35733   0.36001   0.36070
 Alpha virt. eigenvalues --    0.36446   0.36628   0.36812   0.37013   0.37237
 Alpha virt. eigenvalues --    0.37422   0.37485   0.37905   0.37969   0.38231
 Alpha virt. eigenvalues --    0.38440   0.38877   0.38979   0.39389   0.39567
 Alpha virt. eigenvalues --    0.39692   0.39987   0.40252   0.40443   0.40928
 Alpha virt. eigenvalues --    0.41211   0.41269   0.41422   0.41783   0.41872
 Alpha virt. eigenvalues --    0.42083   0.42213   0.42786   0.42975   0.43117
 Alpha virt. eigenvalues --    0.43330   0.43499   0.43801   0.44048   0.44505
 Alpha virt. eigenvalues --    0.44548   0.44930   0.45083   0.45385   0.45554
 Alpha virt. eigenvalues --    0.46429   0.46569   0.46802   0.46958   0.47303
 Alpha virt. eigenvalues --    0.47794   0.47882   0.48256   0.48969   0.48998
 Alpha virt. eigenvalues --    0.49233   0.49963   0.50097   0.50774   0.51004
 Alpha virt. eigenvalues --    0.51141   0.51875   0.51900   0.52355   0.52661
 Alpha virt. eigenvalues --    0.52952   0.53067   0.53384   0.53725   0.54144
 Alpha virt. eigenvalues --    0.54427   0.54573   0.55364   0.55469   0.55976
 Alpha virt. eigenvalues --    0.56072   0.56564   0.56717   0.57036   0.57560
 Alpha virt. eigenvalues --    0.57698   0.58059   0.58219   0.58384   0.58636
 Alpha virt. eigenvalues --    0.59485   0.59562   0.59854   0.60298   0.60451
 Alpha virt. eigenvalues --    0.60519   0.61269   0.61286   0.61820   0.62409
 Alpha virt. eigenvalues --    0.62743   0.62933   0.63150   0.63400   0.63835
 Alpha virt. eigenvalues --    0.64048   0.64370   0.64573   0.65192   0.65380
 Alpha virt. eigenvalues --    0.65605   0.66151   0.66641   0.66899   0.67276
 Alpha virt. eigenvalues --    0.67895   0.68313   0.68391   0.69189   0.69441
 Alpha virt. eigenvalues --    0.69709   0.70011   0.70308   0.70805   0.71536
 Alpha virt. eigenvalues --    0.72009   0.72395   0.72479   0.73049   0.73695
 Alpha virt. eigenvalues --    0.74149   0.74730   0.74926   0.75149   0.75687
 Alpha virt. eigenvalues --    0.76234   0.76393   0.77109   0.77488   0.78116
 Alpha virt. eigenvalues --    0.78300   0.78459   0.78983   0.79551   0.79596
 Alpha virt. eigenvalues --    0.80357   0.80475   0.81027   0.81245   0.82042
 Alpha virt. eigenvalues --    0.82332   0.83065   0.83191   0.83308   0.84233
 Alpha virt. eigenvalues --    0.84424   0.84994   0.85375   0.85444   0.85638
 Alpha virt. eigenvalues --    0.86262   0.86621   0.87203   0.87401   0.87692
 Alpha virt. eigenvalues --    0.88198   0.88472   0.89034   0.89198   0.89498
 Alpha virt. eigenvalues --    0.89927   0.90141   0.90592   0.90841   0.91328
 Alpha virt. eigenvalues --    0.91475   0.91847   0.92126   0.92540   0.92985
 Alpha virt. eigenvalues --    0.93266   0.93391   0.93792   0.93950   0.94341
 Alpha virt. eigenvalues --    0.94664   0.95220   0.95579   0.96153   0.96811
 Alpha virt. eigenvalues --    0.96950   0.97808   0.98355   0.99083   0.99473
 Alpha virt. eigenvalues --    1.00128   1.00265   1.00812   1.00899   1.01926
 Alpha virt. eigenvalues --    1.02319   1.03106   1.03363   1.04375   1.05370
 Alpha virt. eigenvalues --    1.05816   1.06404   1.06988   1.07069   1.07261
 Alpha virt. eigenvalues --    1.07367   1.07900   1.08643   1.09171   1.09331
 Alpha virt. eigenvalues --    1.09532   1.10312   1.10692   1.10850   1.12071
 Alpha virt. eigenvalues --    1.12130   1.12460   1.13018   1.13463   1.14438
 Alpha virt. eigenvalues --    1.14880   1.15020   1.15045   1.15732   1.15843
 Alpha virt. eigenvalues --    1.16529   1.16701   1.17215   1.17501   1.17718
 Alpha virt. eigenvalues --    1.18144   1.18365   1.19071   1.19534   1.20285
 Alpha virt. eigenvalues --    1.20382   1.20648   1.21400   1.22425   1.22705
 Alpha virt. eigenvalues --    1.24404   1.24951   1.25270   1.25712   1.26220
 Alpha virt. eigenvalues --    1.26512   1.27351   1.28632   1.28824   1.29676
 Alpha virt. eigenvalues --    1.30705   1.31007   1.31489   1.32223   1.32375
 Alpha virt. eigenvalues --    1.32733   1.33346   1.33603   1.34548   1.35004
 Alpha virt. eigenvalues --    1.35584   1.35761   1.36325   1.36587   1.37158
 Alpha virt. eigenvalues --    1.37349   1.38049   1.38395   1.38903   1.39271
 Alpha virt. eigenvalues --    1.39528   1.39852   1.40246   1.40647   1.40954
 Alpha virt. eigenvalues --    1.40956   1.41480   1.41765   1.41873   1.42424
 Alpha virt. eigenvalues --    1.42815   1.43086   1.43462   1.43851   1.44230
 Alpha virt. eigenvalues --    1.44538   1.45035   1.45268   1.45474   1.45930
 Alpha virt. eigenvalues --    1.46012   1.46156   1.46492   1.46802   1.47073
 Alpha virt. eigenvalues --    1.47631   1.47893   1.48192   1.48445   1.48690
 Alpha virt. eigenvalues --    1.48788   1.48917   1.49312   1.49480   1.50159
 Alpha virt. eigenvalues --    1.50455   1.50638   1.50963   1.51007   1.51696
 Alpha virt. eigenvalues --    1.51859   1.52654   1.53255   1.53282   1.53512
 Alpha virt. eigenvalues --    1.53661   1.54049   1.54181   1.54650   1.54884
 Alpha virt. eigenvalues --    1.55472   1.55784   1.55957   1.56624   1.56943
 Alpha virt. eigenvalues --    1.57023   1.57410   1.57598   1.58380   1.58702
 Alpha virt. eigenvalues --    1.59142   1.59344   1.59852   1.59988   1.60408
 Alpha virt. eigenvalues --    1.60669   1.61109   1.61330   1.61815   1.62408
 Alpha virt. eigenvalues --    1.62734   1.63409   1.63491   1.63953   1.64453
 Alpha virt. eigenvalues --    1.65177   1.65671   1.65834   1.67067   1.67513
 Alpha virt. eigenvalues --    1.68080   1.68280   1.69400   1.69869   1.70471
 Alpha virt. eigenvalues --    1.70916   1.71174   1.72202   1.72392   1.72873
 Alpha virt. eigenvalues --    1.73159   1.73453   1.74006   1.74179   1.74967
 Alpha virt. eigenvalues --    1.75685   1.76188   1.76362   1.76942   1.77847
 Alpha virt. eigenvalues --    1.78234   1.79016   1.79205   1.79645   1.79777
 Alpha virt. eigenvalues --    1.81067   1.81959   1.82193   1.82935   1.83501
 Alpha virt. eigenvalues --    1.83919   1.84429   1.84655   1.84986   1.85771
 Alpha virt. eigenvalues --    1.85944   1.86281   1.86822   1.87579   1.87813
 Alpha virt. eigenvalues --    1.88378   1.88895   1.89034   1.89602   1.89878
 Alpha virt. eigenvalues --    1.90297   1.90748   1.90960   1.92037   1.92601
 Alpha virt. eigenvalues --    1.93180   1.93606   1.94312   1.94802   1.95037
 Alpha virt. eigenvalues --    1.95686   1.96121   1.96415   1.97058   1.97720
 Alpha virt. eigenvalues --    1.98380   1.99014   1.99193   1.99291   2.00557
 Alpha virt. eigenvalues --    2.00971   2.01208   2.01858   2.02525   2.02857
 Alpha virt. eigenvalues --    2.03500   2.03693   2.04626   2.05235   2.05568
 Alpha virt. eigenvalues --    2.06545   2.06654   2.07062   2.07720   2.08149
 Alpha virt. eigenvalues --    2.08970   2.10207   2.10593   2.11077   2.11702
 Alpha virt. eigenvalues --    2.11889   2.12498   2.12963   2.13424   2.14048
 Alpha virt. eigenvalues --    2.14353   2.14888   2.15565   2.16202   2.16302
 Alpha virt. eigenvalues --    2.17180   2.17527   2.17744   2.18073   2.18856
 Alpha virt. eigenvalues --    2.19099   2.19400   2.19920   2.20163   2.20733
 Alpha virt. eigenvalues --    2.21251   2.21874   2.22633   2.22846   2.23771
 Alpha virt. eigenvalues --    2.24267   2.24973   2.25405   2.25561   2.26024
 Alpha virt. eigenvalues --    2.26626   2.26727   2.27175   2.27898   2.28275
 Alpha virt. eigenvalues --    2.28526   2.28715   2.29038   2.29452   2.29666
 Alpha virt. eigenvalues --    2.30514   2.30755   2.31493   2.32084   2.32369
 Alpha virt. eigenvalues --    2.33028   2.33548   2.33945   2.34947   2.35329
 Alpha virt. eigenvalues --    2.35615   2.36152   2.36322   2.36882   2.37275
 Alpha virt. eigenvalues --    2.37404   2.37908   2.38681   2.39393   2.39759
 Alpha virt. eigenvalues --    2.40410   2.41639   2.41959   2.42721   2.42885
 Alpha virt. eigenvalues --    2.43036   2.43463   2.44088   2.44382   2.44516
 Alpha virt. eigenvalues --    2.44684   2.45422   2.46107   2.46322   2.46682
 Alpha virt. eigenvalues --    2.46837   2.47220   2.47517   2.48141   2.48313
 Alpha virt. eigenvalues --    2.49037   2.49308   2.49712   2.49928   2.50091
 Alpha virt. eigenvalues --    2.50493   2.51301   2.51629   2.52638   2.53113
 Alpha virt. eigenvalues --    2.53605   2.53941   2.54524   2.54709   2.55098
 Alpha virt. eigenvalues --    2.55774   2.56045   2.56916   2.57305   2.57708
 Alpha virt. eigenvalues --    2.57845   2.58063   2.58462   2.59106   2.59646
 Alpha virt. eigenvalues --    2.59903   2.60421   2.60819   2.61748   2.62161
 Alpha virt. eigenvalues --    2.62282   2.62943   2.63357   2.63760   2.64060
 Alpha virt. eigenvalues --    2.64925   2.65617   2.66170   2.66975   2.67470
 Alpha virt. eigenvalues --    2.67700   2.68197   2.68684   2.69122   2.69458
 Alpha virt. eigenvalues --    2.69993   2.70517   2.71084   2.71666   2.71836
 Alpha virt. eigenvalues --    2.72226   2.72790   2.73258   2.73391   2.74279
 Alpha virt. eigenvalues --    2.74383   2.74985   2.75256   2.75896   2.76120
 Alpha virt. eigenvalues --    2.76573   2.76705   2.77363   2.77629   2.78110
 Alpha virt. eigenvalues --    2.78161   2.79052   2.79282   2.79886   2.80641
 Alpha virt. eigenvalues --    2.80814   2.81242   2.81592   2.81972   2.82358
 Alpha virt. eigenvalues --    2.83299   2.83717   2.84220   2.85051   2.85335
 Alpha virt. eigenvalues --    2.85877   2.86586   2.86872   2.87077   2.87483
 Alpha virt. eigenvalues --    2.87908   2.89069   2.89441   2.89657   2.90256
 Alpha virt. eigenvalues --    2.90821   2.91134   2.91617   2.91884   2.92397
 Alpha virt. eigenvalues --    2.92769   2.93458   2.93673   2.94062   2.94558
 Alpha virt. eigenvalues --    2.95001   2.95567   2.95644   2.96091   2.96784
 Alpha virt. eigenvalues --    2.97045   2.97409   2.97806   2.97975   2.98199
 Alpha virt. eigenvalues --    2.98333   2.98908   2.99653   3.00020   3.00242
 Alpha virt. eigenvalues --    3.00476   3.00727   3.01230   3.01796   3.02096
 Alpha virt. eigenvalues --    3.02485   3.02938   3.03293   3.03641   3.03879
 Alpha virt. eigenvalues --    3.04024   3.04936   3.05497   3.05645   3.06158
 Alpha virt. eigenvalues --    3.06512   3.06607   3.07265   3.07629   3.07697
 Alpha virt. eigenvalues --    3.08169   3.08601   3.08685   3.09183   3.09347
 Alpha virt. eigenvalues --    3.09580   3.09844   3.10176   3.10592   3.11156
 Alpha virt. eigenvalues --    3.11612   3.11817   3.12235   3.12379   3.13155
 Alpha virt. eigenvalues --    3.13349   3.13706   3.13882   3.14211   3.14433
 Alpha virt. eigenvalues --    3.14686   3.15030   3.15512   3.15967   3.16187
 Alpha virt. eigenvalues --    3.16648   3.16802   3.17494   3.18038   3.18331
 Alpha virt. eigenvalues --    3.18638   3.19146   3.19351   3.19752   3.19979
 Alpha virt. eigenvalues --    3.20195   3.20272   3.20714   3.20946   3.21159
 Alpha virt. eigenvalues --    3.21528   3.22088   3.22599   3.22992   3.23090
 Alpha virt. eigenvalues --    3.23244   3.23301   3.23593   3.23863   3.24078
 Alpha virt. eigenvalues --    3.24445   3.24712   3.25383   3.25519   3.25586
 Alpha virt. eigenvalues --    3.26018   3.26241   3.26420   3.26555   3.27002
 Alpha virt. eigenvalues --    3.27337   3.27540   3.27623   3.28307   3.28583
 Alpha virt. eigenvalues --    3.29006   3.29307   3.29789   3.30062   3.30243
 Alpha virt. eigenvalues --    3.30855   3.31151   3.31688   3.31791   3.32252
 Alpha virt. eigenvalues --    3.32892   3.33639   3.33867   3.34077   3.34606
 Alpha virt. eigenvalues --    3.34821   3.35636   3.35837   3.36404   3.37210
 Alpha virt. eigenvalues --    3.37485   3.38211   3.38424   3.38958   3.39226
 Alpha virt. eigenvalues --    3.39860   3.40493   3.41579   3.42027   3.42306
 Alpha virt. eigenvalues --    3.43267   3.43591   3.44531   3.44891   3.45509
 Alpha virt. eigenvalues --    3.45864   3.46189   3.47176   3.47439   3.47778
 Alpha virt. eigenvalues --    3.48095   3.48455   3.49202   3.49540   3.50246
 Alpha virt. eigenvalues --    3.50542   3.51321   3.51613   3.51865   3.52413
 Alpha virt. eigenvalues --    3.53628   3.53897   3.54634   3.54972   3.55685
 Alpha virt. eigenvalues --    3.56216   3.56738   3.57281   3.57354   3.58477
 Alpha virt. eigenvalues --    3.59256   3.59492   3.59851   3.60211   3.60331
 Alpha virt. eigenvalues --    3.60963   3.61209   3.61915   3.62168   3.62216
 Alpha virt. eigenvalues --    3.62587   3.63127   3.63847   3.64321   3.64832
 Alpha virt. eigenvalues --    3.65189   3.65706   3.66528   3.66982   3.67291
 Alpha virt. eigenvalues --    3.68512   3.69123   3.69634   3.70442   3.70685
 Alpha virt. eigenvalues --    3.70766   3.72604   3.73114   3.73569   3.74238
 Alpha virt. eigenvalues --    3.74565   3.75467   3.75851   3.76296   3.77473
 Alpha virt. eigenvalues --    3.78344   3.78592   3.78791   3.79590   3.80712
 Alpha virt. eigenvalues --    3.81375   3.81765   3.82660   3.83370   3.84360
 Alpha virt. eigenvalues --    3.84919   3.85586   3.86436   3.86997   3.87368
 Alpha virt. eigenvalues --    3.88502   3.88841   3.89771   3.89997   3.90236
 Alpha virt. eigenvalues --    3.90856   3.90980   3.92397   3.92931   3.93089
 Alpha virt. eigenvalues --    3.93330   3.94789   3.95906   3.96612   3.97123
 Alpha virt. eigenvalues --    3.97414   3.97838   3.98811   3.99418   3.99908
 Alpha virt. eigenvalues --    4.00522   4.01523   4.01902   4.03785   4.04005
 Alpha virt. eigenvalues --    4.04870   4.05418   4.05713   4.06225   4.07105
 Alpha virt. eigenvalues --    4.07374   4.08151   4.08662   4.09063   4.09620
 Alpha virt. eigenvalues --    4.10218   4.10445   4.11218   4.11495   4.12336
 Alpha virt. eigenvalues --    4.12589   4.13161   4.13438   4.14162   4.15174
 Alpha virt. eigenvalues --    4.16324   4.16584   4.17980   4.18357   4.19193
 Alpha virt. eigenvalues --    4.19910   4.20414   4.20886   4.21467   4.21833
 Alpha virt. eigenvalues --    4.23100   4.23445   4.24025   4.25093   4.26708
 Alpha virt. eigenvalues --    4.27337   4.27532   4.28319   4.28969   4.29418
 Alpha virt. eigenvalues --    4.29953   4.30013   4.30491   4.31207   4.31581
 Alpha virt. eigenvalues --    4.32868   4.33295   4.33740   4.34006   4.34744
 Alpha virt. eigenvalues --    4.35419   4.35808   4.36033   4.36765   4.38858
 Alpha virt. eigenvalues --    4.39842   4.41151   4.41557   4.41962   4.42885
 Alpha virt. eigenvalues --    4.43723   4.45065   4.45390   4.45984   4.47784
 Alpha virt. eigenvalues --    4.49807   4.50856   4.51239   4.51741   4.53385
 Alpha virt. eigenvalues --    4.54207   4.55343   4.56283   4.56659   4.57073
 Alpha virt. eigenvalues --    4.57358   4.58631   4.60419   4.61273   4.63039
 Alpha virt. eigenvalues --    4.64197   4.64724   4.65860   4.66283   4.67599
 Alpha virt. eigenvalues --    4.69497   4.69819   4.70723   4.71614   4.72055
 Alpha virt. eigenvalues --    4.72456   4.72953   4.73629   4.74468   4.75251
 Alpha virt. eigenvalues --    4.75700   4.77547   4.78584   4.80491   4.81318
 Alpha virt. eigenvalues --    4.81445   4.82807   4.84018   4.85839   4.86534
 Alpha virt. eigenvalues --    4.87143   4.88566   4.89448   4.89710   4.90141
 Alpha virt. eigenvalues --    4.91299   4.92482   4.93144   4.93928   4.95794
 Alpha virt. eigenvalues --    4.96443   4.98225   4.98707   4.99710   5.01900
 Alpha virt. eigenvalues --    5.04292   5.05752   5.06109   5.07010   5.08362
 Alpha virt. eigenvalues --    5.09310   5.10044   5.10432   5.12133   5.13263
 Alpha virt. eigenvalues --    5.16226   5.22218   5.22873   5.23537   5.24419
 Alpha virt. eigenvalues --    5.25236   5.25833   5.26284   5.26901   5.30232
 Alpha virt. eigenvalues --    5.34134   5.35899   5.36412   5.37169   5.37922
 Alpha virt. eigenvalues --    5.38500   5.40176   5.45563   5.46994   5.47964
 Alpha virt. eigenvalues --    5.48595   5.50120   5.53074   5.54625   5.55157
 Alpha virt. eigenvalues --    5.59074   5.60950   5.62260   5.62677   5.63501
 Alpha virt. eigenvalues --    5.64767   5.70559   5.74550   5.77536   5.86767
 Alpha virt. eigenvalues --    5.87907   5.88583   5.92437   5.96385   5.97544
 Alpha virt. eigenvalues --    5.98667   6.04825   6.12151   6.19104   6.20296
 Alpha virt. eigenvalues --    6.27189   8.90148   9.04586   9.23831  19.36255
 Alpha virt. eigenvalues --   22.18737  22.24745  22.25695  22.35802  22.36327
 Alpha virt. eigenvalues --   22.43683  22.44425  22.51336  22.52035  22.67715
 Alpha virt. eigenvalues --   22.75818  22.77101  22.78871  22.81525  22.83849
 Alpha virt. eigenvalues --   22.84192  22.90322  22.92230  23.02171  23.13334
 Alpha virt. eigenvalues --   23.17554  23.18150  23.23919  23.30434  23.39009
 Alpha virt. eigenvalues --   23.39719  23.44431  23.62676  23.65914  23.67513
 Alpha virt. eigenvalues --   23.75698  32.71570  32.72982  32.74575  32.88115
  Beta  occ. eigenvalues -- -256.39375 -89.11868 -30.23552 -26.08019 -26.07497
  Beta  occ. eigenvalues --  -26.07305 -14.48215 -14.48128 -14.48089 -14.47974
  Beta  occ. eigenvalues --  -10.34939 -10.34138 -10.34111 -10.34099 -10.34063
  Beta  occ. eigenvalues --  -10.33938 -10.33936 -10.33884 -10.33847 -10.31318
  Beta  occ. eigenvalues --  -10.31241 -10.31207 -10.30939 -10.30881 -10.30844
  Beta  occ. eigenvalues --  -10.30775 -10.30765 -10.30759 -10.30654 -10.30566
  Beta  occ. eigenvalues --  -10.30499 -10.29681 -10.29488 -10.28853 -10.28808
  Beta  occ. eigenvalues --  -10.28802 -10.28785 -10.28722 -10.28332 -10.28232
  Beta  occ. eigenvalues --  -10.28164  -8.14588  -6.09072  -6.08864  -6.08529
  Beta  occ. eigenvalues --   -3.59118  -2.35730  -2.34624  -2.34183  -1.10565
  Beta  occ. eigenvalues --   -1.09576  -1.09448  -1.08487  -0.95078  -0.94739
  Beta  occ. eigenvalues --   -0.93320  -0.93049  -0.92711  -0.92405  -0.92243
  Beta  occ. eigenvalues --   -0.92132  -0.87988  -0.86896  -0.86542  -0.85478
  Beta  occ. eigenvalues --   -0.84082  -0.82116  -0.81133  -0.80143  -0.79698
  Beta  occ. eigenvalues --   -0.79524  -0.79356  -0.76616  -0.76401  -0.71814
  Beta  occ. eigenvalues --   -0.71389  -0.69902  -0.69701  -0.66545  -0.66049
  Beta  occ. eigenvalues --   -0.65266  -0.64234  -0.63210  -0.63066  -0.62286
  Beta  occ. eigenvalues --   -0.60344  -0.60189  -0.59589  -0.59358  -0.58339
  Beta  occ. eigenvalues --   -0.57338  -0.56735  -0.56155  -0.55717  -0.55521
  Beta  occ. eigenvalues --   -0.55355  -0.54665  -0.54525  -0.54252  -0.53902
  Beta  occ. eigenvalues --   -0.53796  -0.53361  -0.52371  -0.51879  -0.51686
  Beta  occ. eigenvalues --   -0.51621  -0.51504  -0.51383  -0.51256  -0.51091
  Beta  occ. eigenvalues --   -0.51009  -0.50637  -0.50319  -0.50270  -0.49759
  Beta  occ. eigenvalues --   -0.49433  -0.49212  -0.48984  -0.48869  -0.48395
  Beta  occ. eigenvalues --   -0.48007  -0.47378  -0.47135  -0.46199  -0.45239
  Beta  occ. eigenvalues --   -0.45081  -0.44665  -0.44152  -0.44051  -0.43689
  Beta  occ. eigenvalues --   -0.43306  -0.41132  -0.40741  -0.40022  -0.39138
  Beta  occ. eigenvalues --   -0.38626  -0.38058  -0.35659  -0.35247  -0.33758
  Beta  occ. eigenvalues --   -0.33368  -0.31679  -0.30083
  Beta virt. eigenvalues --   -0.21529  -0.19249  -0.18881  -0.17708  -0.13871
  Beta virt. eigenvalues --   -0.13208  -0.11675  -0.09800  -0.08994  -0.08381
  Beta virt. eigenvalues --   -0.06978  -0.05783  -0.04692  -0.03905  -0.03626
  Beta virt. eigenvalues --   -0.03392  -0.03372  -0.02697  -0.02433  -0.01881
  Beta virt. eigenvalues --   -0.01373  -0.01050  -0.00737  -0.00376   0.00107
  Beta virt. eigenvalues --    0.00635   0.01044   0.01344   0.01397   0.01620
  Beta virt. eigenvalues --    0.01719   0.01935   0.02245   0.02483   0.02557
  Beta virt. eigenvalues --    0.02852   0.03205   0.03532   0.03688   0.04041
  Beta virt. eigenvalues --    0.04271   0.04367   0.04853   0.05079   0.05345
  Beta virt. eigenvalues --    0.05906   0.05994   0.06139   0.06484   0.06726
  Beta virt. eigenvalues --    0.06745   0.06926   0.07081   0.07384   0.07457
  Beta virt. eigenvalues --    0.07860   0.07893   0.08134   0.08674   0.08989
  Beta virt. eigenvalues --    0.09223   0.09506   0.09614   0.09980   0.10148
  Beta virt. eigenvalues --    0.10344   0.10506   0.10798   0.11274   0.11454
  Beta virt. eigenvalues --    0.11757   0.11947   0.12083   0.12792   0.12879
  Beta virt. eigenvalues --    0.13216   0.13570   0.13721   0.13880   0.14556
  Beta virt. eigenvalues --    0.14892   0.15562   0.15758   0.16002   0.16147
  Beta virt. eigenvalues --    0.16455   0.16668   0.16908   0.17232   0.17647
  Beta virt. eigenvalues --    0.18054   0.18229   0.18391   0.18515   0.18934
  Beta virt. eigenvalues --    0.19173   0.19576   0.19708   0.20105   0.20299
  Beta virt. eigenvalues --    0.20555   0.20776   0.20909   0.21216   0.21567
  Beta virt. eigenvalues --    0.21784   0.22194   0.22547   0.22874   0.23097
  Beta virt. eigenvalues --    0.23434   0.23764   0.23872   0.24651   0.25008
  Beta virt. eigenvalues --    0.25254   0.25544   0.25693   0.25978   0.26086
  Beta virt. eigenvalues --    0.26342   0.26786   0.27343   0.27584   0.27891
  Beta virt. eigenvalues --    0.28418   0.28619   0.28845   0.29056   0.29250
  Beta virt. eigenvalues --    0.29498   0.29774   0.30117   0.30286   0.30546
  Beta virt. eigenvalues --    0.30782   0.31086   0.31421   0.31866   0.32021
  Beta virt. eigenvalues --    0.32198   0.32327   0.32440   0.32858   0.32968
  Beta virt. eigenvalues --    0.33420   0.33595   0.34010   0.34263   0.34605
  Beta virt. eigenvalues --    0.34829   0.34852   0.35039   0.35733   0.36010
  Beta virt. eigenvalues --    0.36068   0.36457   0.36648   0.36849   0.37024
  Beta virt. eigenvalues --    0.37257   0.37416   0.37507   0.37906   0.37965
  Beta virt. eigenvalues --    0.38264   0.38440   0.38895   0.38978   0.39416
  Beta virt. eigenvalues --    0.39595   0.39723   0.40003   0.40264   0.40470
  Beta virt. eigenvalues --    0.40936   0.41244   0.41265   0.41431   0.41782
  Beta virt. eigenvalues --    0.41893   0.42085   0.42226   0.42786   0.42992
  Beta virt. eigenvalues --    0.43155   0.43338   0.43503   0.43825   0.44100
  Beta virt. eigenvalues --    0.44546   0.44588   0.44944   0.45130   0.45354
  Beta virt. eigenvalues --    0.45581   0.46440   0.46596   0.46816   0.47023
  Beta virt. eigenvalues --    0.47283   0.47806   0.47865   0.48275   0.49022
  Beta virt. eigenvalues --    0.49042   0.49228   0.49974   0.50088   0.50771
  Beta virt. eigenvalues --    0.50972   0.51132   0.51869   0.51904   0.52370
  Beta virt. eigenvalues --    0.52670   0.52959   0.53054   0.53383   0.53741
  Beta virt. eigenvalues --    0.54152   0.54440   0.54577   0.55400   0.55452
  Beta virt. eigenvalues --    0.55993   0.56078   0.56563   0.56771   0.57023
  Beta virt. eigenvalues --    0.57559   0.57718   0.58062   0.58205   0.58440
  Beta virt. eigenvalues --    0.58629   0.59516   0.59547   0.59860   0.60319
  Beta virt. eigenvalues --    0.60444   0.60535   0.61269   0.61359   0.61893
  Beta virt. eigenvalues --    0.62392   0.62843   0.62934   0.63174   0.63476
  Beta virt. eigenvalues --    0.63908   0.64102   0.64402   0.64649   0.65208
  Beta virt. eigenvalues --    0.65407   0.65609   0.66156   0.66681   0.66911
  Beta virt. eigenvalues --    0.67299   0.67931   0.68308   0.68490   0.69252
  Beta virt. eigenvalues --    0.69473   0.69706   0.70134   0.70373   0.70849
  Beta virt. eigenvalues --    0.71538   0.72022   0.72416   0.72487   0.73088
  Beta virt. eigenvalues --    0.73697   0.74187   0.74738   0.74904   0.75203
  Beta virt. eigenvalues --    0.75730   0.76246   0.76473   0.77159   0.77525
  Beta virt. eigenvalues --    0.78167   0.78291   0.78446   0.78981   0.79563
  Beta virt. eigenvalues --    0.79602   0.80446   0.80516   0.81022   0.81244
  Beta virt. eigenvalues --    0.82104   0.82372   0.83054   0.83208   0.83310
  Beta virt. eigenvalues --    0.84229   0.84511   0.84987   0.85376   0.85461
  Beta virt. eigenvalues --    0.85653   0.86261   0.86641   0.87199   0.87446
  Beta virt. eigenvalues --    0.87712   0.88224   0.88664   0.89079   0.89318
  Beta virt. eigenvalues --    0.89542   0.89939   0.90157   0.90648   0.90875
  Beta virt. eigenvalues --    0.91328   0.91516   0.91874   0.92140   0.92694
  Beta virt. eigenvalues --    0.93004   0.93286   0.93496   0.93819   0.94097
  Beta virt. eigenvalues --    0.94469   0.94669   0.95315   0.95725   0.96441
  Beta virt. eigenvalues --    0.96809   0.97077   0.97895   0.98412   0.99141
  Beta virt. eigenvalues --    0.99476   1.00137   1.00328   1.00818   1.01016
  Beta virt. eigenvalues --    1.01973   1.02435   1.03128   1.03433   1.04477
  Beta virt. eigenvalues --    1.05407   1.05827   1.06533   1.07005   1.07132
  Beta virt. eigenvalues --    1.07282   1.07527   1.07933   1.08669   1.09198
  Beta virt. eigenvalues --    1.09387   1.09584   1.10417   1.10724   1.10889
  Beta virt. eigenvalues --    1.12094   1.12266   1.12498   1.13047   1.13498
  Beta virt. eigenvalues --    1.14464   1.14997   1.15049   1.15230   1.15770
  Beta virt. eigenvalues --    1.15868   1.16541   1.16739   1.17243   1.17535
  Beta virt. eigenvalues --    1.17801   1.18177   1.18351   1.19151   1.19561
  Beta virt. eigenvalues --    1.20304   1.20415   1.20695   1.21417   1.22454
  Beta virt. eigenvalues --    1.22739   1.24415   1.24945   1.25308   1.25785
  Beta virt. eigenvalues --    1.26287   1.26517   1.27369   1.28646   1.28823
  Beta virt. eigenvalues --    1.29692   1.30707   1.31052   1.31496   1.32230
  Beta virt. eigenvalues --    1.32384   1.32735   1.33404   1.33608   1.34559
  Beta virt. eigenvalues --    1.35063   1.35606   1.35788   1.36366   1.36585
  Beta virt. eigenvalues --    1.37152   1.37363   1.38038   1.38389   1.38896
  Beta virt. eigenvalues --    1.39341   1.39553   1.39855   1.40335   1.40731
  Beta virt. eigenvalues --    1.41010   1.41069   1.41570   1.41802   1.41881
  Beta virt. eigenvalues --    1.42435   1.42908   1.43071   1.43507   1.43849
  Beta virt. eigenvalues --    1.44252   1.44566   1.45027   1.45274   1.45485
  Beta virt. eigenvalues --    1.45927   1.46006   1.46162   1.46482   1.46807
  Beta virt. eigenvalues --    1.47074   1.47640   1.47890   1.48201   1.48431
  Beta virt. eigenvalues --    1.48695   1.48764   1.48911   1.49301   1.49484
  Beta virt. eigenvalues --    1.50166   1.50436   1.50613   1.50961   1.50998
  Beta virt. eigenvalues --    1.51671   1.51863   1.52654   1.53232   1.53274
  Beta virt. eigenvalues --    1.53496   1.53624   1.54035   1.54161   1.54617
  Beta virt. eigenvalues --    1.54896   1.55472   1.55764   1.55941   1.56599
  Beta virt. eigenvalues --    1.56925   1.57008   1.57397   1.57604   1.58375
  Beta virt. eigenvalues --    1.58629   1.59111   1.59323   1.59814   1.59962
  Beta virt. eigenvalues --    1.60377   1.60653   1.61090   1.61312   1.61821
  Beta virt. eigenvalues --    1.62347   1.62731   1.63408   1.63438   1.63890
  Beta virt. eigenvalues --    1.64438   1.65149   1.65673   1.65817   1.67050
  Beta virt. eigenvalues --    1.67498   1.68055   1.68288   1.69382   1.69862
  Beta virt. eigenvalues --    1.70473   1.70888   1.71181   1.72206   1.72394
  Beta virt. eigenvalues --    1.72893   1.73142   1.73449   1.73992   1.74174
  Beta virt. eigenvalues --    1.74949   1.75741   1.76199   1.76384   1.76959
  Beta virt. eigenvalues --    1.77818   1.78242   1.78990   1.79209   1.79645
  Beta virt. eigenvalues --    1.79825   1.81059   1.81939   1.82178   1.82932
  Beta virt. eigenvalues --    1.83513   1.83977   1.84451   1.84649   1.85021
  Beta virt. eigenvalues --    1.85829   1.85994   1.86266   1.86843   1.87576
  Beta virt. eigenvalues --    1.87816   1.88370   1.88912   1.89081   1.89623
  Beta virt. eigenvalues --    1.89885   1.90325   1.90772   1.90967   1.92087
  Beta virt. eigenvalues --    1.92606   1.93223   1.93658   1.94334   1.94850
  Beta virt. eigenvalues --    1.95037   1.95767   1.96146   1.96452   1.97072
  Beta virt. eigenvalues --    1.97738   1.98380   1.99046   1.99215   1.99313
  Beta virt. eigenvalues --    2.00583   2.01049   2.01249   2.01898   2.02570
  Beta virt. eigenvalues --    2.02862   2.03510   2.03694   2.04690   2.05274
  Beta virt. eigenvalues --    2.05709   2.06558   2.06715   2.07066   2.07736
  Beta virt. eigenvalues --    2.08151   2.08976   2.10242   2.10592   2.11069
  Beta virt. eigenvalues --    2.11724   2.11968   2.12501   2.12984   2.13432
  Beta virt. eigenvalues --    2.14045   2.14494   2.14906   2.15670   2.16289
  Beta virt. eigenvalues --    2.16328   2.17211   2.17551   2.17735   2.18201
  Beta virt. eigenvalues --    2.18888   2.19137   2.19481   2.19949   2.20186
  Beta virt. eigenvalues --    2.20768   2.21886   2.22082   2.22638   2.22870
  Beta virt. eigenvalues --    2.23800   2.24315   2.24980   2.25412   2.25596
  Beta virt. eigenvalues --    2.26125   2.26630   2.26792   2.27195   2.27980
  Beta virt. eigenvalues --    2.28303   2.28568   2.28752   2.29147   2.29526
  Beta virt. eigenvalues --    2.29687   2.30571   2.30804   2.31509   2.32122
  Beta virt. eigenvalues --    2.32384   2.33034   2.33568   2.33947   2.34997
  Beta virt. eigenvalues --    2.35434   2.35639   2.36138   2.36377   2.36879
  Beta virt. eigenvalues --    2.37241   2.37388   2.38001   2.38693   2.39376
  Beta virt. eigenvalues --    2.39803   2.40418   2.41645   2.41966   2.42726
  Beta virt. eigenvalues --    2.42865   2.43044   2.43476   2.44077   2.44370
  Beta virt. eigenvalues --    2.44493   2.44690   2.45430   2.46096   2.46323
  Beta virt. eigenvalues --    2.46701   2.46821   2.47216   2.47507   2.48127
  Beta virt. eigenvalues --    2.48310   2.49040   2.49315   2.49726   2.49943
  Beta virt. eigenvalues --    2.50098   2.50493   2.51306   2.51631   2.52661
  Beta virt. eigenvalues --    2.53152   2.53598   2.53954   2.54541   2.54731
  Beta virt. eigenvalues --    2.55108   2.55791   2.56064   2.56949   2.57311
  Beta virt. eigenvalues --    2.57718   2.57865   2.58069   2.58482   2.59112
  Beta virt. eigenvalues --    2.59657   2.59986   2.60413   2.60859   2.61788
  Beta virt. eigenvalues --    2.62183   2.62288   2.62929   2.63353   2.63778
  Beta virt. eigenvalues --    2.64158   2.64935   2.65661   2.66202   2.67017
  Beta virt. eigenvalues --    2.67513   2.67731   2.68259   2.68696   2.69125
  Beta virt. eigenvalues --    2.69506   2.70041   2.70553   2.71075   2.71673
  Beta virt. eigenvalues --    2.71901   2.72226   2.72791   2.73276   2.73465
  Beta virt. eigenvalues --    2.74290   2.74400   2.75040   2.75331   2.75947
  Beta virt. eigenvalues --    2.76174   2.76612   2.76707   2.77470   2.77726
  Beta virt. eigenvalues --    2.78158   2.78286   2.79055   2.79298   2.79889
  Beta virt. eigenvalues --    2.80652   2.80863   2.81241   2.81601   2.82013
  Beta virt. eigenvalues --    2.82361   2.83352   2.83763   2.84221   2.85053
  Beta virt. eigenvalues --    2.85354   2.85852   2.86600   2.86883   2.87090
  Beta virt. eigenvalues --    2.87489   2.87913   2.89089   2.89487   2.89644
  Beta virt. eigenvalues --    2.90260   2.90830   2.91139   2.91617   2.91915
  Beta virt. eigenvalues --    2.92417   2.92788   2.93454   2.93675   2.94078
  Beta virt. eigenvalues --    2.94565   2.95031   2.95593   2.95651   2.96094
  Beta virt. eigenvalues --    2.96786   2.97061   2.97427   2.97820   2.98005
  Beta virt. eigenvalues --    2.98213   2.98339   2.98932   2.99665   3.00034
  Beta virt. eigenvalues --    3.00252   3.00481   3.00747   3.01236   3.01813
  Beta virt. eigenvalues --    3.02117   3.02483   3.02946   3.03310   3.03650
  Beta virt. eigenvalues --    3.03890   3.04029   3.04940   3.05522   3.05657
  Beta virt. eigenvalues --    3.06175   3.06602   3.06634   3.07285   3.07650
  Beta virt. eigenvalues --    3.07704   3.08168   3.08623   3.08728   3.09220
  Beta virt. eigenvalues --    3.09373   3.09650   3.09850   3.10188   3.10620
  Beta virt. eigenvalues --    3.11157   3.11628   3.11870   3.12251   3.12386
  Beta virt. eigenvalues --    3.13165   3.13333   3.13720   3.13870   3.14212
  Beta virt. eigenvalues --    3.14454   3.14698   3.15052   3.15544   3.16000
  Beta virt. eigenvalues --    3.16214   3.16657   3.16817   3.17500   3.18026
  Beta virt. eigenvalues --    3.18347   3.18665   3.19148   3.19359   3.19752
  Beta virt. eigenvalues --    3.19985   3.20227   3.20278   3.20710   3.20972
  Beta virt. eigenvalues --    3.21190   3.21535   3.22110   3.22617   3.23012
  Beta virt. eigenvalues --    3.23112   3.23248   3.23299   3.23580   3.23896
  Beta virt. eigenvalues --    3.24111   3.24472   3.24732   3.25422   3.25541
  Beta virt. eigenvalues --    3.25608   3.26023   3.26264   3.26449   3.26581
  Beta virt. eigenvalues --    3.27011   3.27396   3.27535   3.27651   3.28321
  Beta virt. eigenvalues --    3.28601   3.29031   3.29333   3.29817   3.30108
  Beta virt. eigenvalues --    3.30275   3.30940   3.31213   3.31708   3.31811
  Beta virt. eigenvalues --    3.32274   3.32948   3.33641   3.33877   3.34086
  Beta virt. eigenvalues --    3.34628   3.34863   3.35636   3.35864   3.36406
  Beta virt. eigenvalues --    3.37243   3.37506   3.38266   3.38476   3.39059
  Beta virt. eigenvalues --    3.39236   3.39888   3.40626   3.41623   3.42071
  Beta virt. eigenvalues --    3.42326   3.43333   3.43639   3.44591   3.44921
  Beta virt. eigenvalues --    3.45618   3.45904   3.46202   3.47203   3.47458
  Beta virt. eigenvalues --    3.47908   3.48177   3.48489   3.49353   3.49628
  Beta virt. eigenvalues --    3.50324   3.50606   3.51357   3.51672   3.52099
  Beta virt. eigenvalues --    3.52421   3.53752   3.54054   3.54805   3.55082
  Beta virt. eigenvalues --    3.55724   3.56229   3.57139   3.57435   3.57814
  Beta virt. eigenvalues --    3.58667   3.59381   3.59563   3.59977   3.60313
  Beta virt. eigenvalues --    3.60745   3.61021   3.61323   3.62016   3.62238
  Beta virt. eigenvalues --    3.62256   3.62687   3.63493   3.64062   3.64448
  Beta virt. eigenvalues --    3.65176   3.65384   3.65951   3.66622   3.67081
  Beta virt. eigenvalues --    3.67577   3.68983   3.69805   3.70400   3.70787
  Beta virt. eigenvalues --    3.71263   3.71892   3.72748   3.73330   3.73653
  Beta virt. eigenvalues --    3.74502   3.74620   3.75603   3.76100   3.76686
  Beta virt. eigenvalues --    3.77679   3.78524   3.78735   3.79003   3.79806
  Beta virt. eigenvalues --    3.80910   3.81502   3.81877   3.82933   3.83770
  Beta virt. eigenvalues --    3.84620   3.85187   3.85600   3.86631   3.87359
  Beta virt. eigenvalues --    3.87438   3.88610   3.89149   3.90037   3.90479
  Beta virt. eigenvalues --    3.90535   3.91328   3.91532   3.92985   3.93192
  Beta virt. eigenvalues --    3.93328   3.93844   3.94954   3.96224   3.96709
  Beta virt. eigenvalues --    3.97494   3.97941   3.98262   3.99468   3.99756
  Beta virt. eigenvalues --    4.00522   4.01660   4.01896   4.02878   4.04038
  Beta virt. eigenvalues --    4.04423   4.05022   4.05776   4.05903   4.06491
  Beta virt. eigenvalues --    4.07424   4.07989   4.08694   4.08854   4.09261
  Beta virt. eigenvalues --    4.09637   4.10390   4.11268   4.12039   4.12308
  Beta virt. eigenvalues --    4.13058   4.13511   4.14045   4.14767   4.15516
  Beta virt. eigenvalues --    4.16085   4.16746   4.17019   4.18472   4.18903
  Beta virt. eigenvalues --    4.19363   4.20176   4.20738   4.21291   4.21609
  Beta virt. eigenvalues --    4.22023   4.23229   4.23662   4.24252   4.25385
  Beta virt. eigenvalues --    4.26735   4.27512   4.27936   4.28750   4.29165
  Beta virt. eigenvalues --    4.29911   4.30019   4.30231   4.30539   4.31645
  Beta virt. eigenvalues --    4.32349   4.33099   4.33331   4.33789   4.34064
  Beta virt. eigenvalues --    4.34853   4.35478   4.35835   4.36061   4.36774
  Beta virt. eigenvalues --    4.38907   4.39904   4.41181   4.41591   4.41978
  Beta virt. eigenvalues --    4.42893   4.43753   4.45114   4.45410   4.46011
  Beta virt. eigenvalues --    4.47790   4.49805   4.50963   4.51325   4.51861
  Beta virt. eigenvalues --    4.53514   4.54217   4.55343   4.56285   4.56649
  Beta virt. eigenvalues --    4.57073   4.57359   4.58693   4.60389   4.61292
  Beta virt. eigenvalues --    4.63089   4.64189   4.64722   4.65820   4.66308
  Beta virt. eigenvalues --    4.67571   4.69490   4.69828   4.70696   4.71607
  Beta virt. eigenvalues --    4.72040   4.72494   4.72940   4.73616   4.74431
  Beta virt. eigenvalues --    4.75194   4.75641   4.77501   4.78492   4.80345
  Beta virt. eigenvalues --    4.81107   4.81408   4.82650   4.83865   4.85833
  Beta virt. eigenvalues --    4.86459   4.87046   4.88363   4.89503   4.89595
  Beta virt. eigenvalues --    4.90051   4.91182   4.92415   4.93148   4.93893
  Beta virt. eigenvalues --    4.95774   4.96428   4.98202   4.98700   4.99656
  Beta virt. eigenvalues --    5.01862   5.04298   5.05684   5.06073   5.07003
  Beta virt. eigenvalues --    5.08276   5.09260   5.09795   5.10223   5.12050
  Beta virt. eigenvalues --    5.13180   5.16183   5.22095   5.22846   5.23486
  Beta virt. eigenvalues --    5.24298   5.25072   5.25678   5.26266   5.26747
  Beta virt. eigenvalues --    5.30244   5.34104   5.35774   5.36261   5.37005
  Beta virt. eigenvalues --    5.37804   5.38394   5.40060   5.45532   5.46902
  Beta virt. eigenvalues --    5.47867   5.48554   5.50105   5.53008   5.54638
  Beta virt. eigenvalues --    5.55130   5.59001   5.60876   5.62189   5.62610
  Beta virt. eigenvalues --    5.63422   5.64714   5.70523   5.74494   5.77498
  Beta virt. eigenvalues --    5.86671   5.87805   5.88466   5.92362   5.96324
  Beta virt. eigenvalues --    5.97502   5.98592   6.04758   6.12055   6.19039
  Beta virt. eigenvalues --    6.20234   6.27132   8.90055   9.04247   9.23704
  Beta virt. eigenvalues --   19.36105  22.18731  22.24746  22.25704  22.35801
  Beta virt. eigenvalues --   22.36325  22.43682  22.44423  22.51332  22.52032
  Beta virt. eigenvalues --   22.67705  22.75813  22.77096  22.78888  22.81515
  Beta virt. eigenvalues --   22.83849  22.84189  22.90269  22.92168  23.02106
  Beta virt. eigenvalues --   23.13350  23.17570  23.18165  23.23936  23.30456
  Beta virt. eigenvalues --   23.39028  23.39737  23.44448  23.62694  23.65935
  Beta virt. eigenvalues --   23.67535  23.75723  32.71422  32.72832  32.74427
  Beta virt. eigenvalues --   32.87968
          Condensed to atoms (all electrons):
          Atomic-Atomic Spin Densities.
 Mulliken charges and spin densities:
               1          2
     1  Fe  -0.207403   1.393100
     2  N   -0.082000  -0.081490
     3  N   -0.085116  -0.075035
     4  N   -0.044558  -0.080365
     5  N   -0.041667  -0.079621
     6  C    0.307694   0.019659
     7  C   -0.063121   0.000472
     8  C   -0.025618   0.018837
     9  C    0.262356   0.018786
    10  C    0.225088   0.016423
    11  C   -0.060920   0.017075
    12  C    0.073539  -0.001222
    13  C    0.277991   0.024480
    14  C    0.291792   0.023889
    15  C   -0.061704  -0.000101
    16  C    0.071860   0.020815
    17  C    0.230294   0.019604
    18  C    0.227667   0.019375
    19  C   -0.006102   0.016490
    20  C   -0.057636  -0.000736
    21  C    0.245259   0.021825
    22  C   -0.481330  -0.047351
    23  H    0.168330   0.002513
    24  C   -0.416437  -0.051594
    25  H    0.167044   0.002218
    26  C   -0.448388  -0.051102
    27  H    0.198928   0.002446
    28  C   -0.390231  -0.052551
    29  H    0.151282   0.002273
    30  C   -0.410753  -0.001297
    31  H    0.139339  -0.000095
    32  H    0.146599   0.000931
    33  H    0.160087   0.001087
    34  C   -0.402607  -0.001248
    35  H    0.156781   0.000232
    36  H    0.145135   0.000290
    37  H    0.138879  -0.000203
    38  C   -0.402378  -0.001259
    39  H    0.157764   0.001073
    40  H    0.147389   0.000862
    41  H    0.150149  -0.000071
    42  C   -0.230870  -0.000838
    43  H    0.145681  -0.000086
    44  C   -0.302837   0.000133
    45  H    0.155400   0.000105
    46  H    0.150618  -0.000116
    47  C   -0.438060  -0.001099
    48  H    0.145566   0.000131
    49  H    0.160226   0.000229
    50  H    0.173337  -0.000142
    51  C   -0.207422  -0.007534
    52  H    0.128006   0.000645
    53  C   -0.271448   0.013067
    54  H    0.155672  -0.000570
    55  H    0.148993  -0.000557
    56  C   -0.408555  -0.001177
    57  H    0.159239   0.001047
    58  H    0.147814   0.000814
    59  H    0.139857  -0.000050
    60  C   -0.396452  -0.000988
    61  H    0.151687   0.000113
    62  H    0.139346  -0.000150
    63  H    0.147167   0.000152
    64  C   -0.342255   0.000720
    65  H    0.164818   0.000312
    66  H    0.191331  -0.003813
    67  H    0.174119  -0.001033
    68  S    0.061518  -0.128616
    69  H    0.204229   0.009891
 Sum of Mulliken charges =   1.00000   1.00000
 Mulliken charges and spin densities with hydrogens summed into heavy atoms:
               1          2
     1  Fe  -0.207403   1.393100
     2  N   -0.082000  -0.081490
     3  N   -0.085116  -0.075035
     4  N   -0.044558  -0.080365
[...]
  1141. RY*(  25) C  56                  0.00000     3.54916   
  1142. RY*(  26) C  56                  0.00000     3.72244   
  1143. RY*(   1) H  57                  0.00034     0.89328   
  1144. RY*(   2) H  57                  0.00010     1.63490   
  1145. RY*(   3) H  57                  0.00005     2.11225   
  1146. RY*(   4) H  57                  0.00003     2.28784   
  1147. RY*(   5) H  57                  0.00001     2.93138   
  1148. RY*(   1) H  58                  0.00029     0.85503   
  1149. RY*(   2) H  58                  0.00011     1.69867   
  1150. RY*(   3) H  58                  0.00005     2.11606   
  1151. RY*(   4) H  58                  0.00003     2.31173   
  1152. RY*(   5) H  58                  0.00001     2.91808   
  1153. RY*(   1) H  59                  0.00030     0.79243   
  1154. RY*(   2) H  59                  0.00008     1.93876   
  1155. RY*(   3) H  59                  0.00005     2.10618   
  1156. RY*(   4) H  59                  0.00003     2.20957   
  1157. RY*(   5) H  59                  0.00000     2.93531   
  1158. RY*(   1) C  60                  0.00063     0.81718   
  1159. RY*(   2) C  60                  0.00060     1.01130   
  1160. RY*(   3) C  60                  0.00038     1.55229   
  1161. RY*(   4) C  60                  0.00012     1.08592   
  1162. RY*(   5) C  60                  0.00006     1.09604   
  1163. RY*(   6) C  60                  0.00005     1.12323   
  1164. RY*(   7) C  60                  0.00002     2.14266   
  1165. RY*(   8) C  60                  0.00002     1.12638   
  1166. RY*(   9) C  60                  0.00001     1.48281   
  1167. RY*(  10) C  60                  0.00000     1.64855   
  1168. RY*(  11) C  60                  0.00000     2.75174   
  1169. RY*(  12) C  60                  0.00000     1.44032   
  1170. RY*(  13) C  60                  0.00000     2.65838   
  1171. RY*(  14) C  60                  0.00001     2.14355   
  1172. RY*(  15) C  60                  0.00000     3.08063   
  1173. RY*(  16) C  60                  0.00000    21.46906   
  1174. RY*(  17) C  60                  0.00000     3.27277   
  1175. RY*(  18) C  60                  0.00001     1.58536   
  1176. RY*(  19) C  60                  0.00000     2.87532   
  1177. RY*(  20) C  60                  0.00000     3.16788   
  1178. RY*(  21) C  60                  0.00000     3.63411   
  1179. RY*(  22) C  60                  0.00000     3.51012   
  1180. RY*(  23) C  60                  0.00000     3.28407   
  1181. RY*(  24) C  60                  0.00000     3.44841   
  1182. RY*(  25) C  60                  0.00000     3.61497   
  1183. RY*(  26) C  60                  0.00000     3.62230   
  1184. RY*(   1) H  61                  0.00033     0.84776   
  1185. RY*(   2) H  61                  0.00011     1.68311   
  1186. RY*(   3) H  61                  0.00005     2.11191   
  1187. RY*(   4) H  61                  0.00003     2.29781   
  1188. RY*(   5) H  61                  0.00001     2.92829   
  1189. RY*(   1) H  62                  0.00030     0.78917   
  1190. RY*(   2) H  62                  0.00008     1.95182   
  1191. RY*(   3) H  62                  0.00005     2.09921   
  1192. RY*(   4) H  62                  0.00004     2.20854   
  1193. RY*(   5) H  62                  0.00000     2.93953   
  1194. RY*(   1) H  63                  0.00032     0.81044   
  1195. RY*(   2) H  63                  0.00011     1.71920   
  1196. RY*(   3) H  63                  0.00005     2.11260   
  1197. RY*(   4) H  63                  0.00003     2.30154   
  1198. RY*(   5) H  63                  0.00001     2.92972   
  1199. RY*(   1) C  64                  0.00056     1.25513   
  1200. RY*(   2) C  64                  0.00037     0.91146   
  1201. RY*(   3) C  64                  0.00029     1.02517   
  1202. RY*(   4) C  64                  0.00019     1.07624   
  1203. RY*(   5) C  64                  0.00015     1.26148   
  1204. RY*(   6) C  64                  0.00006     0.79938   
  1205. RY*(   7) C  64                  0.00006     1.02056   
  1206. RY*(   8) C  64                  0.00004     1.19183   
  1207. RY*(   9) C  64                  0.00003     1.28394   
  1208. RY*(  10) C  64                  0.00001     0.99162   
  1209. RY*(  11) C  64                  0.00000     2.85798   
  1210. RY*(  12) C  64                  0.00001     1.61745   
  1211. RY*(  13) C  64                  0.00000     2.82712   
  1212. RY*(  14) C  64                  0.00000     1.43864   
  1213. RY*(  15) C  64                  0.00000     3.07290   
  1214. RY*(  16) C  64                  0.00000    20.80122   
  1215. RY*(  17) C  64                  0.00000     2.86931   
  1216. RY*(  18) C  64                  0.00001     2.15386   
  1217. RY*(  19) C  64                  0.00000     2.91824   
  1218. RY*(  20) C  64                  0.00000     3.26771   
  1219. RY*(  21) C  64                  0.00000     3.15920   
  1220. RY*(  22) C  64                  0.00000     3.31464   
  1221. RY*(  23) C  64                  0.00000     3.14850   
  1222. RY*(  24) C  64                  0.00000     3.17354   
  1223. RY*(  25) C  64                  0.00000     3.03828   
  1224. RY*(  26) C  64                  0.00000     3.33323   
  1225. RY*(   1) H  65                  0.00024     1.45294   
  1226. RY*(   2) H  65                  0.00009     1.78012   
  1227. RY*(   3) H  65                  0.00003     2.12872   
  1228. RY*(   4) H  65                  0.00001     2.78014   
  1229. RY*(   5) H  65                  0.00002     1.41426   
  1230. RY*(   1) H  66                  0.00026     1.29386   
  1231. RY*(   2) H  66                  0.00005     1.10989   
  1232. RY*(   3) H  66                  0.00003     1.97409   
  1233. RY*(   4) H  66                  0.00004     2.00348   
  1234. RY*(   5) H  66                  0.00000     2.83340   
  1235. RY*(   1) H  67                  0.00038     1.38569   
  1236. RY*(   2) H  67                  0.00010     1.93204   
  1237. RY*(   3) H  67                  0.00005     2.14192   
  1238. RY*(   4) H  67                  0.00002     1.97384   
  1239. RY*(   5) H  67                  0.00001     2.50580   
  1240. RY*(   1) S  68                  0.00260     0.49053   
  1241. RY*(   2) S  68                  0.00166     0.53900   
  1242. RY*(   3) S  68                  0.00100     0.69932   
  1243. RY*(   4) S  68                  0.00081     0.72825   
  1244. RY*(   5) S  68                  0.00048     1.35466   
  1245. RY*(   6) S  68                  0.00045     0.81604   
  1246. RY*(   7) S  68                  0.00019     1.43167   
  1247. RY*(   8) S  68                  0.00014     1.28315   
  1248. RY*(   9) S  68                  0.00006     1.90746   
  1249. RY*(  10) S  68                  0.00004     1.90839   
  1250. RY*(  11) S  68                  0.00001     1.60368   
  1251. RY*(  12) S  68                  0.00000     8.28022   
  1252. RY*(  13) S  68                  0.00000    16.79197   
  1253. RY*(  14) S  68                  0.00000     2.03728   
  1254. RY*(  15) S  68                  0.00000     8.49187   
  1255. RY*(  16) S  68                  0.00000     8.09447   
  1256. RY*(  17) S  68                  0.00001     1.71795   
  1257. RY*(  18) S  68                  0.00001     2.06247   
  1258. RY*(  19) S  68                  0.00001     1.95281   
  1259. RY*(  20) S  68                  0.00001     2.50675   
  1260. RY*(  21) S  68                  0.00001     1.57480   
  1261. RY*(  22) S  68                  0.00001     2.01220   
  1262. RY*(  23) S  68                  0.00000     1.86714   
  1263. RY*(  24) S  68                  0.00000     1.91948   
  1264. RY*(  25) S  68                  0.00000     1.79418   
  1265. RY*(  26) S  68                  0.00001     2.08338   
  1266. RY*(  27) S  68                  0.00000     2.02352   
  1267. RY*(  28) S  68                  0.00000     1.98764   
  1268. RY*(   1) H  69                  0.00066     0.81547   
  1269. RY*(   2) H  69                  0.00013     1.70104   
  1270. RY*(   3) H  69                  0.00013     1.95755   
  1271. RY*(   4) H  69                  0.00004     1.88933   
  1272. RY*(   5) H  69                  0.00001     2.50073   
  1273. BD*(   1)Fe   1 - N   4          0.06632     0.10717   
  1274. BD*(   1)Fe   1 - N   5          0.06562     0.10655   
  1275. BD*(   1)Fe   1 - S  68          0.01478     0.08778   
  1276. BD*(   1) N   2 - C   6          0.01378     0.36572   
  1277. BD*(   2) N   2 - C   6          0.33554    -0.12542  1322(v),1290(v),1295(v)
                                                    143(r),281(g),176(g),141(r)
                                                    695(v),280(g)
  1278. BD*(   1) N   2 - C   9          0.01351     0.36855   
  1279. BD*(   1) N   3 - C  10          0.01366     0.37121   
  1280. BD*(   2) N   3 - C  10          0.33338    -0.12239  1295(v),1299(v),1304(v)
                                                    143(r),142(r),385(g),1285(r)
                                                    201(g),726(v),386(g)
  1281. BD*(   1) N   3 - C  13          0.01293     0.37574   
  1282. BD*(   1) N   4 - C  14          0.01401     0.37466   
  1283. BD*(   1) N   4 - C  17          0.01325     0.37375   
  1284. BD*(   1) N   5 - C  18          0.01397     0.37104   
  1285. BD*(   2) N   5 - C  18          0.33469    -0.12334  1313(v),1317(v),1322(v)
                                                    143(v),593(g),142(v),253(g)
                                                    1280(r),257(g)
  1286. BD*(   1) N   5 - C  21          0.01387     0.37272   
  1287. BD*(   1) C   6 - C   7          0.01756     0.37599   
  1288. BD*(   1) C   6 - C  22          0.01032     0.45128   
  1289. BD*(   1) C   7 - C   8          0.01164     0.49470   
  1290. BD*(   2) C   7 - C   8          0.11968    -0.04292  1295(v),1277(v),1329(v)
                                                    1331(v),1330(v),1328(v)
  1291. BD*(   1) C   7 - C  34          0.00809     0.31007   
  1292. BD*(   1) C   8 - C   9          0.01757     0.37267   
  1293. BD*(   1) C   8 - C  30          0.00796     0.31034   
  1294. BD*(   1) C   9 - C  24          0.01039     0.45733   
  1295. BD*(   2) C   9 - C  24          0.19886    -0.07502  1280(v),1290(v),1322(r)
                                                    1277(v),726(g),1304(r)
                                                    361(g)
  1296. BD*(   1) C  10 - C  11          0.01713     0.38014   
  1297. BD*(   1) C  10 - C  24          0.01048     0.45130   
  1298. BD*(   1) C  11 - C  12          0.01141     0.48203   
  1299. BD*(   2) C  11 - C  12          0.13202    -0.04552  1338(v),1304(v),1280(v)
                                                    1333(v),1334(v),1336(v)
  1300. BD*(   1) C  11 - C  38          0.00773     0.31088   
  1301. BD*(   1) C  12 - C  13          0.01882     0.37142   
  1302. BD*(   1) C  12 - C  42          0.01322     0.38648   
  1303. BD*(   1) C  13 - C  26          0.01008     0.45964   
  1304. BD*(   2) C  13 - C  26          0.18927    -0.06997  12(v),1299(v),1280(v),758(g)
                                                    1313(r),1295(r),463(g)
                                                    1338(r)
  1305. BD*(   1) C  14 - C  15          0.01675     0.38100   
  1306. BD*(   1) C  14 - C  26          0.01052     0.45853   
  1307. BD*(   1) C  15 - C  16          0.01267     0.48265   
  1308. BD*(   2) C  15 - C  16          0.13563    -0.04396  1346(v),1313(v),12(v)
                                                    1342(v),1341(v)
  1309. BD*(   1) C  15 - C  47          0.00759     0.31552   
  1310. BD*(   1) C  16 - C  17          0.01694     0.36926   
  1311. BD*(   1) C  16 - C  51          0.01326     0.39141   
  1312. BD*(   1) C  17 - C  28          0.01017     0.45383   
  1313. BD*(   2) C  17 - C  28          0.19879    -0.07350  1285(v),1308(v),12(v)
                                                    1322(r),1304(r),789(g)
                                                    569(g)
  1314. BD*(   1) C  18 - C  19          0.01746     0.37144   
  1315. BD*(   1) C  18 - C  28          0.01038     0.45443   
  1316. BD*(   1) C  19 - C  20          0.01160     0.49246   
  1317. BD*(   2) C  19 - C  20          0.11982    -0.04429  1322(v),1285(v),1349(v)
                                                    1354(v),1352(v),1350(v)
  1318. BD*(   1) C  19 - C  56          0.00793     0.31029   
  1319. BD*(   1) C  20 - C  21          0.01728     0.37316   
  1320. BD*(   1) C  20 - C  60          0.00803     0.30944   
  1321. BD*(   1) C  21 - C  22          0.01027     0.45405   
  1322. BD*(   2) C  21 - C  22          0.19809    -0.07529  1277(v),1317(v),1285(v)
                                                    1295(r),695(g),1313(r)
                                                    671(g)
  1323. BD*(   1) C  22 - H  23          0.00608     0.31994   
  1324. BD*(   1) C  24 - H  25          0.00615     0.31987   
  1325. BD*(   1) C  26 - H  27          0.00709     0.32724   
  1326. BD*(   1) C  28 - H  29          0.00625     0.32012   
  1327. BD*(   1) C  30 - H  31          0.00298     0.29756   
  1328. BD*(   1) C  30 - H  32          0.00423     0.28341   
  1329. BD*(   1) C  30 - H  33          0.00457     0.28525   
  1330. BD*(   1) C  34 - H  35          0.00439     0.28587   
  1331. BD*(   1) C  34 - H  36          0.00454     0.28294   
  1332. BD*(   1) C  34 - H  37          0.00293     0.29778   
  1333. BD*(   1) C  38 - H  39          0.00471     0.28394   
  1334. BD*(   1) C  38 - H  40          0.00401     0.28584   
  1335. BD*(   1) C  38 - H  41          0.00265     0.29875   
  1336. BD*(   1) C  42 - H  43          0.01033     0.32874   
  1337. BD*(   1) C  42 - C  44          0.00339     0.52574   
  1338. BD*(   2) C  42 - C  44          0.02507    -0.02767   
  1339. BD*(   1) C  44 - H  45          0.00539     0.33877   
  1340. BD*(   1) C  44 - H  46          0.00405     0.34786   
  1341. BD*(   1) C  47 - H  48          0.00421     0.29456   
  1342. BD*(   1) C  47 - H  49          0.00521     0.28675   
  1343. BD*(   1) C  47 - H  50          0.00361     0.30233   
  1344. BD*(   1) C  51 - H  52          0.01022     0.32752   
  1345. BD*(   1) C  51 - C  53          0.00363     0.53758   
  1346. BD*(   2) C  51 - C  53          0.02742    -0.03508   
  1347. BD*(   1) C  53 - H  54          0.00507     0.34468   
  1348. BD*(   1) C  53 - H  55          0.00380     0.34928   
  1349. BD*(   1) C  56 - H  57          0.00476     0.28419   
  1350. BD*(   1) C  56 - H  58          0.00402     0.28507   
  1351. BD*(   1) C  56 - H  59          0.00296     0.29671   
  1352. BD*(   1) C  60 - H  61          0.00454     0.28434   
  1353. BD*(   1) C  60 - H  62          0.00292     0.29708   
  1354. BD*(   1) C  60 - H  63          0.00446     0.28280   
  1355. BD*(   1) C  64 - H  65          0.00356     0.24437   
  1356. BD*(   1) C  64 - H  66          0.00437     0.24645   
  1357. BD*(   1) C  64 - H  67          0.00582     0.25419   
  1358. BD*(   1) C  64 - S  68          0.00653    -0.00107   
  1359. BD*(   1) S  68 - H  69          0.00665     0.04717   
       -------------------------------
              Total Lewis  139.00178  ( 97.2040%)
        Valence non-Lewis    3.74310  (  2.6175%)
        Rydberg non-Lewis    0.25512  (  0.1784%)
       -------------------------------
            Total unit  1  143.00000  (100.0000%)
           Charge unit  1    1.00000
 Unable to Open any file for archive entry.
 1\1\GINC-BGN1039\SP\UAPFD\def2TZVP\C31H32Fe1N4S1(1+,2)\BECSLEIP\29-Sep
 -2024\0\\# apfd/def2TZVP guess=read scf=maxcycle=999 geom=check pop=nb
 o\\5g6n_III_D\\1,2\Fe,0,-0.2167460081,17.306362185,22.0225492949\N,0,0
 .2630377281,15.5151942209,22.8038939533\N,0,-1.0707539843,17.810680316
 4,23.8023749427\N,0,-0.4003576616,19.204485696,21.4848664619\N,0,0.895
 8098757,16.8840736726,20.452824929\C,0,1.1685301222,14.6216989436,22.3
 051578914\C,0,1.4632134956,13.5826937116,23.2608105621\C,0,0.714543086
 9,13.8583101541,24.3616576584\C,0,-0.0011833809,15.0787440437,24.06994
 93175\C,0,-1.3286457971,16.9723212739,24.8463442458\C,0,-2.0109209119,
 17.6613258223,25.9087605676\C,0,-2.168909042,18.9529449944,25.49045929
 04\C,0,-1.5720222522,19.0214700304,24.1732268236\C,0,-0.8608176154,20.
 2687911122,22.1993731859\C,0,-0.7146228924,21.4942447234,21.4578820314
 \C,0,-0.1643400795,21.1501113857,20.253088475\C,0,0.046793315,19.71657
 81216,20.3053356601\C,0,1.037265007,17.6830122022,19.3588814236\C,0,1.
 8201395273,17.0195006789,18.3407696869\C,0,2.1593618487,15.804146708,1
 8.8499131842\C,0,1.569930778,15.7364684748,20.1666761992\C,0,1.7175549
 717,14.6738018012,21.0364257425\H,0,2.345503261,13.8532866956,20.72629
 83204\C,0,-0.8676857765,15.6745087973,24.9621179079\H,0,-1.0736603653,
 15.1544428102,25.8843000315\C,0,-1.4449433775,20.1875992731,23.4481260
 528\H,0,-1.7992514394,21.0985524015,23.9030352483\C,0,0.607311694,18.9
 92466485,19.2699742438\H,0,0.8207200475,19.5200806125,18.3534226261\C,
 0,0.6333546959,13.1246422853,25.6552884047\H,0,1.2221109389,12.2117941
 908,25.6170399447\H,0,-0.3988764961,12.8570771139,25.8816941191\H,0,1.
 0097509068,13.7427693676,26.4705887813\C,0,2.4167146196,12.4646453424,
 23.0175947728\H,0,3.4082187489,12.852702616,22.785244147\H,0,2.0866879
 392,11.8534841962,22.1768830277\H,0,2.4953418148,11.8271708509,23.8944
 772498\C,0,-2.4514028738,17.0415174008,27.1890850127\H,0,-1.5891687959
 ,16.7501344533,27.7905422116\H,0,-3.0474106504,16.1491306146,27.000441
 9699\H,0,-3.0527876187,17.7419881737,27.7629646274\C,0,-2.8192520617,2
 0.0309983985,26.2103633904\H,0,-2.6176205541,20.0653828929,27.27527371
 9\C,0,-3.6486753143,20.9189220891,25.6758793462\H,0,-3.9209074831,20.8
 908678476,24.634397483\H,0,-4.1070508935,21.6912519118,26.2708767526\C
 ,0,-1.0502486899,22.8478288042,21.9761431785\H,0,-0.7850294917,22.9325
 235251,23.0288007779\H,0,-2.1187997094,23.0458909908,21.8799217499\H,0
 ,-0.5079330222,23.6066304062,21.4158282655\C,0,0.2091676184,22.0000936
 67,19.1431873938\H,0,1.0916025099,21.6947251188,18.5935911999\C,0,-0.4
 4303669,23.0932844048,18.7625819829\H,0,-1.349417262,23.4157454596,19.
 2442736426\H,0,-0.1035703984,23.6906998046,17.9329408274\C,0,2.1651058
 385,17.6201141661,17.0223343364\H,0,2.838546235,18.4676250375,17.15323
 03213\H,0,1.2680743939,17.9758051346,16.5164688501\H,0,2.6553112328,16
 .8909166184,16.3822249722\C,0,2.9740019811,14.7158645145,18.2411761656
 \H,0,3.8528739594,14.5094460184,18.8519025647\H,0,3.3084468598,14.9944
 800744,17.2453038284\H,0,2.3915675297,13.7973017045,18.1655761606\C,0,
 -1.8448165258,15.1130280793,20.096271249\H,0,-1.4415417602,15.47819334
 01,19.1574921077\H,0,-2.7619933551,14.5600432242,19.91999578\H,0,-1.10
 39910369,14.5035097159,20.6029541023\S,0,-2.2191458883,16.5890600248,2
 1.1126984507\H,0,-2.6800554253,15.8918130732,22.1599711747\\Version=ES
 64L-G16RevC.02\State=2-A\HF=-3080.5636397\S2=1.176741\S2-1=0.\S2A=0.76
 7825\RMSD=4.359e-09\Dipole=-0.5065866,-1.1933019,-0.4432062\Quadrupole
 =-19.6864042,11.882146,7.8042582,-11.0968643,-14.9575848,-3.9648944\PG
 =C01 [X(C31H32Fe1N4S1)]\\@
 The archive entry for this job was punched.


 TO BEHOLD HARMS OF OUR OWN HANDS DOING,
 WHERE NONE BESIDE US WROUGHT,
 CAUSES SHARP RUING...

                                         SOPHOCLES
 Job cpu time:       1 days  4 hours 24 minutes 46.8 seconds.
 Elapsed time:       0 days  0 hours 26 minutes 41.8 seconds.
 File lengths (MBytes):  RWF=   1706 Int=      0 D2E=      0 Chk=    156 Scr=      1
 Normal termination of Gaussian 16 at Sun Sep 29 11:42:33 2024.
