 Entering Gaussian System, Link 0=g16
 Input=5g6p16re.com
 Output=5g6p16re.log
 Initial command:
 /sw/chem/gaussian/g16_C02/a100/g16/l1.exe "/local/becsleip_8033580/Gau-427468.inp" -scrdir="/local/becsleip_8033580/"
 Entering Link 1 = /sw/chem/gaussian/g16_C02/a100/g16/l1.exe PID=    427469.
  
 Copyright (c) 1988-2021, Gaussian, Inc.  All Rights Reserved.
  
 This is part of the Gaussian(R) 16 program.  It is based on
 the Gaussian(R) 09 system (copyright 2009, Gaussian, Inc.),
 the Gaussian(R) 03 system (copyright 2003, Gaussian, Inc.),
 the Gaussian(R) 98 system (copyright 1998, Gaussian, Inc.),
 the Gaussian(R) 94 system (copyright 1995, Gaussian, Inc.),
 the Gaussian 92(TM) system (copyright 1992, Gaussian, Inc.),
 the Gaussian 90(TM) system (copyright 1990, Gaussian, Inc.),
 the Gaussian 88(TM) system (copyright 1988, Gaussian, Inc.),
 the Gaussian 86(TM) system (copyright 1986, Carnegie Mellon
 University), and the Gaussian 82(TM) system (copyright 1983,
 Carnegie Mellon University). Gaussian is a federally registered
 trademark of Gaussian, Inc.
  
 This software contains proprietary and confidential information,
 including trade secrets, belonging to Gaussian, Inc.
  
 This software is provided under written license and may be
 used, copied, transmitted, or stored only in accord with that
 written license.
  
 The following legend is applicable only to US Government
 contracts under FAR:
  
                    RESTRICTED RIGHTS LEGEND
  
 Use, reproduction and disclosure by the US Government is
 subject to restrictions as set forth in subparagraphs (a)
 and (c) of the Commercial Computer Software - Restricted
 Rights clause in FAR 52.227-19.
  
 Gaussian, Inc.
 340 Quinnipiac St., Bldg. 40, Wallingford CT 06492
  
  
 ---------------------------------------------------------------
 Warning -- This program may not be used in any manner that
 competes with the business of Gaussian, Inc. or will provide
 assistance to any competitor of Gaussian, Inc.  The licensee
 of this program is prohibited from giving any competitor of
 Gaussian, Inc. access to this program.  By using this program,
 the user acknowledges that Gaussian, Inc. is engaged in the
 business of creating and licensing software in the field of
 computational chemistry and represents and warrants to the
 licensee that it is not a competitor of Gaussian, Inc. and that
 it will not use this program in any manner prohibited above.
 ---------------------------------------------------------------
  

 Cite this work as:
 Gaussian 16, Revision C.02,
 M. J. Frisch, G. W. Trucks, H. B. Schlegel, G. E. Scuseria, 
 M. A. Robb, J. R. Cheeseman, G. Scalmani, V. Barone, 
 G. A. Petersson, H. Nakatsuji, X. Li, M. Caricato, A. V. Marenich, 
 J. Bloino, B. G. Janesko, R. Gomperts, B. Mennucci, H. P. Hratchian, 
 J. V. Ortiz, A. F. Izmaylov, J. L. Sonnenberg, D. Williams-Young, 
 F. Ding, F. Lipparini, F. Egidi, J. Goings, B. Peng, A. Petrone, 
 T. Henderson, D. Ranasinghe, V. G. Zakrzewski, J. Gao, N. Rega, 
 G. Zheng, W. Liang, M. Hada, M. Ehara, K. Toyota, R. Fukuda, 
 J. Hasegawa, M. Ishida, T. Nakajima, Y. Honda, O. Kitao, H. Nakai, 
 T. Vreven, K. Throssell, J. A. Montgomery, Jr., J. E. Peralta, 
 F. Ogliaro, M. J. Bearpark, J. J. Heyd, E. N. Brothers, K. N. Kudin, 
 V. N. Staroverov, T. A. Keith, R. Kobayashi, J. Normand, 
 K. Raghavachari, A. P. Rendell, J. C. Burant, S. S. Iyengar, 
 J. Tomasi, M. Cossi, J. M. Millam, M. Klene, C. Adamo, R. Cammi, 
 J. W. Ochterski, R. L. Martin, K. Morokuma, O. Farkas, 
 J. B. Foresman, and D. J. Fox, Gaussian, Inc., Wallingford CT, 2019.
 
 ******************************************
 Gaussian 16:  ES64L-G16RevC.02  7-Dec-2021
                29-Sep-2024 
 ******************************************
 %mem=16GB
 %CPU=0-71
 SetSPE:  set environment variable "OMP_PROC_BIND" = "true"
 SetSPE:  set environment variable "OMP_PLACES" = "{0},{1},{2},{3},{4},{5},{6},{7},{8},{9},{10},{11},{12},{13},{14},{15},{16},{17},{18},{19},{20},{21},{22},{23},{24},{25},{26},{27},{28},{29},{30},{31},{32},{33},{34},{35},{36},{37},{38},{39},{40},{41},{42},{43},{44},{45},{46},{47},{48},{49},{50},{51},{52},{53},{54},{55},{56},{57},{58},{59},{60},{61},{62},{63},{64},{65},{66},{67},{68},{69},{70},{71}"
 Will use up to   72 processors via shared memory.
 %gpucpu=0,1,2,3=0,1,2,3
 Will use    4 GPUs:
 Thread  CPU   GPU
      0    0     0
      1    1     1
      2    2     2
      3    3     3
      4    4    -1
      5    5    -1
      6    6    -1
      7    7    -1
      8    8    -1
      9    9    -1
     10   10    -1
     11   11    -1
     12   12    -1
     13   13    -1
     14   14    -1
     15   15    -1
     16   16    -1
     17   17    -1
     18   18    -1
     19   19    -1
     20   20    -1
     21   21    -1
     22   22    -1
     23   23    -1
     24   24    -1
     25   25    -1
     26   26    -1
     27   27    -1
     28   28    -1
     29   29    -1
     30   30    -1
     31   31    -1
     32   32    -1
     33   33    -1
     34   34    -1
     35   35    -1
     36   36    -1
     37   37    -1
     38   38    -1
     39   39    -1
     40   40    -1
     41   41    -1
     42   42    -1
     43   43    -1
     44   44    -1
     45   45    -1
     46   46    -1
     47   47    -1
     48   48    -1
     49   49    -1
     50   50    -1
     51   51    -1
     52   52    -1
     53   53    -1
     54   54    -1
     55   55    -1
     56   56    -1
     57   57    -1
     58   58    -1
     59   59    -1
     60   60    -1
     61   61    -1
     62   62    -1
     63   63    -1
     64   64    -1
     65   65    -1
     66   66    -1
     67   67    -1
     68   68    -1
     69   69    -1
     70   70    -1
     71   71    -1
 SetGPE:  set environment variable "OMP_PROC_BIND" = "true"
 SetGPE:  set environment variable "OMP_PLACES" = "{0},{1},{2},{3},{4},{5},{6},{7},{8},{9},{10},{11},{12},{13},{14},{15},{16},{17},{18},{19},{20},{21},{22},{23},{24},{25},{26},{27},{28},{29},{30},{31},{32},{33},{34},{35},{36},{37},{38},{39},{40},{41},{42},{43},{44},{45},{46},{47},{48},{49},{50},{51},{52},{53},{54},{55},{56},{57},{58},{59},{60},{61},{62},{63},{64},{65},{66},{67},{68},{69},{70},{71}"
 %oldchk=5g6p_III_D.chk
 %chk=5g6p_III_Dre.chk
 Properties for Device   0
 Minimum vector length:                              32
 Maximum vector length:                            1024
 Number of SMPs:                                    108
 Maximum number of threads per SMP:                2048
 Number of ASync Engines:                             5
 Memory:                                           9207742464
 Properties for Device   1
 Minimum vector length:                              32
 Maximum vector length:                            1024
 Number of SMPs:                                    108
 Maximum number of threads per SMP:                2048
 Number of ASync Engines:                             5
 Memory:                                           9207742464
 Properties for Device   2
 Minimum vector length:                              32
 Maximum vector length:                            1024
 Number of SMPs:                                    108
 Maximum number of threads per SMP:                2048
 Number of ASync Engines:                             5
 Memory:                                           9207742464
 Properties for Device   3
 Minimum vector length:                              32
 Maximum vector length:                            1024
 Number of SMPs:                                    108
 Maximum number of threads per SMP:                2048
 Number of ASync Engines:                             5
 Memory:                                           9207742464
   8286968217 words of memory will be used on each GPU.
 Copying data from "5g6p_III_D.chk" to current chk file "5g6p_III_Dre.chk"
 IOpt=  2 FromEx=T IUOpen= 4 IOptOp= 5 NList=   0 IFRang= 0 IUIn= 4 IUOut= 2.
 --------------------------------------
 # apfd/gen scf=maxcycle=999 geom=check
 --------------------------------------
 1/29=2,38=1,172=1/1;
 2/12=2,40=1/2;
 3/5=7,11=2,14=-4,25=1,30=1,74=-44/1,2,3;
 4//1;
 5/5=2,7=999,38=5/2;
 6/7=2,8=2,9=2,10=2,28=1/1;
 99/5=1,9=1/99;
 ----------
 5g6p_III_H
 ----------
 Structure from the checkpoint file:  "5g6p_III_Dre.chk"
 Charge =  1 Multiplicity = 6
 Z-Matrix found in chk file.
 Fe,0,-0.1230793782,17.2918900569,21.9514522329
 N,0,0.2578227275,15.4562334623,22.6998542304
 N,0,-0.9919660773,17.7773507458,23.741524767
 N,0,-0.3763538358,19.1810952763,21.4112919395
 N,0,0.9544282957,16.8600694787,20.3746894654
 C,0,1.1265729851,14.5421067706,22.1754357993
 C,0,1.4009717095,13.4786748953,23.1106358868
 C,0,0.6759212581,13.7615559223,24.2250790892
 C,0,-0.012126219,15.0035003076,23.9564391373
 C,0,-1.243971536,16.9382300491,24.7843839044
 C,0,-1.9200448944,17.6247550848,25.8543543815
 C,0,-2.0916693183,18.9133285797,25.435928572
 C,0,-1.496724156,18.9851071805,24.1166176201
 C,0,-0.837269959,20.2411605913,22.1309115961
 C,0,-0.6842291383,21.4700370889,21.3987260152
 C,0,-0.1082339646,21.1358357703,20.2023244698
 C,0,0.1042649626,19.703331366,20.2474883383
 C,0,1.1262416076,17.6787714183,19.2984599481
 C,0,1.9184767879,17.0231224537,18.2833529368
 C,0,2.2193232873,15.7877641163,18.7692274579
 C,0,1.605160517,15.7018700454,20.07354614
 C,0,1.6934194322,14.6099555916,20.9145335448
 H,0,2.2972532876,13.7765401334,20.5909048526
 C,0,-0.8185454957,15.6289891211,24.8830937139
 H,0,-1.0270542759,15.1047770658,25.8023391026
 C,0,-1.4068599882,20.1505818364,23.3858133606
 H,0,-1.7678272062,21.0565086056,23.845380985
 C,0,0.6979360057,18.9903786866,19.220825619
 H,0,0.940243163,19.5319209649,18.3196557812
 C,0,0.5862726072,13.0124760124,25.5093735206
 H,0,1.1683616481,12.0955689694,25.4616818079
 H,0,-0.4487909745,12.7507009379,25.7294420374
 H,0,0.9655368752,13.6173033424,26.3332827246
 C,0,2.3168684648,12.3354094237,22.841181125
 H,0,3.3224315133,12.6943978732,22.6219676234
 H,0,1.9686846371,11.7577026411,21.9843599812
 H,0,2.3698245909,11.6734492832,23.7018681438
 C,0,-2.3562495879,16.9987317226,27.1328843802
 H,0,-1.4962993343,16.6348826346,27.6961847932
 H,0,-3.016008752,16.1531591981,26.939828901
 H,0,-2.8927955879,17.7191229338,27.7444767615
 C,0,-2.7459734234,19.9870958428,26.1591032606
 H,0,-2.5314105272,20.0269838379,27.2215177067
 C,0,-3.592453946,20.8642050034,25.6338060071
 H,0,-3.87886883,20.8302209487,24.5962223804
 H,0,-4.0516516081,21.6326923439,26.2332925071
 C,0,-1.0326564306,22.8199842199,21.9177427685
 H,0,-0.7873169054,22.9001342487,22.9754587361
 H,0,-2.0998024406,23.01595637,21.8028581832
 H,0,-0.4820491742,23.5829694889,21.3713526938
 C,0,0.2848786468,21.9973036529,19.1078831716
 H,0,1.1834628334,21.7044237752,18.5778000412
 C,0,-0.3684810509,23.0871214119,18.7200219778
 H,0,-1.2901754992,23.3960850408,19.1814669515
 H,0,-0.0156458512,23.6944045,17.9032706764
 C,0,2.3027927311,17.6472988059,16.9869524149
 H,0,2.9519191721,18.5069980117,17.1554446089
 H,0,1.419313973,17.9910979071,16.4490969952
 H,0,2.8339025719,16.9371400022,16.3582778779
 C,0,3.0189386868,14.6955466806,18.1478488827
 H,0,3.8975372365,14.4729678463,18.7535723376
 H,0,3.352747773,14.979262685,17.153112303
 H,0,2.4258650088,13.7843387189,18.0656426976
 C,0,-1.9144936387,14.9669660115,20.3211388086
 H,0,-0.9304017463,14.8507589468,19.8792758559
 H,0,-2.6999021245,14.7489177013,19.6042629472
 H,0,-2.0059609945,14.3199914196,21.1873998512
 S,0,-2.1161744033,16.6803528595,20.9312436191
 H,0,-1.9358567235,17.2534340805,19.7321310505
 Recover connectivity data from disk.
 Stoichiometry    C31H32FeN4S(1+,6)
 Framework group  C1[X(C31H32FeN4S)]
 Deg. of freedom   201
 Full point group                 C1      NOp   1
 Largest Abelian subgroup         C1      NOp   1
 Largest concise Abelian subgroup C1      NOp   1
                         Standard orientation:                         
 ---------------------------------------------------------------------
 Center     Atomic      Atomic             Coordinates (Angstroms)
 Number     Number       Type             X           Y           Z
 ---------------------------------------------------------------------
      1         26           0        0.178838   -0.027146    0.025189
      2          7           0        2.007185    0.824358   -0.057959
      3          7           0       -0.635771    1.847945   -0.099086
      4          7           0       -1.663245   -0.745074   -0.102588
      5          7           0        1.007173   -1.794169   -0.133439
      6          6           0        3.180860    0.176992   -0.320206
      7          6           0        4.241252    1.108192   -0.618900
      8          6           0        3.689256    2.347298   -0.531607
      9          6           0        2.296810    2.148205   -0.200763
     10          6           0        0.030130    3.035287   -0.054596
     11          6           0       -0.882587    4.147416   -0.112430
     12          6           0       -2.136920    3.611681   -0.180207
     13          6           0       -1.955449    2.174059   -0.178141
     14          6           0       -2.841051   -0.095839   -0.315431
     15          6           0       -3.917447   -1.028624   -0.517768
     16          6           0       -3.365471   -2.278444   -0.427709
     17          6           0       -1.949204   -2.074311   -0.200156
     18          6           0        0.334141   -2.978702   -0.089032
     19          6           0        1.255746   -4.089164   -0.163014
     20          6           0        2.502029   -3.548904   -0.250137
     21          6           0        2.327747   -2.115436   -0.225289
     22          6           0        3.354401   -1.196202   -0.316488
     23          1           0        4.354731   -1.575405   -0.456051
     24          6           0        1.401702    3.188297   -0.069505
     25          1           0        1.791038    4.193447   -0.106611
     26          6           0       -2.993983    1.276737   -0.307527
     27          1           0       -3.983931    1.677462   -0.454584
     28          6           0       -1.041361   -3.111802   -0.080926
     29          1           0       -1.436021   -4.115949   -0.085534
     30          6           0        4.317905    3.679438   -0.752456
     31          1           0        5.379728    3.574295   -0.960537
     32          1           0        4.201878    4.309437    0.129560
     33          1           0        3.851556    4.188310   -1.596287
     34          6           0        5.637478    0.714720   -0.956926
     35          1           0        5.652097    0.080054   -1.842967
     36          1           0        6.090127    0.159668   -0.134645
     37          1           0        6.247658    1.592450   -1.154530
     38          6           0       -0.487907    5.582387   -0.068775
     39          1           0        0.128769    5.838219   -0.931021
     40          1           0        0.086859    5.794320    0.832488
     41          1           0       -1.368951    6.218506   -0.070599
     42          6           0       -3.393907    4.333763   -0.231733
     43          1           0       -3.394344    5.216998   -0.861215
     44          6           0       -4.489212    4.020928    0.449610
     45          1           0       -4.519763    3.186080    1.129216
     46          1           0       -5.388528    4.609110    0.371557
     47          6           0       -5.322064   -0.653286   -0.832905
     48          1           0       -5.349610    0.207416   -1.499096
     49          1           0       -5.867400   -0.394406    0.075937
     50          1           0       -5.831291   -1.485640   -1.314290
     51          6           0       -4.002289   -3.569118   -0.579661
     52          1           0       -3.401542   -4.337669   -1.051521
     53          6           0       -5.235932   -3.864242   -0.184637
     54          1           0       -5.857339   -3.152465    0.330279
     55          1           0       -5.657384   -4.843537   -0.338675
     56          6           0        0.845651   -5.520838   -0.154069
     57          1           0        0.254824   -5.753624   -1.040393
     58          1           0        0.238876   -5.741308    0.724133
     59          1           0        1.715813   -6.172256   -0.143668
     60          6           0        3.822587   -4.228988   -0.359897
     61          1           0        4.311542   -3.965226   -1.297836
     62          1           0        3.704545   -5.309025   -0.328114
     63          1           0        4.478007   -3.929586    0.458380
     64          6           0        1.804605   -0.456455    2.931206
     65          1           0        2.265705   -1.206115    2.296713
     66          1           0        1.765094   -0.781915    3.966018
     67          1           0        2.351090    0.477540    2.851461
     68         16           0        0.105834   -0.113924    2.343458
     69          1           0       -0.329443   -1.372304    2.504146
 ---------------------------------------------------------------------
 Rotational constants (GHZ):           0.1135859           0.1079858           0.0605869
 General basis read from cards:  (5D, 7F)
 There are   644 symmetry adapted cartesian basis functions of A   symmetry.
 There are   605 symmetry adapted basis functions of A   symmetry.
   605 basis functions,  1246 primitive gaussians,   644 cartesian basis functions
   146 alpha electrons      141 beta electrons
       nuclear repulsion energy      5042.0968403611 Hartrees.
 NAtoms=   69 NActive=   69 NUniq=   69 SFac= 1.00D+00 NAtFMM=   60 NAOKFM=T Big=T
 Integral buffers will be    131072 words long.
 Raffenetti 2 integral format.
 Two-electron integral symmetry is turned on.
 R6APFD:  NTU= -4 IXU= 1 FactS= 1.050
 Nuclear repulsion after empirical dispersion term =     5041.9639054515 Hartrees.
 One-electron integrals computed using PRISM.
 NBasis=   605 RedAO= T EigKep=  2.64D-04  NBF=   605
 NBsUse=   605 1.00D-06 EigRej= -1.00D+00 NBFU=   605
 ExpMin= 4.20D-02 ExpMax= 3.01D+05 ExpMxC= 3.30D+03 IAcc=3 IRadAn=         5 AccDes= 0.00D+00
 Harris functional with IExCor= 3731 and IRadAn=       5 diagonalized for initial guess.
 HarFok:  IExCor= 3731 AccDes= 0.00D+00 IRadAn=         5 IDoV= 1 UseB2=F ITyADJ=14
 ICtDFT=  3500011 ScaDFX=  1.000000  1.000000  1.000000  1.000000
 FoFCou: FMM=F IPFlag=           0 FMFlag=      100000 FMFlg1=        2001
         NFxFlg=           0 DoJE=T BraDBF=F KetDBF=T FulRan=T
         wScrn=  0.000000 ICntrl=       500 IOpCl=  0 I1Cent=   200000004 NGrid=           0
         NMat0=    1 NMatS0=      1 NMatT0=    0 NMatD0=    1 NMtDS0=    0 NMtDT0=    0
 Petite list used in FoFCou.
 Initial guess <Sx>= 0.0000 <Sy>= 0.0000 <Sz>= 2.5000 <S**2>= 8.7500 S= 2.5000
 Requested convergence on RMS density matrix=1.00D-08 within 999 cycles.
 Requested convergence on MAX density matrix=1.00D-06.
 Requested convergence on             energy=1.00D-06.
 No special actions if energy rises.
 EnCoef did   100 forward-backward iterations
 EnCoef did   100 forward-backward iterations
 EnCoef did   100 forward-backward iterations
 EnCoef did   100 forward-backward iterations
 EnCoef did     9 forward-backward iterations
 EnCoef did     4 forward-backward iterations
 EnCoef did     4 forward-backward iterations
 EnCoef did    10 forward-backward iterations
 EnCoef did     2 forward-backward iterations
 Restarting incremental Fock formation.
 SCF Done:  E(UAPFD) =  -3080.03929736     A.U. after   34 cycles
            NFock= 34  Conv=0.88D-08     -V/T= 2.0030
 <Sx>= 0.0000 <Sy>= 0.0000 <Sz>= 2.5000 <S**2>= 8.7636 S= 2.5023
 <L.S>=  0.00000000000    
 Annihilation of the first spin contaminant:
 S**2 before annihilation     8.7636,   after     8.7501

 **********************************************************************

            Population analysis using the SCF Density.

 **********************************************************************

 Orbital symmetries:
 Alpha Orbitals:
       Occupied  (A) (A) (A) (A) (A) (A) (A) (A) (A) (A) (A) (A)
                 (A) (A) (A) (A) (A) (A) (A) (A) (A) (A) (A) (A)
                 (A) (A) (A) (A) (A) (A) (A) (A) (A) (A) (A) (A)
                 (A) (A) (A) (A) (A) (A) (A) (A) (A) (A) (A) (A)
                 (A) (A) (A) (A) (A) (A) (A) (A) (A) (A) (A) (A)
                 (A) (A) (A) (A) (A) (A) (A) (A) (A) (A) (A) (A)
                 (A) (A) (A) (A) (A) (A) (A) (A) (A) (A) (A) (A)
                 (A) (A) (A) (A) (A) (A) (A) (A) (A) (A) (A) (A)
                 (A) (A) (A) (A) (A) (A) (A) (A) (A) (A) (A) (A)
                 (A) (A) (A) (A) (A) (A) (A) (A) (A) (A) (A) (A)
                 (A) (A) (A) (A) (A) (A) (A) (A) (A) (A) (A) (A)
                 (A) (A) (A) (A) (A) (A) (A) (A) (A) (A) (A) (A)
                 (A) (A)
       Virtual   (A) (A) (A) (A) (A) (A) (A) (A) (A) (A) (A) (A)
                 (A) (A) (A) (A) (A) (A) (A) (A) (A) (A) (A) (A)
                 (A) (A) (A) (A) (A) (A) (A) (A) (A) (A) (A) (A)
                 (A) (A) (A) (A) (A) (A) (A) (A) (A) (A) (A) (A)
                 (A) (A) (A) (A) (A) (A) (A) (A) (A) (A) (A) (A)
                 (A) (A) (A) (A) (A) (A) (A) (A) (A) (A) (A) (A)
                 (A) (A) (A) (A) (A) (A) (A) (A) (A) (A) (A) (A)
                 (A) (A) (A) (A) (A) (A) (A) (A) (A) (A) (A) (A)
                 (A) (A) (A) (A) (A) (A) (A) (A) (A) (A) (A) (A)
                 (A) (A) (A) (A) (A) (A) (A) (A) (A) (A) (A) (A)
                 (A) (A) (A) (A) (A) (A) (A) (A) (A) (A) (A) (A)
                 (A) (A) (A) (A) (A) (A) (A) (A) (A) (A) (A) (A)
                 (A) (A) (A) (A) (A) (A) (A) (A) (A) (A) (A) (A)
                 (A) (A) (A) (A) (A) (A) (A) (A) (A) (A) (A) (A)
                 (A) (A) (A) (A) (A) (A) (A) (A) (A) (A) (A) (A)
                 (A) (A) (A) (A) (A) (A) (A) (A) (A) (A) (A) (A)
                 (A) (A) (A) (A) (A) (A) (A) (A) (A) (A) (A) (A)
                 (A) (A) (A) (A) (A) (A) (A) (A) (A) (A) (A) (A)
                 (A) (A) (A) (A) (A) (A) (A) (A) (A) (A) (A) (A)
                 (A) (A) (A) (A) (A) (A) (A) (A) (A) (A) (A) (A)
                 (A) (A) (A) (A) (A) (A) (A) (A) (A) (A) (A) (A)
                 (A) (A) (A) (A) (A) (A) (A) (A) (A) (A) (A) (A)
                 (A) (A) (A) (A) (A) (A) (A) (A) (A) (A) (A) (A)
                 (A) (A) (A) (A) (A) (A) (A) (A) (A) (A) (A) (A)
                 (A) (A) (A) (A) (A) (A) (A) (A) (A) (A) (A) (A)
                 (A) (A) (A) (A) (A) (A) (A) (A) (A) (A) (A) (A)
                 (A) (A) (A) (A) (A) (A) (A) (A) (A) (A) (A) (A)
                 (A) (A) (A) (A) (A) (A) (A) (A) (A) (A) (A) (A)
                 (A) (A) (A) (A) (A) (A) (A) (A) (A) (A) (A) (A)
                 (A) (A) (A) (A) (A) (A) (A) (A) (A) (A) (A) (A)
                 (A) (A) (A) (A) (A) (A) (A) (A) (A) (A) (A) (A)
                 (A) (A) (A) (A) (A) (A) (A) (A) (A) (A) (A) (A)
                 (A) (A) (A) (A) (A) (A) (A) (A) (A) (A) (A) (A)
                 (A) (A) (A) (A) (A) (A) (A) (A) (A) (A) (A) (A)
                 (A) (A) (A) (A) (A) (A) (A) (A) (A) (A) (A) (A)
                 (A) (A) (A) (A) (A) (A) (A) (A) (A) (A) (A) (A)
                 (A) (A) (A) (A) (A) (A) (A) (A) (A) (A) (A) (A)
                 (A) (A) (A) (A) (A) (A) (A) (A) (A) (A) (A) (A)
                 (A) (A) (A)
 Beta  Orbitals:
       Occupied  (A) (A) (A) (A) (A) (A) (A) (A) (A) (A) (A) (A)
                 (A) (A) (A) (A) (A) (A) (A) (A) (A) (A) (A) (A)
                 (A) (A) (A) (A) (A) (A) (A) (A) (A) (A) (A) (A)
                 (A) (A) (A) (A) (A) (A) (A) (A) (A) (A) (A) (A)
                 (A) (A) (A) (A) (A) (A) (A) (A) (A) (A) (A) (A)
                 (A) (A) (A) (A) (A) (A) (A) (A) (A) (A) (A) (A)
                 (A) (A) (A) (A) (A) (A) (A) (A) (A) (A) (A) (A)
                 (A) (A) (A) (A) (A) (A) (A) (A) (A) (A) (A) (A)
                 (A) (A) (A) (A) (A) (A) (A) (A) (A) (A) (A) (A)
                 (A) (A) (A) (A) (A) (A) (A) (A) (A) (A) (A) (A)
                 (A) (A) (A) (A) (A) (A) (A) (A) (A) (A) (A) (A)
                 (A) (A) (A) (A) (A) (A) (A) (A) (A)
       Virtual   (A) (A) (A) (A) (A) (A) (A) (A) (A) (A) (A) (A)
                 (A) (A) (A) (A) (A) (A) (A) (A) (A) (A) (A) (A)
                 (A) (A) (A) (A) (A) (A) (A) (A) (A) (A) (A) (A)
                 (A) (A) (A) (A) (A) (A) (A) (A) (A) (A) (A) (A)
                 (A) (A) (A) (A) (A) (A) (A) (A) (A) (A) (A) (A)
                 (A) (A) (A) (A) (A) (A) (A) (A) (A) (A) (A) (A)
                 (A) (A) (A) (A) (A) (A) (A) (A) (A) (A) (A) (A)
                 (A) (A) (A) (A) (A) (A) (A) (A) (A) (A) (A) (A)
                 (A) (A) (A) (A) (A) (A) (A) (A) (A) (A) (A) (A)
                 (A) (A) (A) (A) (A) (A) (A) (A) (A) (A) (A) (A)
                 (A) (A) (A) (A) (A) (A) (A) (A) (A) (A) (A) (A)
                 (A) (A) (A) (A) (A) (A) (A) (A) (A) (A) (A) (A)
                 (A) (A) (A) (A) (A) (A) (A) (A) (A) (A) (A) (A)
                 (A) (A) (A) (A) (A) (A) (A) (A) (A) (A) (A) (A)
                 (A) (A) (A) (A) (A) (A) (A) (A) (A) (A) (A) (A)
                 (A) (A) (A) (A) (A) (A) (A) (A) (A) (A) (A) (A)
                 (A) (A) (A) (A) (A) (A) (A) (A) (A) (A) (A) (A)
                 (A) (A) (A) (A) (A) (A) (A) (A) (A) (A) (A) (A)
                 (A) (A) (A) (A) (A) (A) (A) (A) (A) (A) (A) (A)
                 (A) (A) (A) (A) (A) (A) (A) (A) (A) (A) (A) (A)
                 (A) (A) (A) (A) (A) (A) (A) (A) (A) (A) (A) (A)
                 (A) (A) (A) (A) (A) (A) (A) (A) (A) (A) (A) (A)
                 (A) (A) (A) (A) (A) (A) (A) (A) (A) (A) (A) (A)
                 (A) (A) (A) (A) (A) (A) (A) (A) (A) (A) (A) (A)
                 (A) (A) (A) (A) (A) (A) (A) (A) (A) (A) (A) (A)
                 (A) (A) (A) (A) (A) (A) (A) (A) (A) (A) (A) (A)
                 (A) (A) (A) (A) (A) (A) (A) (A) (A) (A) (A) (A)
                 (A) (A) (A) (A) (A) (A) (A) (A) (A) (A) (A) (A)
                 (A) (A) (A) (A) (A) (A) (A) (A) (A) (A) (A) (A)
                 (A) (A) (A) (A) (A) (A) (A) (A) (A) (A) (A) (A)
                 (A) (A) (A) (A) (A) (A) (A) (A) (A) (A) (A) (A)
                 (A) (A) (A) (A) (A) (A) (A) (A) (A) (A) (A) (A)
                 (A) (A) (A) (A) (A) (A) (A) (A) (A) (A) (A) (A)
                 (A) (A) (A) (A) (A) (A) (A) (A) (A) (A) (A) (A)
                 (A) (A) (A) (A) (A) (A) (A) (A) (A) (A) (A) (A)
                 (A) (A) (A) (A) (A) (A) (A) (A) (A) (A) (A) (A)
                 (A) (A) (A) (A) (A) (A) (A) (A) (A) (A) (A) (A)
                 (A) (A) (A) (A) (A) (A) (A) (A) (A) (A) (A) (A)
                 (A) (A) (A) (A) (A) (A) (A) (A)
 The electronic state is 6-A.
 Alpha  occ. eigenvalues -- -256.43202 -89.09376 -30.33959 -26.16993 -26.16947
 Alpha  occ. eigenvalues --  -26.16825 -14.48477 -14.48389 -14.48161 -14.47825
 Alpha  occ. eigenvalues --  -10.34968 -10.34792 -10.34780 -10.34633 -10.34621
 Alpha  occ. eigenvalues --  -10.34552 -10.34460 -10.34455 -10.34317 -10.31693
 Alpha  occ. eigenvalues --  -10.31682 -10.31616 -10.31605 -10.31481 -10.31439
 Alpha  occ. eigenvalues --  -10.31399 -10.31372 -10.31296 -10.31270 -10.31108
 Alpha  occ. eigenvalues --  -10.31054 -10.30232 -10.30129 -10.29261 -10.29246
 Alpha  occ. eigenvalues --  -10.29121 -10.29055 -10.28985 -10.28838 -10.28832
 Alpha  occ. eigenvalues --  -10.28699  -8.12784  -6.07310  -6.07060  -6.06626
 Alpha  occ. eigenvalues --   -3.79247  -2.55975  -2.55859  -2.55684  -1.10564
 Alpha  occ. eigenvalues --   -1.09530  -1.09368  -1.08382  -0.94774  -0.94249
 Alpha  occ. eigenvalues --   -0.93333  -0.92932  -0.92727  -0.92362  -0.91963
 Alpha  occ. eigenvalues --   -0.91906  -0.87834  -0.86605  -0.86319  -0.85363
 Alpha  occ. eigenvalues --   -0.83995  -0.82087  -0.81038  -0.79849  -0.79555
 Alpha  occ. eigenvalues --   -0.79481  -0.79300  -0.76408  -0.76157  -0.71614
 Alpha  occ. eigenvalues --   -0.71507  -0.69626  -0.69604  -0.66381  -0.65928
 Alpha  occ. eigenvalues --   -0.65226  -0.64674  -0.63614  -0.63017  -0.62623
 Alpha  occ. eigenvalues --   -0.62015  -0.60588  -0.59448  -0.59364  -0.58793
 Alpha  occ. eigenvalues --   -0.58469  -0.57775  -0.56781  -0.56767  -0.56509
 Alpha  occ. eigenvalues --   -0.55977  -0.55813  -0.55317  -0.54826  -0.54646
 Alpha  occ. eigenvalues --   -0.54372  -0.54253  -0.54071  -0.53704  -0.53416
 Alpha  occ. eigenvalues --   -0.53170  -0.52566  -0.52093  -0.51725  -0.51589
 Alpha  occ. eigenvalues --   -0.51364  -0.51275  -0.51035  -0.50700  -0.50530
 Alpha  occ. eigenvalues --   -0.49988  -0.49933  -0.49835  -0.49651  -0.49218
 Alpha  occ. eigenvalues --   -0.49008  -0.48706  -0.48195  -0.47945  -0.47555
 Alpha  occ. eigenvalues --   -0.46965  -0.46178  -0.46042  -0.45916  -0.44641
 Alpha  occ. eigenvalues --   -0.44558  -0.43848  -0.43491  -0.43386  -0.40715
 Alpha  occ. eigenvalues --   -0.39876  -0.39105  -0.38364  -0.38210  -0.35115
 Alpha  occ. eigenvalues --   -0.34951  -0.34157  -0.33246  -0.33178  -0.30642
 Alpha  occ. eigenvalues --   -0.29734
 Alpha virt. eigenvalues --   -0.18640  -0.18454  -0.12543  -0.10116  -0.08786
 Alpha virt. eigenvalues --   -0.08008  -0.06447  -0.05849  -0.03489  -0.03015
 Alpha virt. eigenvalues --   -0.02324  -0.00469   0.00197   0.01064   0.01194
 Alpha virt. eigenvalues --    0.02377   0.02803   0.02953   0.03142   0.03498
 Alpha virt. eigenvalues --    0.03955   0.04080   0.04399   0.04880   0.04942
 Alpha virt. eigenvalues --    0.05430   0.05921   0.06581   0.06602   0.06906
 Alpha virt. eigenvalues --    0.07223   0.07508   0.07892   0.08402   0.08629
 Alpha virt. eigenvalues --    0.08825   0.08944   0.09344   0.09771   0.10075
 Alpha virt. eigenvalues --    0.10302   0.11182   0.11402   0.11495   0.11832
 Alpha virt. eigenvalues --    0.12143   0.12375   0.12894   0.13242   0.13688
 Alpha virt. eigenvalues --    0.13711   0.14316   0.14600   0.15488   0.15749
 Alpha virt. eigenvalues --    0.15990   0.16894   0.17152   0.18482   0.18846
 Alpha virt. eigenvalues --    0.19445   0.20139   0.20351   0.21339   0.22714
 Alpha virt. eigenvalues --    0.22958   0.23721   0.23771   0.24188   0.24312
 Alpha virt. eigenvalues --    0.24937   0.25674   0.26350   0.26639   0.27552
 Alpha virt. eigenvalues --    0.29221   0.30497   0.31772   0.32104   0.32438
 Alpha virt. eigenvalues --    0.32802   0.33865   0.34441   0.34926   0.36331
 Alpha virt. eigenvalues --    0.37344   0.37449   0.38193   0.38689   0.39008
 Alpha virt. eigenvalues --    0.39265   0.39977   0.40278   0.40836   0.41742
 Alpha virt. eigenvalues --    0.41897   0.42262   0.42663   0.42776   0.43732
 Alpha virt. eigenvalues --    0.44280   0.44723   0.44989   0.45498   0.46231
 Alpha virt. eigenvalues --    0.46493   0.47021   0.47211   0.48561   0.48799
 Alpha virt. eigenvalues --    0.49118   0.49534   0.50108   0.50681   0.50851
 Alpha virt. eigenvalues --    0.50964   0.51505   0.51907   0.52201   0.52833
 Alpha virt. eigenvalues --    0.53208   0.53474   0.53933   0.54656   0.54800
 Alpha virt. eigenvalues --    0.55688   0.55766   0.56109   0.56346   0.56959
 Alpha virt. eigenvalues --    0.57054   0.57316   0.57745   0.58622   0.59424
 Alpha virt. eigenvalues --    0.59464   0.60273   0.61617   0.61707   0.62000
 Alpha virt. eigenvalues --    0.62724   0.63023   0.63730   0.64168   0.64300
 Alpha virt. eigenvalues --    0.65134   0.65328   0.65545   0.66225   0.66506
 Alpha virt. eigenvalues --    0.66874   0.67369   0.67812   0.67954   0.68288
 Alpha virt. eigenvalues --    0.68537   0.69111   0.69277   0.69842   0.70307
 Alpha virt. eigenvalues --    0.70579   0.70699   0.71855   0.72479   0.72765
 Alpha virt. eigenvalues --    0.73449   0.74343   0.75829   0.76225   0.76978
 Alpha virt. eigenvalues --    0.77294   0.77651   0.77868   0.78183   0.78806
 Alpha virt. eigenvalues --    0.79544   0.79767   0.79929   0.80214   0.80681
 Alpha virt. eigenvalues --    0.81435   0.81829   0.81905   0.82074   0.82634
 Alpha virt. eigenvalues --    0.82813   0.83081   0.83279   0.84158   0.84324
 Alpha virt. eigenvalues --    0.85242   0.85601   0.86060   0.86703   0.86927
 Alpha virt. eigenvalues --    0.87147   0.87978   0.88679   0.88996   0.89371
 Alpha virt. eigenvalues --    0.89673   0.90009   0.90201   0.90345   0.90987
 Alpha virt. eigenvalues --    0.91546   0.91978   0.92359   0.93034   0.93840
 Alpha virt. eigenvalues --    0.94427   0.95303   0.95494   0.95748   0.96293
 Alpha virt. eigenvalues --    0.96973   0.97260   0.99233   0.99752   1.01563
 Alpha virt. eigenvalues --    1.02606   1.03164   1.04324   1.04537   1.04804
 Alpha virt. eigenvalues --    1.05943   1.06705   1.07215   1.07493   1.08688
 Alpha virt. eigenvalues --    1.08749   1.09170   1.09608   1.10165   1.10892
 Alpha virt. eigenvalues --    1.11113   1.11383   1.11867   1.12333   1.13691
 Alpha virt. eigenvalues --    1.15210   1.15857   1.16593   1.17503   1.18159
 Alpha virt. eigenvalues --    1.18846   1.19237   1.21624   1.22125   1.22641
 Alpha virt. eigenvalues --    1.23686   1.24115   1.24512   1.25266   1.25748
 Alpha virt. eigenvalues --    1.26489   1.26807   1.27402   1.27614   1.28313
 Alpha virt. eigenvalues --    1.28905   1.30440   1.32129   1.32829   1.34193
 Alpha virt. eigenvalues --    1.34287   1.35372   1.36942   1.37516   1.38290
 Alpha virt. eigenvalues --    1.38409   1.40228   1.40662   1.41695   1.41866
 Alpha virt. eigenvalues --    1.42972   1.43749   1.45037   1.46420   1.47631
 Alpha virt. eigenvalues --    1.48321   1.48483   1.49293   1.50156   1.52078
 Alpha virt. eigenvalues --    1.53025   1.53589   1.55082   1.56510   1.58432
 Alpha virt. eigenvalues --    1.58876   1.59218   1.59467   1.61113   1.61380
 Alpha virt. eigenvalues --    1.63794   1.64536   1.65848   1.67317   1.68024
 Alpha virt. eigenvalues --    1.68488   1.68852   1.69257   1.69556   1.70411
 Alpha virt. eigenvalues --    1.70899   1.71293   1.71860   1.72376   1.73215
 Alpha virt. eigenvalues --    1.74050   1.74541   1.75493   1.76268   1.76332
 Alpha virt. eigenvalues --    1.77361   1.79069   1.79204   1.80058   1.80728
 Alpha virt. eigenvalues --    1.81240   1.81745   1.82818   1.83163   1.83638
 Alpha virt. eigenvalues --    1.84749   1.85089   1.85443   1.88252   1.88677
 Alpha virt. eigenvalues --    1.89278   1.89409   1.89671   1.90463   1.91317
 Alpha virt. eigenvalues --    1.91495   1.92722   1.93069   1.94129   1.94448
 Alpha virt. eigenvalues --    1.94929   1.95687   1.97178   1.97856   1.98594
 Alpha virt. eigenvalues --    2.00822   2.01560   2.02394   2.03627   2.04188
 Alpha virt. eigenvalues --    2.04541   2.05094   2.05439   2.07023   2.08116
 Alpha virt. eigenvalues --    2.08549   2.08917   2.09987   2.10356   2.11435
 Alpha virt. eigenvalues --    2.12372   2.13135   2.13582   2.13959   2.14968
 Alpha virt. eigenvalues --    2.15377   2.15507   2.15720   2.16458   2.17405
 Alpha virt. eigenvalues --    2.18198   2.18587   2.19301   2.19980   2.20169
 Alpha virt. eigenvalues --    2.21174   2.21999   2.22372   2.23432   2.23794
 Alpha virt. eigenvalues --    2.24528   2.24650   2.25330   2.25522   2.26413
 Alpha virt. eigenvalues --    2.27530   2.29308   2.30171   2.30607   2.31014
 Alpha virt. eigenvalues --    2.31460   2.31994   2.32374   2.33596   2.34135
 Alpha virt. eigenvalues --    2.35752   2.36923   2.38141   2.39356   2.40755
 Alpha virt. eigenvalues --    2.40834   2.41827   2.42140   2.42535   2.43410
 Alpha virt. eigenvalues --    2.44492   2.45379   2.46047   2.47105   2.48710
 Alpha virt. eigenvalues --    2.49332   2.50773   2.52810   2.54241   2.55609
 Alpha virt. eigenvalues --    2.56775   2.57190   2.59276   2.59570   2.61508
 Alpha virt. eigenvalues --    2.64789   2.66465   2.67223   2.68274   2.69292
 Alpha virt. eigenvalues --    2.71314   2.74946   2.75778   2.76666   2.78224
 Alpha virt. eigenvalues --    2.79801   2.80392   2.82772   2.83463   2.85014
 Alpha virt. eigenvalues --    2.85541   2.87215   2.88264   2.88999   2.92327
 Alpha virt. eigenvalues --    2.94514   3.00425   3.02658   3.07164   3.11686
 Alpha virt. eigenvalues --    3.12621   3.17067   3.17344   3.19080   3.26482
 Alpha virt. eigenvalues --    3.27349   3.28471   3.28764   3.29895   3.34548
 Alpha virt. eigenvalues --    3.35352   3.64786   3.80687   3.97845
  Beta  occ. eigenvalues -- -256.43041 -89.09252 -30.24673 -26.09390 -26.09078
  Beta  occ. eigenvalues --  -26.09007 -14.48127 -14.48053 -14.47831 -14.47509
  Beta  occ. eigenvalues --  -10.34957 -10.34777 -10.34768 -10.34626 -10.34618
  Beta  occ. eigenvalues --  -10.34541 -10.34449 -10.34441 -10.34304 -10.31651
  Beta  occ. eigenvalues --  -10.31632 -10.31596 -10.31575 -10.31470 -10.31397
  Beta  occ. eigenvalues --  -10.31351 -10.31330 -10.31259 -10.31258 -10.31069
  Beta  occ. eigenvalues --  -10.31041 -10.30244 -10.30136 -10.29261 -10.29246
  Beta  occ. eigenvalues --  -10.29121 -10.29056 -10.28958 -10.28838 -10.28815
  Beta  occ. eigenvalues --  -10.28699  -8.12650  -6.07222  -6.06910  -6.06325
  Beta  occ. eigenvalues --   -3.57356  -2.33106  -2.32186  -2.32080  -1.10110
  Beta  occ. eigenvalues --   -1.09078  -1.08947  -1.07939  -0.94698  -0.93771
  Beta  occ. eigenvalues --   -0.93094  -0.92758  -0.92495  -0.92125  -0.91838
  Beta  occ. eigenvalues --   -0.91779  -0.87766  -0.86512  -0.86232  -0.85295
  Beta  occ. eigenvalues --   -0.83954  -0.81965  -0.80891  -0.79656  -0.79340
  Beta  occ. eigenvalues --   -0.79244  -0.79084  -0.76298  -0.76056  -0.71442
  Beta  occ. eigenvalues --   -0.71299  -0.69494  -0.69168  -0.66229  -0.65644
  Beta  occ. eigenvalues --   -0.65020  -0.63999  -0.62864  -0.62679  -0.61929
  Beta  occ. eigenvalues --   -0.59841  -0.59597  -0.59150  -0.58927  -0.57679
  Beta  occ. eigenvalues --   -0.56886  -0.56362  -0.55554  -0.55244  -0.54962
  Beta  occ. eigenvalues --   -0.54803  -0.54360  -0.54208  -0.53733  -0.53614
  Beta  occ. eigenvalues --   -0.53328  -0.52657  -0.52020  -0.51576  -0.51532
  Beta  occ. eigenvalues --   -0.51329  -0.51212  -0.50909  -0.50885  -0.50608
  Beta  occ. eigenvalues --   -0.50439  -0.50214  -0.50017  -0.49588  -0.49301
  Beta  occ. eigenvalues --   -0.49115  -0.48781  -0.48662  -0.48444  -0.48034
  Beta  occ. eigenvalues --   -0.47606  -0.47079  -0.46774  -0.45912  -0.45042
  Beta  occ. eigenvalues --   -0.44529  -0.43952  -0.43577  -0.43267  -0.42926
  Beta  occ. eigenvalues --   -0.42029  -0.40154  -0.39687  -0.38407  -0.38301
  Beta  occ. eigenvalues --   -0.35483  -0.35071  -0.33765  -0.32947  -0.30709
  Beta  occ. eigenvalues --   -0.29660
  Beta virt. eigenvalues --   -0.23109  -0.22604  -0.21072  -0.20012  -0.17473
  Beta virt. eigenvalues --   -0.17291  -0.12808  -0.12335  -0.09475  -0.08530
  Beta virt. eigenvalues --   -0.07739  -0.05937  -0.05334  -0.02567  -0.01916
  Beta virt. eigenvalues --   -0.01822  -0.00165   0.00380   0.01185   0.01546
  Beta virt. eigenvalues --    0.02407   0.02888   0.03086   0.03243   0.03801
  Beta virt. eigenvalues --    0.04183   0.04247   0.04576   0.04985   0.05096
  Beta virt. eigenvalues --    0.05638   0.06012   0.06641   0.06680   0.06970
  Beta virt. eigenvalues --    0.07331   0.07639   0.08072   0.08515   0.08760
  Beta virt. eigenvalues --    0.09020   0.09070   0.09421   0.09883   0.10319
  Beta virt. eigenvalues --    0.11171   0.11407   0.11515   0.11865   0.12248
  Beta virt. eigenvalues --    0.12570   0.12877   0.13224   0.13699   0.13924
  Beta virt. eigenvalues --    0.14435   0.14639   0.15153   0.15693   0.16152
  Beta virt. eigenvalues --    0.16546   0.16978   0.17260   0.18965   0.19169
  Beta virt. eigenvalues --    0.19885   0.20482   0.20868   0.21700   0.22952
  Beta virt. eigenvalues --    0.23274   0.24030   0.24170   0.24593   0.24675
  Beta virt. eigenvalues --    0.25295   0.25828   0.26670   0.26892   0.27792
  Beta virt. eigenvalues --    0.29423   0.31047   0.31958   0.32291   0.32619
  Beta virt. eigenvalues --    0.32971   0.34410   0.35004   0.35425   0.36775
  Beta virt. eigenvalues --    0.37481   0.37642   0.38572   0.38860   0.39425
  Beta virt. eigenvalues --    0.39611   0.40463   0.40632   0.40979   0.41852
  Beta virt. eigenvalues --    0.42282   0.42708   0.42785   0.43262   0.43866
  Beta virt. eigenvalues --    0.44557   0.44830   0.45106   0.45651   0.46581
  Beta virt. eigenvalues --    0.46681   0.47180   0.47297   0.48681   0.48982
  Beta virt. eigenvalues --    0.49190   0.49631   0.50219   0.50934   0.51104
  Beta virt. eigenvalues --    0.51361   0.51808   0.52041   0.52453   0.53122
  Beta virt. eigenvalues --    0.53379   0.53871   0.54175   0.54810   0.55052
  Beta virt. eigenvalues --    0.55843   0.55990   0.56223   0.56625   0.57051
  Beta virt. eigenvalues --    0.57392   0.57661   0.57926   0.58853   0.59624
  Beta virt. eigenvalues --    0.60029   0.60653   0.61762   0.61834   0.62197
  Beta virt. eigenvalues --    0.62951   0.63473   0.64068   0.64498   0.64959
  Beta virt. eigenvalues --    0.65429   0.65646   0.65944   0.66368   0.66635
  Beta virt. eigenvalues --    0.67335   0.67542   0.68080   0.68193   0.68585
  Beta virt. eigenvalues --    0.68739   0.69560   0.69614   0.70041   0.70685
  Beta virt. eigenvalues --    0.70915   0.71560   0.72172   0.72791   0.73524
  Beta virt. eigenvalues --    0.75005   0.75182   0.76375   0.76706   0.77036
  Beta virt. eigenvalues --    0.77457   0.77796   0.78013   0.78304   0.78937
  Beta virt. eigenvalues --    0.79649   0.79936   0.80215   0.80700   0.80746
  Beta virt. eigenvalues --    0.81615   0.81895   0.82004   0.82325   0.82833
  Beta virt. eigenvalues --    0.82963   0.83163   0.83383   0.84227   0.84469
  Beta virt. eigenvalues --    0.85382   0.85831   0.86233   0.86874   0.87048
  Beta virt. eigenvalues --    0.87284   0.88119   0.88807   0.89097   0.89513
  Beta virt. eigenvalues --    0.89886   0.90269   0.90346   0.90460   0.91090
  Beta virt. eigenvalues --    0.91637   0.92357   0.93116   0.93418   0.94068
  Beta virt. eigenvalues --    0.94627   0.95506   0.95769   0.96015   0.96554
  Beta virt. eigenvalues --    0.97375   0.98115   0.99428   1.00251   1.01676
  Beta virt. eigenvalues --    1.03107   1.03622   1.04645   1.05038   1.05644
  Beta virt. eigenvalues --    1.06153   1.06871   1.07443   1.07770   1.08861
  Beta virt. eigenvalues --    1.09098   1.09414   1.09760   1.10293   1.11228
  Beta virt. eigenvalues --    1.11413   1.12231   1.13129   1.13245   1.14479
  Beta virt. eigenvalues --    1.15561   1.16185   1.17260   1.18040   1.18819
  Beta virt. eigenvalues --    1.19006   1.19697   1.21813   1.22321   1.22835
  Beta virt. eigenvalues --    1.23883   1.24292   1.24675   1.25466   1.25888
  Beta virt. eigenvalues --    1.26637   1.26924   1.27563   1.27740   1.28492
  Beta virt. eigenvalues --    1.29111   1.30757   1.32337   1.33050   1.34474
  Beta virt. eigenvalues --    1.34507   1.35675   1.37116   1.37857   1.38939
  Beta virt. eigenvalues --    1.39081   1.41096   1.41306   1.41958   1.42085
  Beta virt. eigenvalues --    1.43205   1.44056   1.45384   1.46838   1.48089
  Beta virt. eigenvalues --    1.48628   1.49108   1.49915   1.50707   1.52293
  Beta virt. eigenvalues --    1.53174   1.53708   1.55315   1.56985   1.58626
  Beta virt. eigenvalues --    1.59080   1.59373   1.59658   1.61307   1.61534
  Beta virt. eigenvalues --    1.64031   1.64819   1.66075   1.67621   1.68307
  Beta virt. eigenvalues --    1.68702   1.69018   1.69603   1.69788   1.70668
  Beta virt. eigenvalues --    1.71140   1.71661   1.72015   1.72633   1.73424
  Beta virt. eigenvalues --    1.74361   1.74790   1.75623   1.76419   1.76480
  Beta virt. eigenvalues --    1.77658   1.79317   1.79851   1.80361   1.80965
  Beta virt. eigenvalues --    1.81595   1.81979   1.82998   1.83529   1.84226
  Beta virt. eigenvalues --    1.85327   1.85725   1.88388   1.88719   1.89261
  Beta virt. eigenvalues --    1.89407   1.89731   1.89889   1.90650   1.91597
  Beta virt. eigenvalues --    1.92129   1.92978   1.93323   1.94358   1.94757
  Beta virt. eigenvalues --    1.95325   1.96070   1.97676   1.98054   2.00535
  Beta virt. eigenvalues --    2.01233   2.01820   2.02601   2.03762   2.04680
  Beta virt. eigenvalues --    2.04860   2.05573   2.06738   2.07802   2.08788
  Beta virt. eigenvalues --    2.09034   2.09898   2.10951   2.11631   2.12228
  Beta virt. eigenvalues --    2.13302   2.13369   2.13635   2.14794   2.15479
  Beta virt. eigenvalues --    2.15634   2.15823   2.16290   2.16601   2.17543
  Beta virt. eigenvalues --    2.18596   2.18811   2.19571   2.20096   2.20609
  Beta virt. eigenvalues --    2.21371   2.22151   2.22597   2.23565   2.24078
  Beta virt. eigenvalues --    2.24745   2.24776   2.25482   2.25659   2.26609
  Beta virt. eigenvalues --    2.27680   2.29494   2.30382   2.30850   2.31157
  Beta virt. eigenvalues --    2.31587   2.32130   2.32510   2.33861   2.34275
  Beta virt. eigenvalues --    2.36334   2.37440   2.38279   2.39626   2.40956
  Beta virt. eigenvalues --    2.40998   2.42081   2.42339   2.42723   2.43659
  Beta virt. eigenvalues --    2.44666   2.45545   2.46410   2.47716   2.48899
  Beta virt. eigenvalues --    2.49513   2.50928   2.53019   2.54730   2.55808
  Beta virt. eigenvalues --    2.57123   2.57476   2.59509   2.59874   2.61715
  Beta virt. eigenvalues --    2.64975   2.66891   2.67470   2.68402   2.69380
  Beta virt. eigenvalues --    2.71433   2.75169   2.75972   2.76856   2.78500
  Beta virt. eigenvalues --    2.80023   2.80776   2.83408   2.83919   2.85281
  Beta virt. eigenvalues --    2.85764   2.87381   2.88395   2.89107   2.92515
  Beta virt. eigenvalues --    2.94710   3.00675   3.02884   3.07343   3.11961
  Beta virt. eigenvalues --    3.13241   3.17183   3.18756   3.24736   3.27642
  Beta virt. eigenvalues --    3.29118   3.29446   3.33890   3.34940   3.42172
  Beta virt. eigenvalues --    3.44108   3.76628   3.91101   4.08211
          Condensed to atoms (all electrons):
          Atomic-Atomic Spin Densities.
 Mulliken charges and spin densities:
               1          2
     1  Fe   0.914062   4.179063
     2  N   -0.734866   0.096920
     3  N   -0.732878   0.090183
     4  N   -0.759124   0.107806
     5  N   -0.751394   0.103941
     6  C    0.321648   0.002078
     7  C    0.052799   0.023993
     8  C    0.044453   0.024941
     9  C    0.327253   0.001059
    10  C    0.331270   0.000958
    11  C    0.045624   0.021972
    12  C    0.006592   0.022864
    13  C    0.340678   0.000061
    14  C    0.328202  -0.002024
    15  C    0.051754   0.030391
    16  C    0.013372   0.028395
    17  C    0.330655  -0.001272
    18  C    0.316179  -0.000663
    19  C    0.046647   0.025222
    20  C    0.046029   0.023559
    21  C    0.315817   0.001143
    22  C   -0.304241   0.008705
    23  H    0.197014  -0.000066
    24  C   -0.292028   0.009199
    25  H    0.197525  -0.000215
    26  C   -0.289279   0.010109
    27  H    0.205532  -0.000090
    28  C   -0.296068   0.008544
    29  H    0.197490  -0.000237
    30  C   -0.613904  -0.001264
    31  H    0.207397   0.000392
    32  H    0.206551   0.001166
    33  H    0.211919   0.001258
    34  C   -0.612896  -0.001175
    35  H    0.210843   0.001121
    36  H    0.205272   0.001184
    37  H    0.208072   0.000373
    38  C   -0.607556  -0.001064
    39  H    0.207358   0.001067
    40  H    0.209732   0.001010
    41  H    0.208545   0.000324
    42  C   -0.158973  -0.006300
    43  H    0.194542   0.001016
    44  C   -0.390276   0.011884
    45  H    0.186741  -0.000545
    46  H    0.199210  -0.000570
    47  C   -0.616423  -0.001557
    48  H    0.206462   0.000987
    49  H    0.209664   0.001816
    50  H    0.215509   0.000628
    51  C   -0.155506  -0.009802
    52  H    0.184638   0.000844
    53  C   -0.385949   0.019082
    54  H    0.192341  -0.000934
    55  H    0.199272  -0.000782
    56  C   -0.613717  -0.001183
    57  H    0.212149   0.001253
    58  H    0.205793   0.001109
    59  H    0.208023   0.000413
    60  C   -0.611792  -0.001003
    61  H    0.211887   0.001112
    62  H    0.207896   0.000406
    63  H    0.203871   0.001057
    64  C   -0.690897  -0.002868
    65  H    0.248060   0.002405
    66  H    0.248107   0.003593
    67  H    0.252252   0.000068
    68  S    0.138613   0.161017
    69  H    0.186450  -0.004078
 Sum of Mulliken charges =   1.00000   5.00000
 Mulliken charges and spin densities with hydrogens summed into heavy atoms:
               1          2
     1  Fe   0.914062   4.179063
     2  N   -0.734866   0.096920
     3  N   -0.732878   0.090183
     4  N   -0.759124   0.107806
     5  N   -0.751394   0.103941
     6  C    0.321648   0.002078
     7  C    0.052799   0.023993
     8  C    0.044453   0.024941
     9  C    0.327253   0.001059
    10  C    0.331270   0.000958
    11  C    0.045624   0.021972
    12  C    0.006592   0.022864
    13  C    0.340678   0.000061
    14  C    0.328202  -0.002024
    15  C    0.051754   0.030391
    16  C    0.013372   0.028395
    17  C    0.330655  -0.001272
    18  C    0.316179  -0.000663
    19  C    0.046647   0.025222
    20  C    0.046029   0.023559
    21  C    0.315817   0.001143
    22  C   -0.107227   0.008639
    24  C   -0.094503   0.008983
    26  C   -0.083747   0.010019
    28  C   -0.098578   0.008307
    30  C    0.011963   0.001553
    34  C    0.011291   0.001503
    38  C    0.018080   0.001337
    42  C    0.035569  -0.005284
    44  C   -0.004325   0.010769
    47  C    0.015212   0.001874
    51  C    0.029132  -0.008958
    53  C    0.005665   0.017366
    56  C    0.012249   0.001592
    60  C    0.011862   0.001572
    64  C    0.057523   0.003197
    68  S    0.325063   0.156939
 Electronic spatial extent (au):  <R**2>=          17853.4684
 Charge=              1.0000 electrons
 Dipole moment (field-independent basis, Debye):
    X=              1.7539    Y=             -1.0140    Z=              1.8527  Tot=              2.7454
 Quadrupole moment (field-independent basis, Debye-Ang):
   XX=           -152.4791   YY=           -156.1788   ZZ=           -219.1267
   XY=              0.4953   XZ=              1.3632   YZ=             -4.4416
 Traceless Quadrupole moment (field-independent basis, Debye-Ang):
   XX=             23.4491   YY=             19.7493   ZZ=            -43.1985
   XY=              0.4953   XZ=              1.3632   YZ=             -4.4416
 Octapole moment (field-independent basis, Debye-Ang**2):
  XXX=            -10.2874  YYY=             -2.4953  ZZZ=             48.2009  XYY=             -6.8602
  XXY=             -2.7395  XXZ=            -22.4662  XZZ=             30.4384  YZZ=            -11.4943
  YYZ=            -27.5718  XYZ=             -6.4233
 Hexadecapole moment (field-independent basis, Debye-Ang**3):
 XXXX=          -9821.1066 YYYY=          -9348.5796 ZZZZ=          -1160.4492 XXXY=            127.5063
 XXXZ=           -145.8409 YYYX=            -75.6740 YYYZ=            -20.2309 ZZZX=             55.0939
 ZZZY=            -55.0802 XXYY=          -3058.2858 XXZZ=          -2169.5654 YYZZ=          -2099.2375
 XXYZ=            -12.2173 YYXZ=             18.0004 ZZXY=             -1.8622
 N-N= 5.041963905451D+03 E-N=-1.730028423192D+04  KE= 3.070703144746D+03
                          Isotropic Fermi Contact Couplings
        Atom                 a.u.       MegaHertz       Gauss      10(-4) cm-1
     1  Fe(57)             0.58605      17.00009       6.06605       5.67062
     2  N(14)              0.13128       8.48355       3.02714       2.82981
     3  N(14)              0.12852       8.30536       2.96356       2.77037
     4  N(14)              0.12967       8.37956       2.99003       2.79512
     5  N(14)              0.12334       7.97025       2.84398       2.65859
     6  C(13)              0.00436       0.97946       0.34950       0.32671
     7  C(13)              0.00603       1.35530       0.48361       0.45208
     8  C(13)              0.00632       1.42127       0.50714       0.47408
     9  C(13)              0.00489       1.09872       0.39205       0.36649
    10  C(13)              0.00404       0.90793       0.32397       0.30285
    11  C(13)              0.00580       1.30341       0.46509       0.43477
    12  C(13)              0.00613       1.37798       0.49170       0.45965
    13  C(13)              0.00398       0.89452       0.31919       0.29838
    14  C(13)              0.00478       1.07391       0.38320       0.35822
    15  C(13)              0.00724       1.62742       0.58071       0.54285
    16  C(13)              0.00689       1.54861       0.55258       0.51656
    17  C(13)              0.00369       0.82871       0.29570       0.27643
    18  C(13)              0.00382       0.85921       0.30659       0.28660
    19  C(13)              0.00632       1.41993       0.50667       0.47364
    20  C(13)              0.00623       1.40116       0.49997       0.46738
    21  C(13)              0.00493       1.10876       0.39563       0.36984
    22  C(13)              0.00078       0.17528       0.06254       0.05847
    23  H(1)              -0.00000      -0.00187      -0.00067      -0.00062
    24  C(13)              0.00063       0.14080       0.05024       0.04697
    25  H(1)              -0.00007      -0.06321      -0.02256      -0.02109
    26  C(13)              0.00088       0.19871       0.07091       0.06628
    27  H(1)              -0.00005      -0.04193      -0.01496      -0.01399
    28  C(13)              0.00044       0.09871       0.03522       0.03293
    29  H(1)              -0.00008      -0.06816      -0.02432      -0.02273
    30  C(13)             -0.00032      -0.07084      -0.02528      -0.02363
    31  H(1)               0.00015       0.13530       0.04828       0.04513
    32  H(1)               0.00060       0.53439       0.19069       0.17825
    33  H(1)               0.00064       0.56837       0.20281       0.18959
    34  C(13)             -0.00032      -0.07108      -0.02536      -0.02371
    35  H(1)               0.00057       0.51017       0.18204       0.17017
    36  H(1)               0.00061       0.54107       0.19307       0.18048
    37  H(1)               0.00015       0.13088       0.04670       0.04366
    38  C(13)             -0.00029      -0.06492      -0.02317      -0.02166
    39  H(1)               0.00055       0.48729       0.17388       0.16254
    40  H(1)               0.00051       0.45643       0.16287       0.15225
    41  H(1)               0.00014       0.12234       0.04365       0.04081
    42  C(13)             -0.00096      -0.21667      -0.07732      -0.07227
    43  H(1)               0.00047       0.41999       0.14986       0.14009
    44  C(13)              0.00184       0.41280       0.14730       0.13769
    45  H(1)              -0.00016      -0.13957      -0.04980      -0.04655
    46  H(1)              -0.00017      -0.15629      -0.05577      -0.05213
    47  C(13)             -0.00042      -0.09459      -0.03375      -0.03155
    48  H(1)               0.00049       0.43406       0.15488       0.14479
    49  H(1)               0.00098       0.87384       0.31181       0.29148
    50  H(1)               0.00023       0.20370       0.07268       0.06795
    51  C(13)             -0.00155      -0.34784      -0.12412      -0.11603
    52  H(1)               0.00033       0.29290       0.10451       0.09770
    53  C(13)              0.00290       0.65281       0.23294       0.21775
    54  H(1)              -0.00028      -0.25458      -0.09084      -0.08492
    55  H(1)              -0.00023      -0.20557      -0.07335      -0.06857
    56  C(13)             -0.00029      -0.06610      -0.02359      -0.02205
    57  H(1)               0.00067       0.60031       0.21420       0.20024
    58  H(1)               0.00057       0.51388       0.18337       0.17141
    59  H(1)               0.00016       0.14561       0.05196       0.04857
    60  C(13)             -0.00019      -0.04362      -0.01556      -0.01455
    61  H(1)               0.00060       0.53428       0.19065       0.17822
    62  H(1)               0.00016       0.14294       0.05101       0.04768
    63  H(1)               0.00056       0.50242       0.17928       0.16759
    64  C(13)             -0.00396      -0.89074      -0.31784      -0.29712
    65  H(1)               0.00123       1.10139       0.39300       0.36738
    66  H(1)               0.00274       2.45283       0.87523       0.81818
    67  H(1)               0.00006       0.05339       0.01905       0.01781
    68  S(33)              0.15740      10.81282       3.85828       3.60677
    69  H(1)              -0.00146      -1.30095      -0.46421      -0.43395
 --------------------------------------------------------
       Center         ----  Spin Dipole Couplings  ----
                      3XX-RR        3YY-RR        3ZZ-RR
 --------------------------------------------------------
     1   Atom        0.204302      0.248150     -0.452452
     2   Atom        0.145586     -0.119290     -0.026296
     3   Atom       -0.117871      0.163277     -0.045407
     4   Atom        0.152006     -0.139196     -0.012810
     5   Atom       -0.129941      0.158577     -0.028636
     6   Atom        0.054166     -0.026832     -0.027334
     7   Atom        0.007824     -0.017682      0.009858
     8   Atom        0.002647     -0.014020      0.011373
     9   Atom        0.003671      0.024019     -0.027690
    10   Atom       -0.024708      0.051810     -0.027102
    11   Atom       -0.017205      0.007650      0.009555
    12   Atom       -0.013165      0.003704      0.009461
    13   Atom        0.020993      0.006196     -0.027188
    14   Atom        0.056935     -0.025182     -0.031754
    15   Atom        0.005877     -0.021720      0.015843
    16   Atom        0.002083     -0.016500      0.014417
    17   Atom        0.006843      0.025138     -0.031981
    18   Atom       -0.026799      0.060329     -0.033530
    19   Atom       -0.018853      0.007491      0.011362
    20   Atom       -0.013323      0.003901      0.009422
    21   Atom        0.026617      0.003348     -0.029965
    22   Atom        0.022971     -0.011847     -0.011123
    23   Atom        0.012740     -0.004688     -0.008051
    24   Atom       -0.011465      0.022620     -0.011155
    25   Atom       -0.004447      0.012556     -0.008109
    26   Atom        0.020211     -0.010426     -0.009785
    27   Atom        0.011886     -0.003978     -0.007908
    28   Atom       -0.010902      0.025417     -0.014514
    29   Atom       -0.004590      0.013337     -0.008747
    30   Atom        0.001853      0.002044     -0.003897
    31   Atom        0.002816      0.000120     -0.002936
    32   Atom        0.001025      0.002722     -0.003747
    33   Atom        0.000398      0.002507     -0.002905
    34   Atom        0.008590     -0.004812     -0.003777
    35   Atom        0.006141     -0.003585     -0.002556
    36   Atom        0.007229     -0.003441     -0.003788
    37   Atom        0.005262     -0.002435     -0.002826
    38   Atom       -0.004659      0.008791     -0.004132
    39   Atom       -0.003336      0.006706     -0.003369
    40   Atom       -0.003483      0.007003     -0.003521
    41   Atom       -0.002420      0.005517     -0.003097
    42   Atom        0.003797      0.002123     -0.005920
    43   Atom        0.000286      0.002729     -0.003015
    44   Atom       -0.000039      0.001201     -0.001162
    45   Atom        0.003102      0.000176     -0.003278
    46   Atom        0.001988      0.000390     -0.002378
    47   Atom        0.008909     -0.004964     -0.003945
    48   Atom        0.006666     -0.003449     -0.003217
    49   Atom        0.006868     -0.003384     -0.003484
    50   Atom        0.005323     -0.002491     -0.002832
    51   Atom        0.005174      0.004746     -0.009920
    52   Atom        0.000838      0.003138     -0.003976
    53   Atom       -0.001585     -0.006992      0.008576
    54   Atom        0.003210     -0.000723     -0.002487
    55   Atom        0.000605      0.001450     -0.002055
    56   Atom       -0.005056      0.009376     -0.004320
    57   Atom       -0.003539      0.006990     -0.003451
    58   Atom       -0.003669      0.007482     -0.003812
    59   Atom       -0.002533      0.005807     -0.003274
    60   Atom        0.002066      0.002211     -0.004277
    61   Atom        0.002179      0.000938     -0.003117
    62   Atom        0.000031      0.003189     -0.003220
    63   Atom        0.002885      0.000983     -0.003868
    64   Atom       -0.004257     -0.019661      0.023918
    65   Atom        0.004163     -0.011576      0.007414
    66   Atom       -0.003833     -0.009043      0.012876
    67   Atom        0.002513     -0.014302      0.011789
    68   Atom       -0.382035     -0.409090      0.791125
    69   Atom       -0.029017     -0.004104      0.033121
 --------------------------------------------------------
                        XY            XZ            YZ
 --------------------------------------------------------
     1   Atom        0.038696     -0.011293      0.035829
     2   Atom        0.153683     -0.033925     -0.024248
     3   Atom       -0.147700      0.011273     -0.048162
     4   Atom        0.151543      0.035237      0.027067
     5   Atom       -0.159089     -0.015641      0.064203
     6   Atom       -0.003991     -0.009205      0.000526
     7   Atom        0.009971      0.002519     -0.001292
     8   Atom        0.013587      0.002274     -0.000874
     9   Atom        0.038964     -0.003827     -0.005211
    10   Atom        0.005049     -0.001103     -0.005422
    11   Atom       -0.008847     -0.000892     -0.002586
    12   Atom       -0.012652      0.000184     -0.003105
    13   Atom       -0.037554      0.005885     -0.004257
    14   Atom       -0.008236      0.008959     -0.000233
    15   Atom        0.009252     -0.004893      0.002044
    16   Atom        0.013805     -0.001936      0.000498
    17   Atom        0.042133      0.005386      0.003957
    18   Atom        0.006499      0.000161      0.006298
    19   Atom       -0.010073      0.000657      0.002686
    20   Atom       -0.013856      0.001382      0.001746
    21   Atom       -0.041236     -0.009864      0.006587
    22   Atom       -0.014800     -0.006932      0.000926
    23   Atom       -0.007579     -0.002685      0.000928
    24   Atom        0.014779     -0.001541     -0.002257
    25   Atom        0.007564     -0.000398     -0.000858
    26   Atom       -0.016150      0.005368     -0.001397
    27   Atom       -0.008064      0.002528     -0.000921
    28   Atom        0.016978      0.002710      0.002797
    29   Atom        0.008265      0.000364      0.000801
    30   Atom        0.006804     -0.001173     -0.001430
    31   Atom        0.004170     -0.001228     -0.000880
    32   Atom        0.005272      0.000072      0.000456
    33   Atom        0.004837     -0.001905     -0.002739
    34   Atom        0.000970     -0.002394     -0.000105
    35   Atom       -0.000125     -0.003832      0.000318
    36   Atom       -0.000119     -0.000166     -0.000212
    37   Atom        0.001989     -0.001777     -0.000418
    38   Atom       -0.000835     -0.000043     -0.000036
    39   Atom        0.000289     -0.000249     -0.001950
    40   Atom        0.000175      0.000250      0.001695
    41   Atom       -0.001907      0.000051     -0.000128
    42   Atom       -0.007787     -0.001297     -0.003942
    43   Atom       -0.003964      0.000627     -0.001122
    44   Atom       -0.000097      0.004462      0.007263
    45   Atom       -0.004681     -0.001706      0.000735
    46   Atom       -0.003371      0.000050      0.000395
    47   Atom        0.000763      0.002016     -0.000126
    48   Atom       -0.000888      0.003351     -0.000490
    49   Atom        0.000120     -0.000352      0.000218
    50   Atom        0.001856      0.002203      0.000396
    51   Atom        0.008611     -0.002918      0.003682
    52   Atom        0.005607      0.001350      0.001792
    53   Atom        0.001132      0.010166     -0.005750
    54   Atom        0.002047     -0.000641      0.000175
    55   Atom        0.003298      0.000700      0.000222
    56   Atom       -0.000796      0.000020      0.000357
    57   Atom        0.000295      0.000308      0.002321
    58   Atom        0.000299     -0.000306     -0.001618
    59   Atom       -0.001998     -0.000071      0.000241
    60   Atom       -0.007185     -0.000574      0.000679
    61   Atom       -0.005068     -0.002263      0.001656
    62   Atom       -0.004286     -0.000327      0.000454
    63   Atom       -0.005415      0.000921     -0.000482
    64   Atom       -0.004309      0.024545     -0.006496
    65   Atom       -0.013032      0.023341     -0.012701
    66   Atom       -0.002213      0.008911     -0.004918
    67   Atom        0.004446      0.019909      0.004256
    68   Atom       -0.004890     -0.185414      0.004232
    69   Atom        0.011390     -0.013498     -0.032564
 --------------------------------------------------------


 ---------------------------------------------------------------------------------
              Anisotropic Spin Dipole Couplings in Principal Axis System
 ---------------------------------------------------------------------------------

       Atom             a.u.   MegaHertz   Gauss  10(-4) cm-1        Axes

              Baa    -0.4545    -7.870    -2.808    -2.625  0.0202 -0.0520  0.9984
     1 Fe(57) Bbb     0.1830     3.167     1.130     1.057  0.8694 -0.4923 -0.0432
              Bcc     0.2716     4.702     1.678     1.568  0.4937  0.8689  0.0353
 
              Baa    -0.1901    -7.332    -2.616    -2.446 -0.4116  0.9100  0.0495
     2 N(14)  Bbb    -0.0326    -1.259    -0.449    -0.420  0.1682  0.0225  0.9855
              Bcc     0.2228     8.591     3.066     2.866  0.8957  0.4140 -0.1623
 
              Baa    -0.1818    -7.010    -2.501    -2.338  0.9140  0.4004  0.0659
     3 N(14)  Bbb    -0.0533    -2.056    -0.734    -0.686 -0.1283  0.1311  0.9830
              Bcc     0.2351     9.066     3.235     3.024 -0.3850  0.9069 -0.1712
 
              Baa    -0.2044    -7.884    -2.813    -2.630 -0.3856  0.9207 -0.0591
     4 N(14)  Bbb    -0.0200    -0.770    -0.275    -0.257 -0.1876 -0.0155  0.9821
              Bcc     0.2244     8.654     3.088     2.887  0.9034  0.3898  0.1787
 
              Baa    -0.2013    -7.763    -2.770    -2.589  0.9075  0.4140 -0.0717
     5 N(14)  Bbb    -0.0433    -1.670    -0.596    -0.557  0.1599 -0.1825  0.9701
              Bcc     0.2446     9.433     3.366     3.146 -0.3885  0.8918  0.2318
 
              Baa    -0.0284    -3.806    -1.358    -1.270  0.1078 -0.0597  0.9924
     6 C(13)  Bbb    -0.0270    -3.626    -1.294    -1.210  0.0551  0.9970  0.0540
              Bcc     0.0554     7.433     2.652     2.479  0.9926 -0.0489 -0.1108
 
              Baa    -0.0213    -2.852    -1.018    -0.951 -0.3288  0.9421  0.0658
     7 C(13)  Bbb     0.0086     1.150     0.410     0.384 -0.5379 -0.2441  0.8069
              Bcc     0.0127     1.702     0.607     0.568  0.7762  0.2299  0.5870
 
              Baa    -0.0217    -2.916    -1.041    -0.973 -0.4901  0.8698  0.0566
     8 C(13)  Bbb     0.0092     1.234     0.440     0.412  0.7047  0.4336 -0.5616
              Bcc     0.0125     1.682     0.600     0.561  0.5130  0.2353  0.8255
 
              Baa    -0.0282    -3.786    -1.351    -1.263 -0.0212  0.1149  0.9932
     9 C(13)  Bbb    -0.0264    -3.544    -1.265    -1.182  0.7927 -0.6035  0.0867
              Bcc     0.0546     7.330     2.615     2.445  0.6093  0.7891 -0.0783
 
              Baa    -0.0277    -3.716    -1.326    -1.239  0.2739  0.0481  0.9606
    10 C(13)  Bbb    -0.0248    -3.332    -1.189    -1.111  0.9595 -0.0823 -0.2695
              Bcc     0.0525     7.048     2.515     2.351  0.0661  0.9954 -0.0687
 
              Baa    -0.0201    -2.700    -0.964    -0.901  0.9499  0.3077  0.0554
    11 C(13)  Bbb     0.0078     1.051     0.375     0.351 -0.2371  0.5936  0.7690
              Bcc     0.0123     1.649     0.588     0.550 -0.2038  0.7436 -0.6368
 
              Baa    -0.0200    -2.683    -0.957    -0.895  0.8788  0.4750  0.0446
    12 C(13)  Bbb     0.0071     0.957     0.342     0.319 -0.3369  0.5516  0.7630
              Bcc     0.0129     1.726     0.616     0.576 -0.3379  0.6856 -0.6448
 
              Baa    -0.0279    -3.745    -1.336    -1.249 -0.1564 -0.0491  0.9865
    13 C(13)  Bbb    -0.0246    -3.304    -1.179    -1.102  0.6191  0.7733  0.1366
              Bcc     0.0525     7.049     2.515     2.351  0.7696 -0.6321  0.0906
 
              Baa    -0.0327    -4.388    -1.566    -1.464 -0.1069 -0.0865  0.9905
    14 C(13)  Bbb    -0.0259    -3.480    -1.242    -1.161  0.0881  0.9915  0.0961
              Bcc     0.0586     7.869     2.808     2.625  0.9903 -0.0976  0.0984
 
              Baa    -0.0248    -3.330    -1.188    -1.111 -0.2998  0.9503 -0.0839
    15 C(13)  Bbb     0.0069     0.926     0.330     0.309  0.8626  0.3076  0.4016
              Bcc     0.0179     2.405     0.858     0.802 -0.4074 -0.0481  0.9120
 
              Baa    -0.0239    -3.207    -1.144    -1.070 -0.4710  0.8814 -0.0352
    16 C(13)  Bbb     0.0090     1.212     0.432     0.404  0.8468  0.4630  0.2617
              Bcc     0.0149     1.995     0.712     0.665 -0.2470 -0.0934  0.9645
 
              Baa    -0.0329    -4.420    -1.577    -1.474 -0.2613  0.1243  0.9572
    17 C(13)  Bbb    -0.0266    -3.573    -1.275    -1.192  0.7338 -0.6187  0.2807
              Bcc     0.0596     7.993     2.852     2.666  0.6271  0.7757  0.0704
 
              Baa    -0.0340    -4.557    -1.626    -1.520  0.0405 -0.0694  0.9968
    18 C(13)  Bbb    -0.0273    -3.659    -1.306    -1.221  0.9965 -0.0707 -0.0454
              Bcc     0.0612     8.216     2.932     2.741  0.0736  0.9951  0.0663
 
              Baa    -0.0223    -2.996    -1.069    -0.999  0.9453  0.3233 -0.0442
    19 C(13)  Bbb     0.0088     1.183     0.422     0.395 -0.2692  0.6961 -0.6655
              Bcc     0.0135     1.813     0.647     0.605 -0.1844  0.6410  0.7451
 
              Baa    -0.0212    -2.840    -1.013    -0.947  0.8712  0.4863 -0.0671
    20 C(13)  Bbb     0.0093     1.241     0.443     0.414  0.2212 -0.2668  0.9380
              Bcc     0.0119     1.599     0.570     0.533 -0.4382  0.8321  0.3400
 
              Baa    -0.0317    -4.249    -1.516    -1.417  0.2115  0.0657  0.9752
    21 C(13)  Bbb    -0.0277    -3.722    -1.328    -1.241  0.5740  0.7992 -0.1783
              Bcc     0.0594     7.970     2.844     2.659  0.7911 -0.5974 -0.1314
 
              Baa    -0.0177    -2.376    -0.848    -0.792  0.3692  0.8912  0.2635
    22 C(13)  Bbb    -0.0119    -1.591    -0.568    -0.531  0.0593 -0.3055  0.9503
              Bcc     0.0296     3.966     1.415     1.323  0.9275 -0.3352 -0.1657
 
              Baa    -0.0084    -4.479    -1.598    -1.494  0.1384  0.0354  0.9897
    23 H(1)   Bbb    -0.0075    -4.011    -1.431    -1.338  0.3398  0.9370 -0.0810
              Bcc     0.0159     8.489     3.029     2.832  0.9302 -0.3476 -0.1177
 
              Baa    -0.0171    -2.289    -0.817    -0.763  0.9332 -0.3412  0.1131
    24 C(13)  Bbb    -0.0113    -1.511    -0.539    -0.504 -0.0828  0.1022  0.9913
              Bcc     0.0283     3.800     1.356     1.267  0.3498  0.9344 -0.0671
 
              Baa    -0.0082    -4.349    -1.552    -1.451  0.0894  0.0086  0.9960
    25 H(1)   Bbb    -0.0073    -3.906    -1.394    -1.303  0.9304 -0.3576 -0.0805
              Bcc     0.0155     8.255     2.946     2.754  0.3554  0.9338 -0.0400
 
              Baa    -0.0175    -2.344    -0.836    -0.782  0.4054  0.9064 -0.1185
    26 C(13)  Bbb    -0.0105    -1.407    -0.502    -0.469 -0.0844  0.1662  0.9825
              Bcc     0.0279     3.750     1.338     1.251  0.9102 -0.3883  0.1439
 
              Baa    -0.0082    -4.393    -1.568    -1.465 -0.1590 -0.0884  0.9833
    27 H(1)   Bbb    -0.0073    -3.916    -1.397    -1.306  0.3669  0.9193  0.1420
              Bcc     0.0156     8.309     2.965     2.772  0.9166 -0.3834  0.1137
 
              Baa    -0.0182    -2.448    -0.874    -0.817  0.8646 -0.3109 -0.3948
    28 C(13)  Bbb    -0.0141    -1.899    -0.677    -0.633  0.3420 -0.2115  0.9156
              Bcc     0.0324     4.347     1.551     1.450  0.3682  0.9266  0.0765
 
              Baa    -0.0088    -4.685    -1.672    -1.563 -0.0583 -0.0144  0.9982
    29 H(1)   Bbb    -0.0078    -4.171    -1.488    -1.391  0.9297 -0.3651  0.0491
              Bcc     0.0166     8.855     3.160     2.954  0.3637  0.9309  0.0347
 
              Baa    -0.0049    -0.657    -0.234    -0.219 -0.6735  0.7058  0.2197
    30 C(13)  Bbb    -0.0041    -0.553    -0.197    -0.184  0.2548 -0.0573  0.9653
              Bcc     0.0090     1.210     0.432     0.404  0.6939  0.7061 -0.1413
 
              Baa    -0.0032    -1.701    -0.607    -0.567  0.1556  0.0661  0.9856
    31 H(1)   Bbb    -0.0029    -1.555    -0.555    -0.519 -0.5827  0.8118  0.0375
              Bcc     0.0061     3.256     1.162     1.086  0.7976  0.5802 -0.1648
 
              Baa    -0.0039    -2.078    -0.742    -0.693  0.3518 -0.3403  0.8720
    32 H(1)   Bbb    -0.0033    -1.778    -0.634    -0.593  0.6761 -0.5520 -0.4881
              Bcc     0.0072     3.856     1.376     1.286  0.6474  0.7613  0.0359
 
              Baa    -0.0041    -2.167    -0.773    -0.723 -0.1103  0.4507  0.8858
    33 H(1)   Bbb    -0.0034    -1.819    -0.649    -0.607  0.7982 -0.4909  0.3492
              Bcc     0.0075     3.986     1.422     1.330  0.5922  0.7456 -0.3056
 
              Baa    -0.0049    -0.656    -0.234    -0.219 -0.0885  0.9914 -0.0968
    34 C(13)  Bbb    -0.0042    -0.566    -0.202    -0.189  0.1745  0.1112  0.9784
              Bcc     0.0091     1.222     0.436     0.408  0.9807  0.0697 -0.1828
 
              Baa    -0.0041    -2.200    -0.785    -0.734  0.3114 -0.4286  0.8482
    35 H(1)   Bbb    -0.0035    -1.851    -0.661    -0.617  0.1690  0.9033  0.3944
              Bcc     0.0076     4.051     1.446     1.351  0.9351 -0.0205 -0.3537
 
              Baa    -0.0039    -2.077    -0.741    -0.693  0.0181  0.4289  0.9032
    36 H(1)   Bbb    -0.0033    -1.782    -0.636    -0.595  0.0034  0.9033 -0.4290
              Bcc     0.0072     3.859     1.377     1.287  0.9998 -0.0108 -0.0148
 
              Baa    -0.0032    -1.707    -0.609    -0.569  0.2053  0.0011  0.9787
    37 H(1)   Bbb    -0.0029    -1.557    -0.556    -0.519 -0.2265  0.9729  0.0464
              Bcc     0.0061     3.264     1.165     1.089  0.9521  0.2312 -0.2000
 
              Baa    -0.0047    -0.633    -0.226    -0.211  0.9951  0.0617  0.0774
    38 C(13)  Bbb    -0.0041    -0.554    -0.198    -0.185 -0.0774 -0.0022  0.9970
              Bcc     0.0088     1.187     0.423     0.396 -0.0617  0.9981 -0.0025
 
              Baa    -0.0038    -2.034    -0.726    -0.679  0.3803  0.1585  0.9112
    39 H(1)   Bbb    -0.0033    -1.744    -0.622    -0.582  0.9243 -0.0989 -0.3686
              Bcc     0.0071     3.778     1.348     1.260  0.0317  0.9824 -0.1841
 
              Baa    -0.0039    -2.082    -0.743    -0.695 -0.4666 -0.1285  0.8751
    40 H(1)   Bbb    -0.0034    -1.799    -0.642    -0.600  0.8843 -0.0897  0.4583
              Bcc     0.0073     3.881     1.385     1.295  0.0196  0.9876  0.1555
 
              Baa    -0.0031    -1.655    -0.590    -0.552 -0.0870 -0.0044  0.9962
    41 H(1)   Bbb    -0.0029    -1.522    -0.543    -0.508  0.9711  0.2226  0.0858
              Bcc     0.0060     3.177     1.133     1.060 -0.2222  0.9749 -0.0151
 
              Baa    -0.0093    -1.249    -0.446    -0.417  0.3868  0.5249  0.7582
    42 C(13)  Bbb    -0.0017    -0.222    -0.079    -0.074 -0.5724 -0.5080  0.6437
              Bcc     0.0110     1.472     0.525     0.491  0.7230 -0.6830  0.1039
 
              Baa    -0.0032    -1.730    -0.617    -0.577  0.1263  0.2637  0.9563
    43 H(1)   Bbb    -0.0026    -1.386    -0.494    -0.462  0.8006  0.5421 -0.2552
              Bcc     0.0058     3.116     1.112     1.039 -0.5857  0.7979 -0.1426
 
              Baa    -0.0088    -1.179    -0.421    -0.393 -0.3856 -0.5450  0.7445
    44 C(13)  Bbb     0.0004     0.051     0.018     0.017  0.8565 -0.5115  0.0693
              Bcc     0.0084     1.128     0.403     0.376  0.3431  0.6644  0.6640
 
              Baa    -0.0039    -2.069    -0.738    -0.690  0.4448  0.3653  0.8177
    45 H(1)   Bbb    -0.0030    -1.595    -0.569    -0.532  0.4078  0.7303 -0.5481
              Bcc     0.0069     3.664     1.307     1.222  0.7974 -0.5772 -0.1759
 
              Baa    -0.0027    -1.427    -0.509    -0.476 -0.3860 -0.5225  0.7603
    46 H(1)   Bbb    -0.0020    -1.059    -0.378    -0.353  0.4875  0.5841  0.6489
              Bcc     0.0047     2.486     0.887     0.829  0.7832 -0.6211 -0.0293
 
              Baa    -0.0051    -0.681    -0.243    -0.227 -0.0914  0.9584  0.2706
    47 C(13)  Bbb    -0.0042    -0.561    -0.200    -0.187 -0.1301 -0.2809  0.9509
              Bcc     0.0093     1.242     0.443     0.414  0.9873  0.0517  0.1503
 
              Baa    -0.0043    -2.295    -0.819    -0.766 -0.2628  0.2602  0.9291
    48 H(1)   Bbb    -0.0035    -1.857    -0.663    -0.619  0.1583  0.9615 -0.2245
              Bcc     0.0078     4.153     1.482     1.385  0.9518 -0.0881  0.2938
 
              Baa    -0.0037    -1.958    -0.699    -0.653  0.0333 -0.6151  0.7878
    49 H(1)   Bbb    -0.0032    -1.714    -0.612    -0.572  0.0121  0.7884  0.6151
              Bcc     0.0069     3.672     1.310     1.225  0.9994  0.0109 -0.0337
 
              Baa    -0.0034    -1.813    -0.647    -0.605 -0.2696  0.1355  0.9534
    50 H(1)   Bbb    -0.0029    -1.543    -0.550    -0.515 -0.1690  0.9680 -0.1854
              Bcc     0.0063     3.356     1.197     1.119  0.9480  0.2111  0.2381
 
              Baa    -0.0124    -1.667    -0.595    -0.556  0.3167 -0.3481  0.8823
    51 C(13)  Bbb    -0.0012    -0.156    -0.056    -0.052  0.6272 -0.6209 -0.4701
              Bcc     0.0136     1.823     0.650     0.608  0.7115  0.7023  0.0217
 
              Baa    -0.0044    -2.349    -0.838    -0.784 -0.0154 -0.2204  0.9753
    52 H(1)   Bbb    -0.0037    -1.987    -0.709    -0.663  0.7841 -0.6079 -0.1250
              Bcc     0.0081     4.336     1.547     1.446  0.6205  0.7628  0.1821
 
              Baa    -0.0118    -1.579    -0.563    -0.527 -0.5456  0.6945  0.4690
    53 C(13)  Bbb    -0.0039    -0.528    -0.188    -0.176  0.6811  0.6936 -0.2347
              Bcc     0.0157     2.107     0.752     0.703  0.4883 -0.1914  0.8514
 
              Baa    -0.0027    -1.432    -0.511    -0.478  0.2047 -0.2970  0.9327
    54 H(1)   Bbb    -0.0014    -0.768    -0.274    -0.256 -0.3360  0.8736  0.3520
              Bcc     0.0041     2.200     0.785     0.734  0.9193  0.3854 -0.0790
 
              Baa    -0.0026    -1.384    -0.494    -0.462  0.6265 -0.4770 -0.6164
    55 H(1)   Bbb    -0.0018    -0.971    -0.346    -0.324  0.4120 -0.4687  0.7814
              Bcc     0.0044     2.355     0.840     0.785  0.6616  0.7435  0.0971
 
              Baa    -0.0051    -0.685    -0.244    -0.228  0.9971  0.0561 -0.0507
    56 C(13)  Bbb    -0.0043    -0.581    -0.207    -0.194  0.0521 -0.0230  0.9984
              Bcc     0.0094     1.265     0.451     0.422 -0.0548  0.9982  0.0258
 
              Baa    -0.0041    -2.165    -0.773    -0.722 -0.4272 -0.1750  0.8871
    57 H(1)   Bbb    -0.0034    -1.834    -0.654    -0.612  0.9036 -0.1173  0.4120
              Bcc     0.0075     3.999     1.427     1.334  0.0320  0.9776  0.2082
 
              Baa    -0.0042    -2.229    -0.795    -0.743  0.4651  0.1100  0.8784
    58 H(1)   Bbb    -0.0035    -1.890    -0.674    -0.630  0.8848 -0.0911 -0.4570
              Bcc     0.0077     4.118     1.470     1.374  0.0297  0.9898 -0.1396
 
              Baa    -0.0033    -1.751    -0.625    -0.584  0.0570 -0.0140  0.9983
    59 H(1)   Bbb    -0.0030    -1.593    -0.568    -0.531  0.9735  0.2226 -0.0525
              Bcc     0.0063     3.344     1.193     1.115 -0.2215  0.9748  0.0263
 
              Baa    -0.0051    -0.678    -0.242    -0.226  0.7032  0.7045 -0.0959
    60 C(13)  Bbb    -0.0043    -0.581    -0.207    -0.194  0.1136  0.0218  0.9933
              Bcc     0.0094     1.259     0.449     0.420 -0.7018  0.7094  0.0647
 
              Baa    -0.0040    -2.133    -0.761    -0.712  0.4887  0.2186  0.8446
    61 H(1)   Bbb    -0.0034    -1.818    -0.649    -0.607  0.4811  0.7401 -0.4699
              Bcc     0.0074     3.951     1.410     1.318  0.7278 -0.6360 -0.2566
 
              Baa    -0.0033    -1.736    -0.619    -0.579  0.0583 -0.0315  0.9978
    62 H(1)   Bbb    -0.0030    -1.578    -0.563    -0.526  0.8189  0.5732 -0.0297
              Bcc     0.0062     3.314     1.182     1.105 -0.5710  0.8188  0.0592
 
              Baa    -0.0041    -2.166    -0.773    -0.722 -0.3253 -0.2625  0.9084
    63 H(1)   Bbb    -0.0035    -1.848    -0.659    -0.617  0.5573  0.7229  0.4085
              Bcc     0.0075     4.014     1.432     1.339  0.7639 -0.6391  0.0888
 
              Baa    -0.0208    -2.789    -0.995    -0.930  0.2363  0.9716  0.0114
    64 C(13)  Bbb    -0.0184    -2.466    -0.880    -0.822  0.8345 -0.1969 -0.5146
              Bcc     0.0392     5.255     1.875     1.753  0.4977 -0.1311  0.8574
 
              Baa    -0.0190   -10.128    -3.614    -3.378  0.5792  0.8056 -0.1245
    65 H(1)   Bbb    -0.0171    -9.141    -3.262    -3.049 -0.5030  0.4733  0.7232
              Bcc     0.0361    19.270     6.876     6.428  0.6415 -0.3562  0.6794
 
              Baa    -0.0101    -5.404    -1.928    -1.803  0.1059  0.9800  0.1685
    66 H(1)   Bbb    -0.0077    -4.103    -1.464    -1.369  0.9146 -0.0295 -0.4033
              Bcc     0.0178     9.507     3.392     3.171  0.3903 -0.1968  0.8994
 
              Baa    -0.0155    -8.261    -2.948    -2.756 -0.3582  0.9263  0.1169
    67 H(1)   Bbb    -0.0130    -6.925    -2.471    -2.310  0.7001  0.3494 -0.6228
              Bcc     0.0285    15.186     5.419     5.066  0.6177  0.1412  0.7736
 
              Baa    -0.4141   -16.979    -6.059    -5.664  0.7595  0.6404  0.1146
    68 S(33)  Bbb    -0.4056   -16.630    -5.934    -5.547 -0.6324  0.7681 -0.1007
              Bcc     0.8198    33.609    11.993    11.211 -0.1525  0.0040  0.9883
 
              Baa    -0.0335   -17.853    -6.370    -5.955  0.9416 -0.3357  0.0267
    69 H(1)   Bbb    -0.0221   -11.810    -4.214    -3.940  0.2698  0.7993  0.5370
              Bcc     0.0556    29.663    10.585     9.895 -0.2016 -0.4984  0.8432
 

 ---------------------------------------------------------------------------------

 Unable to Open any file for archive entry.
 1\1\GINC-BGN1030\SP\UAPFD\Gen\C31H32Fe1N4S1(1+,6)\BECSLEIP\29-Sep-2024
 \0\\# apfd/gen scf=maxcycle=999 geom=check\\5g6p_III_H\\1,6\Fe,0,-0.12
 30793782,17.2918900569,21.9514522329\N,0,0.2578227275,15.4562334623,22
 .6998542304\N,0,-0.9919660773,17.7773507458,23.741524767\N,0,-0.376353
 8358,19.1810952763,21.4112919395\N,0,0.9544282957,16.8600694787,20.374
 6894654\C,0,1.1265729851,14.5421067706,22.1754357993\C,0,1.4009717095,
 13.4786748953,23.1106358868\C,0,0.6759212581,13.7615559223,24.22507908
 92\C,0,-0.012126219,15.0035003076,23.9564391373\C,0,-1.243971536,16.93
 82300491,24.7843839044\C,0,-1.9200448944,17.6247550848,25.8543543815\C
 ,0,-2.0916693183,18.9133285797,25.435928572\C,0,-1.496724156,18.985107
 1805,24.1166176201\C,0,-0.837269959,20.2411605913,22.1309115961\C,0,-0
 .6842291383,21.4700370889,21.3987260152\C,0,-0.1082339646,21.135835770
 3,20.2023244698\C,0,0.1042649626,19.703331366,20.2474883383\C,0,1.1262
 416076,17.6787714183,19.2984599481\C,0,1.9184767879,17.0231224537,18.2
 833529368\C,0,2.2193232873,15.7877641163,18.7692274579\C,0,1.605160517
 ,15.7018700454,20.07354614\C,0,1.6934194322,14.6099555916,20.914533544
 8\H,0,2.2972532876,13.7765401334,20.5909048526\C,0,-0.8185454957,15.62
 89891211,24.8830937139\H,0,-1.0270542759,15.1047770658,25.8023391026\C
 ,0,-1.4068599882,20.1505818364,23.3858133606\H,0,-1.7678272062,21.0565
 086056,23.845380985\C,0,0.6979360057,18.9903786866,19.220825619\H,0,0.
 940243163,19.5319209649,18.3196557812\C,0,0.5862726072,13.0124760124,2
 5.5093735206\H,0,1.1683616481,12.0955689694,25.4616818079\H,0,-0.44879
 09745,12.7507009379,25.7294420374\H,0,0.9655368752,13.6173033424,26.33
 32827246\C,0,2.3168684648,12.3354094237,22.841181125\H,0,3.3224315133,
 12.6943978732,22.6219676234\H,0,1.9686846371,11.7577026411,21.98435998
 12\H,0,2.3698245909,11.6734492832,23.7018681438\C,0,-2.3562495879,16.9
 987317226,27.1328843802\H,0,-1.4962993343,16.6348826346,27.6961847932\
 H,0,-3.016008752,16.1531591981,26.939828901\H,0,-2.8927955879,17.71912
 29338,27.7444767615\C,0,-2.7459734234,19.9870958428,26.1591032606\H,0,
 -2.5314105272,20.0269838379,27.2215177067\C,0,-3.592453946,20.86420500
 34,25.6338060071\H,0,-3.87886883,20.8302209487,24.5962223804\H,0,-4.05
 16516081,21.6326923439,26.2332925071\C,0,-1.0326564306,22.8199842199,2
 1.9177427685\H,0,-0.7873169054,22.9001342487,22.9754587361\H,0,-2.0998
 024406,23.01595637,21.8028581832\H,0,-0.4820491742,23.5829694889,21.37
 13526938\C,0,0.2848786468,21.9973036529,19.1078831716\H,0,1.1834628334
 ,21.7044237752,18.5778000412\C,0,-0.3684810509,23.0871214119,18.720021
 9778\H,0,-1.2901754992,23.3960850408,19.1814669515\H,0,-0.0156458512,2
 3.6944045,17.9032706764\C,0,2.3027927311,17.6472988059,16.9869524149\H
 ,0,2.9519191721,18.5069980117,17.1554446089\H,0,1.419313973,17.9910979
 071,16.4490969952\H,0,2.8339025719,16.9371400022,16.3582778779\C,0,3.0
 189386868,14.6955466806,18.1478488827\H,0,3.8975372365,14.4729678463,1
 8.7535723376\H,0,3.352747773,14.979262685,17.153112303\H,0,2.425865008
 8,13.7843387189,18.0656426976\C,0,-1.9144936387,14.9669660115,20.32113
 88086\H,0,-0.9304017463,14.8507589468,19.8792758559\H,0,-2.6999021245,
 14.7489177013,19.6042629472\H,0,-2.0059609945,14.3199914196,21.1873998
 512\S,0,-2.1161744033,16.6803528595,20.9312436191\H,0,-1.9358567235,17
 .2534340805,19.7321310505\\Version=ES64L-G16RevC.02\State=6-A\HF=-3080
 .0392974\S2=8.763644\S2-1=0.\S2A=8.750054\RMSD=8.815e-09\Dipole=-0.244
 4069,-0.7990065,-0.6844555\Quadrupole=-22.6515102,13.2581965,9.3933136
 ,-13.0107461,-14.3577558,-4.8588635\PG=C01 [X(C31H32Fe1N4S1)]\\@
 The archive entry for this job was punched.


 IF AT FIRST YOU DON'T SUCCEED, TRY LOOKING IN 
 THE WASTEBASKET FOR THE DIRECTIONS.
 Job cpu time:       0 days  1 hours 32 minutes 22.3 seconds.
 Elapsed time:       0 days  0 hours  1 minutes 36.1 seconds.
 File lengths (MBytes):  RWF=    343 Int=      0 D2E=      0 Chk=    150 Scr=      1
 Normal termination of Gaussian 16 at Sun Sep 29 15:31:04 2024.
