 Entering Gaussian System, Link 0=g16
 Input=5g6p05.com
 Output=5g6p05.log
 Initial command:
 /sw/chem/gaussian/g16_C02/a100/g16/l1.exe "/local/becsleip_8033286/Gau-3609587.inp" -scrdir="/local/becsleip_8033286/"
 Entering Link 1 = /sw/chem/gaussian/g16_C02/a100/g16/l1.exe PID=   3609588.
  
 Copyright (c) 1988-2021, Gaussian, Inc.  All Rights Reserved.
  
 This is part of the Gaussian(R) 16 program.  It is based on
 the Gaussian(R) 09 system (copyright 2009, Gaussian, Inc.),
 the Gaussian(R) 03 system (copyright 2003, Gaussian, Inc.),
 the Gaussian(R) 98 system (copyright 1998, Gaussian, Inc.),
 the Gaussian(R) 94 system (copyright 1995, Gaussian, Inc.),
 the Gaussian 92(TM) system (copyright 1992, Gaussian, Inc.),
 the Gaussian 90(TM) system (copyright 1990, Gaussian, Inc.),
 the Gaussian 88(TM) system (copyright 1988, Gaussian, Inc.),
 the Gaussian 86(TM) system (copyright 1986, Carnegie Mellon
 University), and the Gaussian 82(TM) system (copyright 1983,
 Carnegie Mellon University). Gaussian is a federally registered
 trademark of Gaussian, Inc.
  
 This software contains proprietary and confidential information,
 including trade secrets, belonging to Gaussian, Inc.
  
 This software is provided under written license and may be
 used, copied, transmitted, or stored only in accord with that
 written license.
  
 The following legend is applicable only to US Government
 contracts under FAR:
  
                    RESTRICTED RIGHTS LEGEND
  
 Use, reproduction and disclosure by the US Government is
 subject to restrictions as set forth in subparagraphs (a)
 and (c) of the Commercial Computer Software - Restricted
 Rights clause in FAR 52.227-19.
  
 Gaussian, Inc.
 340 Quinnipiac St., Bldg. 40, Wallingford CT 06492
  
  
 ---------------------------------------------------------------
 Warning -- This program may not be used in any manner that
 competes with the business of Gaussian, Inc. or will provide
 assistance to any competitor of Gaussian, Inc.  The licensee
 of this program is prohibited from giving any competitor of
 Gaussian, Inc. access to this program.  By using this program,
 the user acknowledges that Gaussian, Inc. is engaged in the
 business of creating and licensing software in the field of
 computational chemistry and represents and warrants to the
 licensee that it is not a competitor of Gaussian, Inc. and that
 it will not use this program in any manner prohibited above.
 ---------------------------------------------------------------
  

 Cite this work as:
 Gaussian 16, Revision C.02,
 M. J. Frisch, G. W. Trucks, H. B. Schlegel, G. E. Scuseria, 
 M. A. Robb, J. R. Cheeseman, G. Scalmani, V. Barone, 
 G. A. Petersson, H. Nakatsuji, X. Li, M. Caricato, A. V. Marenich, 
 J. Bloino, B. G. Janesko, R. Gomperts, B. Mennucci, H. P. Hratchian, 
 J. V. Ortiz, A. F. Izmaylov, J. L. Sonnenberg, D. Williams-Young, 
 F. Ding, F. Lipparini, F. Egidi, J. Goings, B. Peng, A. Petrone, 
 T. Henderson, D. Ranasinghe, V. G. Zakrzewski, J. Gao, N. Rega, 
 G. Zheng, W. Liang, M. Hada, M. Ehara, K. Toyota, R. Fukuda, 
 J. Hasegawa, M. Ishida, T. Nakajima, Y. Honda, O. Kitao, H. Nakai, 
 T. Vreven, K. Throssell, J. A. Montgomery, Jr., J. E. Peralta, 
 F. Ogliaro, M. J. Bearpark, J. J. Heyd, E. N. Brothers, K. N. Kudin, 
 V. N. Staroverov, T. A. Keith, R. Kobayashi, J. Normand, 
 K. Raghavachari, A. P. Rendell, J. C. Burant, S. S. Iyengar, 
 J. Tomasi, M. Cossi, J. M. Millam, M. Klene, C. Adamo, R. Cammi, 
 J. W. Ochterski, R. L. Martin, K. Morokuma, O. Farkas, 
 J. B. Foresman, and D. J. Fox, Gaussian, Inc., Wallingford CT, 2019.
 
 ******************************************
 Gaussian 16:  ES64L-G16RevC.02  7-Dec-2021
                29-Sep-2024 
 ******************************************
 %mem=16GB
 %CPU=0-71
 SetSPE:  set environment variable "OMP_PROC_BIND" = "true"
 SetSPE:  set environment variable "OMP_PLACES" = "{0},{1},{2},{3},{4},{5},{6},{7},{8},{9},{10},{11},{12},{13},{14},{15},{16},{17},{18},{19},{20},{21},{22},{23},{24},{25},{26},{27},{28},{29},{30},{31},{32},{33},{34},{35},{36},{37},{38},{39},{40},{41},{42},{43},{44},{45},{46},{47},{48},{49},{50},{51},{52},{53},{54},{55},{56},{57},{58},{59},{60},{61},{62},{63},{64},{65},{66},{67},{68},{69},{70},{71}"
 Will use up to   72 processors via shared memory.
 %gpucpu=0,1,2,3=0,1,2,3
 Will use    4 GPUs:
 Thread  CPU   GPU
      0    0     0
      1    1     1
      2    2     2
      3    3     3
      4    4    -1
      5    5    -1
      6    6    -1
      7    7    -1
      8    8    -1
      9    9    -1
     10   10    -1
     11   11    -1
     12   12    -1
     13   13    -1
     14   14    -1
     15   15    -1
     16   16    -1
     17   17    -1
     18   18    -1
     19   19    -1
     20   20    -1
     21   21    -1
     22   22    -1
     23   23    -1
     24   24    -1
     25   25    -1
     26   26    -1
     27   27    -1
     28   28    -1
     29   29    -1
     30   30    -1
     31   31    -1
     32   32    -1
     33   33    -1
     34   34    -1
     35   35    -1
     36   36    -1
     37   37    -1
     38   38    -1
     39   39    -1
     40   40    -1
     41   41    -1
     42   42    -1
     43   43    -1
     44   44    -1
     45   45    -1
     46   46    -1
     47   47    -1
     48   48    -1
     49   49    -1
     50   50    -1
     51   51    -1
     52   52    -1
     53   53    -1
     54   54    -1
     55   55    -1
     56   56    -1
     57   57    -1
     58   58    -1
     59   59    -1
     60   60    -1
     61   61    -1
     62   62    -1
     63   63    -1
     64   64    -1
     65   65    -1
     66   66    -1
     67   67    -1
     68   68    -1
     69   69    -1
     70   70    -1
     71   71    -1
 SetGPE:  set environment variable "OMP_PROC_BIND" = "true"
 SetGPE:  set environment variable "OMP_PLACES" = "{0},{1},{2},{3},{4},{5},{6},{7},{8},{9},{10},{11},{12},{13},{14},{15},{16},{17},{18},{19},{20},{21},{22},{23},{24},{25},{26},{27},{28},{29},{30},{31},{32},{33},{34},{35},{36},{37},{38},{39},{40},{41},{42},{43},{44},{45},{46},{47},{48},{49},{50},{51},{52},{53},{54},{55},{56},{57},{58},{59},{60},{61},{62},{63},{64},{65},{66},{67},{68},{69},{70},{71}"
 %oldchk=5g6p_II_Sre.chk
 %chk=5g6p_II_Qn.chk
 Properties for Device   0
 Minimum vector length:                              32
 Maximum vector length:                            1024
 Number of SMPs:                                    108
 Maximum number of threads per SMP:                2048
 Number of ASync Engines:                             5
 Memory:                                           9207742464
 Properties for Device   1
 Minimum vector length:                              32
 Maximum vector length:                            1024
 Number of SMPs:                                    108
 Maximum number of threads per SMP:                2048
 Number of ASync Engines:                             5
 Memory:                                           9207742464
 Properties for Device   2
 Minimum vector length:                              32
 Maximum vector length:                            1024
 Number of SMPs:                                    108
 Maximum number of threads per SMP:                2048
 Number of ASync Engines:                             5
 Memory:                                           9207742464
 Properties for Device   3
 Minimum vector length:                              32
 Maximum vector length:                            1024
 Number of SMPs:                                    108
 Maximum number of threads per SMP:                2048
 Number of ASync Engines:                             5
 Memory:                                           9207742464
   8286968217 words of memory will be used on each GPU.
 Copying data from "5g6p_II_Sre.chk" to current chk file "5g6p_II_Qn.chk"
 IOpt=  2 FromEx=T IUOpen= 4 IOptOp= 5 NList=   0 IFRang= 0 IUIn= 4 IUOut= 2.
 --------------------------------------------------------------
 # apfd/def2TZVP guess=read scf=maxcycle=999 geom=check pop=nbo
 --------------------------------------------------------------
 1/29=2,38=1,172=1/1;
 2/12=2,40=1/2;
 3/5=44,7=101,11=2,14=-4,25=1,30=1,74=-44,116=-2/1,2,3;
 4/5=1/1;
 5/5=2,7=999,38=6/2;
 6/7=2,8=2,9=2,10=2,28=1,40=1/1,7;
 99/5=1,9=1/99;
 ---------
 5g6p_II_Q
 ---------
 Structure from the checkpoint file:  "5g6p_II_Qn.chk"
 Charge =  0 Multiplicity = 5
 Z-Matrix found in chk file.
 Fe,0,-0.1230793782,17.2918900569,21.9514522329
 N,0,0.2578227275,15.4562334623,22.6998542304
 N,0,-0.9919660773,17.7773507458,23.741524767
 N,0,-0.3763538358,19.1810952763,21.4112919395
 N,0,0.9544282957,16.8600694787,20.3746894654
 C,0,1.1265729851,14.5421067706,22.1754357993
 C,0,1.4009717095,13.4786748953,23.1106358868
 C,0,0.6759212581,13.7615559223,24.2250790892
 C,0,-0.012126219,15.0035003076,23.9564391373
 C,0,-1.243971536,16.9382300491,24.7843839044
 C,0,-1.9200448944,17.6247550848,25.8543543815
 C,0,-2.0916693183,18.9133285797,25.435928572
 C,0,-1.496724156,18.9851071805,24.1166176201
 C,0,-0.837269959,20.2411605913,22.1309115961
 C,0,-0.6842291383,21.4700370889,21.3987260152
 C,0,-0.1082339646,21.1358357703,20.2023244698
 C,0,0.1042649626,19.703331366,20.2474883383
 C,0,1.1262416076,17.6787714183,19.2984599481
 C,0,1.9184767879,17.0231224537,18.2833529368
 C,0,2.2193232873,15.7877641163,18.7692274579
 C,0,1.605160517,15.7018700454,20.07354614
 C,0,1.6934194322,14.6099555916,20.9145335448
 H,0,2.2972532876,13.7765401334,20.5909048526
 C,0,-0.8185454957,15.6289891211,24.8830937139
 H,0,-1.0270542759,15.1047770658,25.8023391026
 C,0,-1.4068599882,20.1505818364,23.3858133606
 H,0,-1.7678272062,21.0565086056,23.845380985
 C,0,0.6979360057,18.9903786866,19.220825619
 H,0,0.940243163,19.5319209649,18.3196557812
 C,0,0.5862726072,13.0124760124,25.5093735206
 H,0,1.1683616481,12.0955689694,25.4616818079
 H,0,-0.4487909745,12.7507009379,25.7294420374
 H,0,0.9655368752,13.6173033424,26.3332827246
 C,0,2.3168684648,12.3354094237,22.841181125
 H,0,3.3224315133,12.6943978732,22.6219676234
 H,0,1.9686846371,11.7577026411,21.9843599812
 H,0,2.3698245909,11.6734492832,23.7018681438
 C,0,-2.3562495879,16.9987317226,27.1328843802
 H,0,-1.4962993343,16.6348826346,27.6961847932
 H,0,-3.016008752,16.1531591981,26.939828901
 H,0,-2.8927955879,17.7191229338,27.7444767615
 C,0,-2.7459734234,19.9870958428,26.1591032606
 H,0,-2.5314105272,20.0269838379,27.2215177067
 C,0,-3.592453946,20.8642050034,25.6338060071
 H,0,-3.87886883,20.8302209487,24.5962223804
 H,0,-4.0516516081,21.6326923439,26.2332925071
 C,0,-1.0326564306,22.8199842199,21.9177427685
 H,0,-0.7873169054,22.9001342487,22.9754587361
 H,0,-2.0998024406,23.01595637,21.8028581832
 H,0,-0.4820491742,23.5829694889,21.3713526938
 C,0,0.2848786468,21.9973036529,19.1078831716
 H,0,1.1834628334,21.7044237752,18.5778000412
 C,0,-0.3684810509,23.0871214119,18.7200219778
 H,0,-1.2901754992,23.3960850408,19.1814669515
 H,0,-0.0156458512,23.6944045,17.9032706764
 C,0,2.3027927311,17.6472988059,16.9869524149
 H,0,2.9519191721,18.5069980117,17.1554446089
 H,0,1.419313973,17.9910979071,16.4490969952
 H,0,2.8339025719,16.9371400022,16.3582778779
 C,0,3.0189386868,14.6955466806,18.1478488827
 H,0,3.8975372365,14.4729678463,18.7535723376
 H,0,3.352747773,14.979262685,17.153112303
 H,0,2.4258650088,13.7843387189,18.0656426976
 C,0,-1.9144936387,14.9669660115,20.3211388086
 H,0,-0.9304017463,14.8507589468,19.8792758559
 H,0,-2.6999021245,14.7489177013,19.6042629472
 H,0,-2.0059609945,14.3199914196,21.1873998512
 S,0,-2.1161744033,16.6803528595,20.9312436191
 H,0,-1.9358567235,17.2534340805,19.7321310505
 Recover connectivity data from disk.
 Stoichiometry    C31H32FeN4S(5)
 Framework group  C1[X(C31H32FeN4S)]
 Deg. of freedom   201
 Full point group                 C1      NOp   1
 Largest Abelian subgroup         C1      NOp   1
 Largest concise Abelian subgroup C1      NOp   1
                         Standard orientation:                         
 ---------------------------------------------------------------------
 Center     Atomic      Atomic             Coordinates (Angstroms)
 Number     Number       Type             X           Y           Z
 ---------------------------------------------------------------------
      1         26           0        0.178838   -0.027146    0.025189
      2          7           0        2.007185    0.824358   -0.057959
      3          7           0       -0.635771    1.847945   -0.099086
      4          7           0       -1.663245   -0.745074   -0.102588
      5          7           0        1.007173   -1.794169   -0.133439
      6          6           0        3.180860    0.176992   -0.320206
      7          6           0        4.241252    1.108192   -0.618900
      8          6           0        3.689256    2.347298   -0.531607
      9          6           0        2.296810    2.148205   -0.200763
     10          6           0        0.030130    3.035287   -0.054596
     11          6           0       -0.882587    4.147416   -0.112430
     12          6           0       -2.136920    3.611681   -0.180207
     13          6           0       -1.955449    2.174059   -0.178141
     14          6           0       -2.841051   -0.095839   -0.315431
     15          6           0       -3.917447   -1.028624   -0.517768
     16          6           0       -3.365471   -2.278444   -0.427709
     17          6           0       -1.949204   -2.074311   -0.200156
     18          6           0        0.334141   -2.978702   -0.089032
     19          6           0        1.255746   -4.089164   -0.163014
     20          6           0        2.502029   -3.548904   -0.250137
     21          6           0        2.327747   -2.115436   -0.225289
     22          6           0        3.354401   -1.196202   -0.316488
     23          1           0        4.354731   -1.575405   -0.456051
     24          6           0        1.401702    3.188297   -0.069505
     25          1           0        1.791038    4.193447   -0.106611
     26          6           0       -2.993983    1.276737   -0.307527
     27          1           0       -3.983931    1.677462   -0.454584
     28          6           0       -1.041361   -3.111802   -0.080926
     29          1           0       -1.436021   -4.115949   -0.085534
     30          6           0        4.317905    3.679438   -0.752456
     31          1           0        5.379728    3.574295   -0.960537
     32          1           0        4.201878    4.309437    0.129560
     33          1           0        3.851556    4.188310   -1.596287
     34          6           0        5.637478    0.714720   -0.956926
     35          1           0        5.652097    0.080054   -1.842967
     36          1           0        6.090127    0.159668   -0.134645
     37          1           0        6.247658    1.592450   -1.154530
     38          6           0       -0.487907    5.582387   -0.068775
     39          1           0        0.128769    5.838219   -0.931021
     40          1           0        0.086859    5.794320    0.832488
     41          1           0       -1.368951    6.218506   -0.070599
     42          6           0       -3.393907    4.333763   -0.231733
     43          1           0       -3.394344    5.216998   -0.861215
     44          6           0       -4.489212    4.020928    0.449610
     45          1           0       -4.519763    3.186080    1.129216
     46          1           0       -5.388528    4.609110    0.371557
     47          6           0       -5.322064   -0.653286   -0.832905
     48          1           0       -5.349610    0.207416   -1.499096
     49          1           0       -5.867400   -0.394406    0.075937
     50          1           0       -5.831291   -1.485640   -1.314290
     51          6           0       -4.002289   -3.569118   -0.579661
     52          1           0       -3.401542   -4.337669   -1.051521
     53          6           0       -5.235932   -3.864242   -0.184637
     54          1           0       -5.857339   -3.152465    0.330279
     55          1           0       -5.657384   -4.843537   -0.338675
     56          6           0        0.845651   -5.520838   -0.154069
     57          1           0        0.254824   -5.753624   -1.040393
     58          1           0        0.238876   -5.741308    0.724133
     59          1           0        1.715813   -6.172256   -0.143668
     60          6           0        3.822587   -4.228988   -0.359897
     61          1           0        4.311542   -3.965226   -1.297836
     62          1           0        3.704545   -5.309025   -0.328114
     63          1           0        4.478007   -3.929586    0.458380
     64          6           0        1.804605   -0.456455    2.931206
     65          1           0        2.265705   -1.206115    2.296713
     66          1           0        1.765094   -0.781915    3.966018
     67          1           0        2.351090    0.477540    2.851461
     68         16           0        0.105834   -0.113924    2.343458
     69          1           0       -0.329443   -1.372304    2.504146
 ---------------------------------------------------------------------
 Rotational constants (GHZ):           0.1135859           0.1079858           0.0605869
 Standard basis: def2TZVP (5D, 7F)
 There are  1546 symmetry adapted cartesian basis functions of A   symmetry.
 There are  1359 symmetry adapted basis functions of A   symmetry.
  1359 basis functions,  2212 primitive gaussians,  1546 cartesian basis functions
   146 alpha electrons      142 beta electrons
       nuclear repulsion energy      5042.0968403611 Hartrees.
 NAtoms=   69 NActive=   69 NUniq=   69 SFac= 1.00D+00 NAtFMM=   60 NAOKFM=T Big=T
 Integral buffers will be    131072 words long.
 Raffenetti 2 integral format.
 Two-electron integral symmetry is turned on.
 R6APFD:  NTU= -4 IXU= 1 FactS= 1.050
 Nuclear repulsion after empirical dispersion term =     5041.9639054515 Hartrees.
 One-electron integrals computed using PRISM.
   1 Symmetry operations used in ECPInt.
 ECPInt:  NShTT=  146611 NPrTT=  457451 LenC2=  115936 LenP2D=  241549.
 LDataN:  DoStor=T MaxTD1= 6 Len=  172
 Number of processors reduced to  26 by ecpmxn.
 NBasis=  1359 RedAO= T EigKep=  3.44D-06  NBF=  1359
 NBsUse=  1359 1.00D-06 EigRej= -1.00D+00 NBFU=  1359
 Initial guess from the checkpoint file:  "5g6p_II_Qn.chk"
 B after Tr=    -0.000000   -0.000000    0.000000
         Rot=    1.000000    0.000000    0.000000   -0.000000 Ang=   0.00 deg.
 Initial guess <Sx>= 0.0000 <Sy>= 0.0000 <Sz>= 2.0000 <S**2>= 6.0657 S= 2.0131
 Requested convergence on RMS density matrix=1.00D-08 within 999 cycles.
 Requested convergence on MAX density matrix=1.00D-06.
 Requested convergence on             energy=1.00D-06.
 No special actions if energy rises.
 Restarting incremental Fock formation.
 Restarting incremental Fock formation.
 SCF Done:  E(UAPFD) =  -3080.73406641     A.U. after   42 cycles
            NFock= 42  Conv=0.15D-08     -V/T= 2.0030
 <Sx>= 0.0000 <Sy>= 0.0000 <Sz>= 2.0000 <S**2>= 6.0665 S= 2.0133
 <L.S>=  0.00000000000    
 Annihilation of the first spin contaminant:
 S**2 before annihilation     6.0665,   after     6.0012

 **********************************************************************

            Population analysis using the SCF Density.

 **********************************************************************

 Orbital symmetries:
 Alpha Orbitals:
       Occupied  (A) (A) (A) (A) (A) (A) (A) (A) (A) (A) (A) (A)
                 (A) (A) (A) (A) (A) (A) (A) (A) (A) (A) (A) (A)
                 (A) (A) (A) (A) (A) (A) (A) (A) (A) (A) (A) (A)
                 (A) (A) (A) (A) (A) (A) (A) (A) (A) (A) (A) (A)
                 (A) (A) (A) (A) (A) (A) (A) (A) (A) (A) (A) (A)
                 (A) (A) (A) (A) (A) (A) (A) (A) (A) (A) (A) (A)
                 (A) (A) (A) (A) (A) (A) (A) (A) (A) (A) (A) (A)
                 (A) (A) (A) (A) (A) (A) (A) (A) (A) (A) (A) (A)
                 (A) (A) (A) (A) (A) (A) (A) (A) (A) (A) (A) (A)
                 (A) (A) (A) (A) (A) (A) (A) (A) (A) (A) (A) (A)
                 (A) (A) (A) (A) (A) (A) (A) (A) (A) (A) (A) (A)
                 (A) (A) (A) (A) (A) (A) (A) (A) (A) (A) (A) (A)
                 (A) (A)
       Virtual   (A) (A) (A) (A) (A) (A) (A) (A) (A) (A) (A) (A)
                 (A) (A) (A) (A) (A) (A) (A) (A) (A) (A) (A) (A)
                 (A) (A) (A) (A) (A) (A) (A) (A) (A) (A) (A) (A)
                 (A) (A) (A) (A) (A) (A) (A) (A) (A) (A) (A) (A)
                 (A) (A) (A) (A) (A) (A) (A) (A) (A) (A) (A) (A)
                 (A) (A) (A) (A) (A) (A) (A) (A) (A) (A) (A) (A)
                 (A) (A) (A) (A) (A) (A) (A) (A) (A) (A) (A) (A)
                 (A) (A) (A) (A) (A) (A) (A) (A) (A) (A) (A) (A)
                 (A) (A) (A) (A) (A) (A) (A) (A) (A) (A) (A) (A)
                 (A) (A) (A) (A) (A) (A) (A) (A) (A) (A) (A) (A)
                 (A) (A) (A) (A) (A) (A) (A) (A) (A) (A) (A) (A)
                 (A) (A) (A) (A) (A) (A) (A) (A) (A) (A) (A) (A)
                 (A) (A) (A) (A) (A) (A) (A) (A) (A) (A) (A) (A)
                 (A) (A) (A) (A) (A) (A) (A) (A) (A) (A) (A) (A)
                 (A) (A) (A) (A) (A) (A) (A) (A) (A) (A) (A) (A)
                 (A) (A) (A) (A) (A) (A) (A) (A) (A) (A) (A) (A)
                 (A) (A) (A) (A) (A) (A) (A) (A) (A) (A) (A) (A)
                 (A) (A) (A) (A) (A) (A) (A) (A) (A) (A) (A) (A)
                 (A) (A) (A) (A) (A) (A) (A) (A) (A) (A) (A) (A)
                 (A) (A) (A) (A) (A) (A) (A) (A) (A) (A) (A) (A)
                 (A) (A) (A) (A) (A) (A) (A) (A) (A) (A) (A) (A)
                 (A) (A) (A) (A) (A) (A) (A) (A) (A) (A) (A) (A)
                 (A) (A) (A) (A) (A) (A) (A) (A) (A) (A) (A) (A)
                 (A) (A) (A) (A) (A) (A) (A) (A) (A) (A) (A) (A)
                 (A) (A) (A) (A) (A) (A) (A) (A) (A) (A) (A) (A)
                 (A) (A) (A) (A) (A) (A) (A) (A) (A) (A) (A) (A)
                 (A) (A) (A) (A) (A) (A) (A) (A) (A) (A) (A) (A)
                 (A) (A) (A) (A) (A) (A) (A) (A) (A) (A) (A) (A)
                 (A) (A) (A) (A) (A) (A) (A) (A) (A) (A) (A) (A)
                 (A) (A) (A) (A) (A) (A) (A) (A) (A) (A) (A) (A)
                 (A) (A) (A) (A) (A) (A) (A) (A) (A) (A) (A) (A)
                 (A) (A) (A) (A) (A) (A) (A) (A) (A) (A) (A) (A)
                 (A) (A) (A) (A) (A) (A) (A) (A) (A) (A) (A) (A)
                 (A) (A) (A) (A) (A) (A) (A) (A) (A) (A) (A) (A)
                 (A) (A) (A) (A) (A) (A) (A) (A) (A) (A) (A) (A)
                 (A) (A) (A) (A) (A) (A) (A) (A) (A) (A) (A) (A)
                 (A) (A) (A) (A) (A) (A) (A) (A) (A) (A) (A) (A)
                 (A) (A) (A) (A) (A) (A) (A) (A) (A) (A) (A) (A)
                 (A) (A) (A) (A) (A) (A) (A) (A) (A) (A) (A) (A)
                 (A) (A) (A) (A) (A) (A) (A) (A) (A) (A) (A) (A)
                 (A) (A) (A) (A) (A) (A) (A) (A) (A) (A) (A) (A)
                 (A) (A) (A) (A) (A) (A) (A) (A) (A) (A) (A) (A)
                 (A) (A) (A) (A) (A) (A) (A) (A) (A) (A) (A) (A)
                 (A) (A) (A) (A) (A) (A) (A) (A) (A) (A) (A) (A)
                 (A) (A) (A) (A) (A) (A) (A) (A) (A) (A) (A) (A)
                 (A) (A) (A) (A) (A) (A) (A) (A) (A) (A) (A) (A)
                 (A) (A) (A) (A) (A) (A) (A) (A) (A) (A) (A) (A)
                 (A) (A) (A) (A) (A) (A) (A) (A) (A) (A) (A) (A)
                 (A) (A) (A) (A) (A) (A) (A) (A) (A) (A) (A) (A)
                 (A) (A) (A) (A) (A) (A) (A) (A) (A) (A) (A) (A)
                 (A) (A) (A) (A) (A) (A) (A) (A) (A) (A) (A) (A)
                 (A) (A) (A) (A) (A) (A) (A) (A) (A) (A) (A) (A)
                 (A) (A) (A) (A) (A) (A) (A) (A) (A) (A) (A) (A)
                 (A) (A) (A) (A) (A) (A) (A) (A) (A) (A) (A) (A)
                 (A) (A) (A) (A) (A) (A) (A) (A) (A) (A) (A) (A)
                 (A) (A) (A) (A) (A) (A) (A) (A) (A) (A) (A) (A)
                 (A) (A) (A) (A) (A) (A) (A) (A) (A) (A) (A) (A)
                 (A) (A) (A) (A) (A) (A) (A) (A) (A) (A) (A) (A)
                 (A) (A) (A) (A) (A) (A) (A) (A) (A) (A) (A) (A)
                 (A) (A) (A) (A) (A) (A) (A) (A) (A) (A) (A) (A)
                 (A) (A) (A) (A) (A) (A) (A) (A) (A) (A) (A) (A)
                 (A) (A) (A) (A) (A) (A) (A) (A) (A) (A) (A) (A)
                 (A) (A) (A) (A) (A) (A) (A) (A) (A) (A) (A) (A)
                 (A) (A) (A) (A) (A) (A) (A) (A) (A) (A) (A) (A)
                 (A) (A) (A) (A) (A) (A) (A) (A) (A) (A) (A) (A)
                 (A) (A) (A) (A) (A) (A) (A) (A) (A) (A) (A) (A)
                 (A) (A) (A) (A) (A) (A) (A) (A) (A) (A) (A) (A)
                 (A) (A) (A) (A) (A) (A) (A) (A) (A) (A) (A) (A)
                 (A) (A) (A) (A) (A) (A) (A) (A) (A) (A) (A) (A)
                 (A) (A) (A) (A) (A) (A) (A) (A) (A) (A) (A) (A)
                 (A) (A) (A) (A) (A) (A) (A) (A) (A) (A) (A) (A)
                 (A) (A) (A) (A) (A) (A) (A) (A) (A) (A) (A) (A)
                 (A) (A) (A) (A) (A) (A) (A) (A) (A) (A) (A) (A)
                 (A) (A) (A) (A) (A) (A) (A) (A) (A) (A) (A) (A)
                 (A) (A) (A) (A) (A) (A) (A) (A) (A) (A) (A) (A)
                 (A) (A) (A) (A) (A) (A) (A) (A) (A) (A) (A) (A)
                 (A) (A) (A) (A) (A) (A) (A) (A) (A) (A) (A) (A)
                 (A) (A) (A) (A) (A) (A) (A) (A) (A) (A) (A) (A)
                 (A) (A) (A) (A) (A) (A) (A) (A) (A) (A) (A) (A)
                 (A) (A) (A) (A) (A) (A) (A) (A) (A) (A) (A) (A)
                 (A) (A) (A) (A) (A) (A) (A) (A) (A) (A) (A) (A)
                 (A) (A) (A) (A) (A) (A) (A) (A) (A) (A) (A) (A)
                 (A) (A) (A) (A) (A) (A) (A) (A) (A) (A) (A) (A)
                 (A) (A) (A) (A) (A) (A) (A) (A) (A) (A) (A) (A)
                 (A) (A) (A) (A) (A) (A) (A) (A) (A) (A) (A) (A)
                 (A) (A) (A) (A) (A) (A) (A) (A) (A) (A) (A) (A)
                 (A) (A) (A) (A) (A) (A) (A) (A) (A) (A) (A) (A)
                 (A) (A) (A) (A) (A) (A) (A) (A) (A) (A) (A) (A)
                 (A) (A) (A) (A) (A) (A) (A) (A) (A) (A) (A) (A)
                 (A) (A) (A) (A) (A) (A) (A) (A) (A) (A) (A) (A)
                 (A) (A) (A) (A) (A) (A) (A) (A) (A) (A) (A) (A)
                 (A) (A) (A) (A) (A) (A) (A) (A) (A) (A) (A) (A)
                 (A) (A) (A) (A) (A) (A) (A) (A) (A) (A) (A) (A)
                 (A) (A) (A) (A) (A) (A) (A) (A) (A) (A) (A) (A)
                 (A) (A) (A) (A) (A) (A) (A) (A) (A) (A) (A) (A)
                 (A) (A) (A) (A) (A) (A) (A) (A) (A) (A) (A) (A)
                 (A) (A) (A) (A) (A) (A) (A) (A) (A) (A) (A) (A)
                 (A) (A) (A) (A) (A) (A) (A) (A) (A) (A) (A) (A)
                 (A) (A) (A) (A) (A) (A) (A) (A) (A) (A) (A) (A)
                 (A) (A) (A) (A) (A) (A) (A) (A) (A) (A) (A) (A)
                 (A) (A) (A) (A) (A) (A) (A) (A) (A) (A) (A) (A)
                 (A)
 Beta  Orbitals:
       Occupied  (A) (A) (A) (A) (A) (A) (A) (A) (A) (A) (A) (A)
                 (A) (A) (A) (A) (A) (A) (A) (A) (A) (A) (A) (A)
                 (A) (A) (A) (A) (A) (A) (A) (A) (A) (A) (A) (A)
                 (A) (A) (A) (A) (A) (A) (A) (A) (A) (A) (A) (A)
                 (A) (A) (A) (A) (A) (A) (A) (A) (A) (A) (A) (A)
                 (A) (A) (A) (A) (A) (A) (A) (A) (A) (A) (A) (A)
                 (A) (A) (A) (A) (A) (A) (A) (A) (A) (A) (A) (A)
                 (A) (A) (A) (A) (A) (A) (A) (A) (A) (A) (A) (A)
                 (A) (A) (A) (A) (A) (A) (A) (A) (A) (A) (A) (A)
                 (A) (A) (A) (A) (A) (A) (A) (A) (A) (A) (A) (A)
                 (A) (A) (A) (A) (A) (A) (A) (A) (A) (A) (A) (A)
                 (A) (A) (A) (A) (A) (A) (A) (A) (A) (A)
       Virtual   (A) (A) (A) (A) (A) (A) (A) (A) (A) (A) (A) (A)
                 (A) (A) (A) (A) (A) (A) (A) (A) (A) (A) (A) (A)
                 (A) (A) (A) (A) (A) (A) (A) (A) (A) (A) (A) (A)
                 (A) (A) (A) (A) (A) (A) (A) (A) (A) (A) (A) (A)
                 (A) (A) (A) (A) (A) (A) (A) (A) (A) (A) (A) (A)
                 (A) (A) (A) (A) (A) (A) (A) (A) (A) (A) (A) (A)
                 (A) (A) (A) (A) (A) (A) (A) (A) (A) (A) (A) (A)
                 (A) (A) (A) (A) (A) (A) (A) (A) (A) (A) (A) (A)
                 (A) (A) (A) (A) (A) (A) (A) (A) (A) (A) (A) (A)
                 (A) (A) (A) (A) (A) (A) (A) (A) (A) (A) (A) (A)
                 (A) (A) (A) (A) (A) (A) (A) (A) (A) (A) (A) (A)
                 (A) (A) (A) (A) (A) (A) (A) (A) (A) (A) (A) (A)
                 (A) (A) (A) (A) (A) (A) (A) (A) (A) (A) (A) (A)
                 (A) (A) (A) (A) (A) (A) (A) (A) (A) (A) (A) (A)
                 (A) (A) (A) (A) (A) (A) (A) (A) (A) (A) (A) (A)
                 (A) (A) (A) (A) (A) (A) (A) (A) (A) (A) (A) (A)
                 (A) (A) (A) (A) (A) (A) (A) (A) (A) (A) (A) (A)
                 (A) (A) (A) (A) (A) (A) (A) (A) (A) (A) (A) (A)
                 (A) (A) (A) (A) (A) (A) (A) (A) (A) (A) (A) (A)
                 (A) (A) (A) (A) (A) (A) (A) (A) (A) (A) (A) (A)
                 (A) (A) (A) (A) (A) (A) (A) (A) (A) (A) (A) (A)
                 (A) (A) (A) (A) (A) (A) (A) (A) (A) (A) (A) (A)
                 (A) (A) (A) (A) (A) (A) (A) (A) (A) (A) (A) (A)
                 (A) (A) (A) (A) (A) (A) (A) (A) (A) (A) (A) (A)
                 (A) (A) (A) (A) (A) (A) (A) (A) (A) (A) (A) (A)
                 (A) (A) (A) (A) (A) (A) (A) (A) (A) (A) (A) (A)
                 (A) (A) (A) (A) (A) (A) (A) (A) (A) (A) (A) (A)
                 (A) (A) (A) (A) (A) (A) (A) (A) (A) (A) (A) (A)
                 (A) (A) (A) (A) (A) (A) (A) (A) (A) (A) (A) (A)
                 (A) (A) (A) (A) (A) (A) (A) (A) (A) (A) (A) (A)
                 (A) (A) (A) (A) (A) (A) (A) (A) (A) (A) (A) (A)
                 (A) (A) (A) (A) (A) (A) (A) (A) (A) (A) (A) (A)
                 (A) (A) (A) (A) (A) (A) (A) (A) (A) (A) (A) (A)
                 (A) (A) (A) (A) (A) (A) (A) (A) (A) (A) (A) (A)
                 (A) (A) (A) (A) (A) (A) (A) (A) (A) (A) (A) (A)
                 (A) (A) (A) (A) (A) (A) (A) (A) (A) (A) (A) (A)
                 (A) (A) (A) (A) (A) (A) (A) (A) (A) (A) (A) (A)
                 (A) (A) (A) (A) (A) (A) (A) (A) (A) (A) (A) (A)
                 (A) (A) (A) (A) (A) (A) (A) (A) (A) (A) (A) (A)
                 (A) (A) (A) (A) (A) (A) (A) (A) (A) (A) (A) (A)
                 (A) (A) (A) (A) (A) (A) (A) (A) (A) (A) (A) (A)
                 (A) (A) (A) (A) (A) (A) (A) (A) (A) (A) (A) (A)
                 (A) (A) (A) (A) (A) (A) (A) (A) (A) (A) (A) (A)
                 (A) (A) (A) (A) (A) (A) (A) (A) (A) (A) (A) (A)
                 (A) (A) (A) (A) (A) (A) (A) (A) (A) (A) (A) (A)
                 (A) (A) (A) (A) (A) (A) (A) (A) (A) (A) (A) (A)
                 (A) (A) (A) (A) (A) (A) (A) (A) (A) (A) (A) (A)
                 (A) (A) (A) (A) (A) (A) (A) (A) (A) (A) (A) (A)
                 (A) (A) (A) (A) (A) (A) (A) (A) (A) (A) (A) (A)
                 (A) (A) (A) (A) (A) (A) (A) (A) (A) (A) (A) (A)
                 (A) (A) (A) (A) (A) (A) (A) (A) (A) (A) (A) (A)
                 (A) (A) (A) (A) (A) (A) (A) (A) (A) (A) (A) (A)
                 (A) (A) (A) (A) (A) (A) (A) (A) (A) (A) (A) (A)
                 (A) (A) (A) (A) (A) (A) (A) (A) (A) (A) (A) (A)
                 (A) (A) (A) (A) (A) (A) (A) (A) (A) (A) (A) (A)
                 (A) (A) (A) (A) (A) (A) (A) (A) (A) (A) (A) (A)
                 (A) (A) (A) (A) (A) (A) (A) (A) (A) (A) (A) (A)
                 (A) (A) (A) (A) (A) (A) (A) (A) (A) (A) (A) (A)
                 (A) (A) (A) (A) (A) (A) (A) (A) (A) (A) (A) (A)
                 (A) (A) (A) (A) (A) (A) (A) (A) (A) (A) (A) (A)
                 (A) (A) (A) (A) (A) (A) (A) (A) (A) (A) (A) (A)
                 (A) (A) (A) (A) (A) (A) (A) (A) (A) (A) (A) (A)
                 (A) (A) (A) (A) (A) (A) (A) (A) (A) (A) (A) (A)
                 (A) (A) (A) (A) (A) (A) (A) (A) (A) (A) (A) (A)
                 (A) (A) (A) (A) (A) (A) (A) (A) (A) (A) (A) (A)
                 (A) (A) (A) (A) (A) (A) (A) (A) (A) (A) (A) (A)
                 (A) (A) (A) (A) (A) (A) (A) (A) (A) (A) (A) (A)
                 (A) (A) (A) (A) (A) (A) (A) (A) (A) (A) (A) (A)
                 (A) (A) (A) (A) (A) (A) (A) (A) (A) (A) (A) (A)
                 (A) (A) (A) (A) (A) (A) (A) (A) (A) (A) (A) (A)
                 (A) (A) (A) (A) (A) (A) (A) (A) (A) (A) (A) (A)
                 (A) (A) (A) (A) (A) (A) (A) (A) (A) (A) (A) (A)
                 (A) (A) (A) (A) (A) (A) (A) (A) (A) (A) (A) (A)
                 (A) (A) (A) (A) (A) (A) (A) (A) (A) (A) (A) (A)
                 (A) (A) (A) (A) (A) (A) (A) (A) (A) (A) (A) (A)
                 (A) (A) (A) (A) (A) (A) (A) (A) (A) (A) (A) (A)
                 (A) (A) (A) (A) (A) (A) (A) (A) (A) (A) (A) (A)
                 (A) (A) (A) (A) (A) (A) (A) (A) (A) (A) (A) (A)
                 (A) (A) (A) (A) (A) (A) (A) (A) (A) (A) (A) (A)
                 (A) (A) (A) (A) (A) (A) (A) (A) (A) (A) (A) (A)
                 (A) (A) (A) (A) (A) (A) (A) (A) (A) (A) (A) (A)
                 (A) (A) (A) (A) (A) (A) (A) (A) (A) (A) (A) (A)
                 (A) (A) (A) (A) (A) (A) (A) (A) (A) (A) (A) (A)
                 (A) (A) (A) (A) (A) (A) (A) (A) (A) (A) (A) (A)
                 (A) (A) (A) (A) (A) (A) (A) (A) (A) (A) (A) (A)
                 (A) (A) (A) (A) (A) (A) (A) (A) (A) (A) (A) (A)
                 (A) (A) (A) (A) (A) (A) (A) (A) (A) (A) (A) (A)
                 (A) (A) (A) (A) (A) (A) (A) (A) (A) (A) (A) (A)
                 (A) (A) (A) (A) (A) (A) (A) (A) (A) (A) (A) (A)
                 (A) (A) (A) (A) (A) (A) (A) (A) (A) (A) (A) (A)
                 (A) (A) (A) (A) (A) (A) (A) (A) (A) (A) (A) (A)
                 (A) (A) (A) (A) (A) (A) (A) (A) (A) (A) (A) (A)
                 (A) (A) (A) (A) (A) (A) (A) (A) (A) (A) (A) (A)
                 (A) (A) (A) (A) (A) (A) (A) (A) (A) (A) (A) (A)
                 (A) (A) (A) (A) (A) (A) (A) (A) (A) (A) (A) (A)
                 (A) (A) (A) (A) (A) (A) (A) (A) (A) (A) (A) (A)
                 (A) (A) (A) (A) (A) (A) (A) (A) (A) (A) (A) (A)
                 (A) (A) (A) (A) (A) (A) (A) (A) (A) (A) (A) (A)
                 (A) (A) (A) (A) (A) (A) (A) (A) (A) (A) (A) (A)
                 (A) (A) (A) (A) (A) (A) (A) (A) (A) (A) (A) (A)
                 (A) (A) (A) (A) (A) (A) (A) (A) (A) (A) (A) (A)
                 (A) (A) (A) (A) (A)
 The electronic state is 5-A.
 Alpha  occ. eigenvalues -- -256.29789 -88.98583 -30.18443 -26.03283 -26.01113
 Alpha  occ. eigenvalues --  -26.00850 -14.36245 -14.35876 -14.35821 -14.35586
 Alpha  occ. eigenvalues --  -10.23905 -10.22422 -10.22361 -10.22143 -10.21986
 Alpha  occ. eigenvalues --  -10.21751 -10.21708 -10.21465 -10.21183 -10.20421
 Alpha  occ. eigenvalues --  -10.20233 -10.20097 -10.19928 -10.19870 -10.19524
 Alpha  occ. eigenvalues --  -10.19482 -10.19436 -10.19110 -10.19108 -10.19008
 Alpha  occ. eigenvalues --  -10.18990 -10.18944 -10.18896 -10.18824 -10.18783
 Alpha  occ. eigenvalues --  -10.18644 -10.18632 -10.18459 -10.18184 -10.18034
 Alpha  occ. eigenvalues --  -10.17837  -8.01523  -5.96039  -5.95791  -5.95398
 Alpha  occ. eigenvalues --   -3.60435  -2.40798  -2.35058  -2.34529  -0.98694
 Alpha  occ. eigenvalues --   -0.97814  -0.97453  -0.96578  -0.83272  -0.83067
 Alpha  occ. eigenvalues --   -0.82839  -0.82106  -0.81832  -0.81415  -0.80533
 Alpha  occ. eigenvalues --   -0.80367  -0.77565  -0.76394  -0.75023  -0.74704
 Alpha  occ. eigenvalues --   -0.73837  -0.71737  -0.70545  -0.69446  -0.68948
 Alpha  occ. eigenvalues --   -0.68720  -0.68626  -0.65145  -0.64793  -0.61429
 Alpha  occ. eigenvalues --   -0.60894  -0.58359  -0.57853  -0.55357  -0.54919
 Alpha  occ. eigenvalues --   -0.54573  -0.53550  -0.52364  -0.51986  -0.51142
 Alpha  occ. eigenvalues --   -0.49582  -0.49135  -0.48567  -0.48388  -0.47348
 Alpha  occ. eigenvalues --   -0.46726  -0.46235  -0.45544  -0.45397  -0.45025
 Alpha  occ. eigenvalues --   -0.44780  -0.44326  -0.44084  -0.43598  -0.43529
 Alpha  occ. eigenvalues --   -0.43059  -0.42825  -0.42378  -0.42230  -0.41917
 Alpha  occ. eigenvalues --   -0.41799  -0.41732  -0.41304  -0.41205  -0.41053
 Alpha  occ. eigenvalues --   -0.40925  -0.40744  -0.40176  -0.39521  -0.39427
 Alpha  occ. eigenvalues --   -0.39309  -0.39000  -0.38748  -0.38441  -0.38157
 Alpha  occ. eigenvalues --   -0.38025  -0.37937  -0.37721  -0.37208  -0.36702
 Alpha  occ. eigenvalues --   -0.35465  -0.35275  -0.34535  -0.34131  -0.34065
 Alpha  occ. eigenvalues --   -0.33287  -0.32770  -0.32115  -0.31595  -0.30673
 Alpha  occ. eigenvalues --   -0.29541  -0.27908  -0.27782  -0.27222  -0.24582
 Alpha  occ. eigenvalues --   -0.23954  -0.23574  -0.22861  -0.20323  -0.19471
 Alpha  occ. eigenvalues --   -0.11297
 Alpha virt. eigenvalues --   -0.09192  -0.07854  -0.03179  -0.00724  -0.00099
 Alpha virt. eigenvalues --    0.01051   0.02523   0.03562   0.03945   0.04479
 Alpha virt. eigenvalues --    0.05207   0.05628   0.05980   0.06467   0.06647
 Alpha virt. eigenvalues --    0.07116   0.07392   0.07907   0.08703   0.09016
 Alpha virt. eigenvalues --    0.09049   0.09347   0.09696   0.10188   0.10441
 Alpha virt. eigenvalues --    0.10794   0.11131   0.11363   0.11594   0.11705
 Alpha virt. eigenvalues --    0.12162   0.12279   0.12573   0.12665   0.12887
 Alpha virt. eigenvalues --    0.13236   0.13485   0.13785   0.14230   0.14349
 Alpha virt. eigenvalues --    0.14573   0.15033   0.15095   0.15320   0.15407
 Alpha virt. eigenvalues --    0.15696   0.15833   0.16046   0.16272   0.16619
 Alpha virt. eigenvalues --    0.16867   0.16980   0.17313   0.17455   0.17608
 Alpha virt. eigenvalues --    0.17770   0.18305   0.19004   0.19154   0.19323
 Alpha virt. eigenvalues --    0.19630   0.19779   0.20031   0.20427   0.20541
 Alpha virt. eigenvalues --    0.21084   0.21218   0.21536   0.21808   0.22045
 Alpha virt. eigenvalues --    0.22406   0.22639   0.23435   0.23490   0.23742
 Alpha virt. eigenvalues --    0.24027   0.24492   0.24684   0.25109   0.25428
 Alpha virt. eigenvalues --    0.25679   0.26158   0.26259   0.26767   0.26857
 Alpha virt. eigenvalues --    0.27251   0.27465   0.27519   0.28076   0.28590
 Alpha virt. eigenvalues --    0.28746   0.29016   0.29143   0.29307   0.29479
 Alpha virt. eigenvalues --    0.29960   0.30155   0.30321   0.30840   0.30989
 Alpha virt. eigenvalues --    0.31198   0.31446   0.32310   0.32376   0.32750
 Alpha virt. eigenvalues --    0.32977   0.33245   0.33706   0.34200   0.34441
 Alpha virt. eigenvalues --    0.34675   0.34980   0.35423   0.35508   0.36052
 Alpha virt. eigenvalues --    0.36158   0.36370   0.36742   0.37083   0.37343
 Alpha virt. eigenvalues --    0.37445   0.37946   0.38231   0.38588   0.38758
 Alpha virt. eigenvalues --    0.39031   0.39467   0.39661   0.40050   0.40243
 Alpha virt. eigenvalues --    0.40367   0.40730   0.40913   0.41004   0.41308
 Alpha virt. eigenvalues --    0.41500   0.41771   0.42183   0.42349   0.42536
 Alpha virt. eigenvalues --    0.42713   0.43024   0.43326   0.43353   0.43527
 Alpha virt. eigenvalues --    0.43998   0.44197   0.44509   0.44748   0.45044
 Alpha virt. eigenvalues --    0.45407   0.45531   0.45735   0.46148   0.46272
 Alpha virt. eigenvalues --    0.46533   0.46644   0.47023   0.47243   0.47377
 Alpha virt. eigenvalues --    0.47458   0.47787   0.48053   0.48154   0.48332
 Alpha virt. eigenvalues --    0.48905   0.48969   0.49168   0.49603   0.49766
 Alpha virt. eigenvalues --    0.50087   0.50321   0.50648   0.50866   0.50901
 Alpha virt. eigenvalues --    0.51018   0.51214   0.51469   0.51794   0.52023
 Alpha virt. eigenvalues --    0.52359   0.52649   0.52910   0.53092   0.53271
 Alpha virt. eigenvalues --    0.53550   0.53979   0.54097   0.54727   0.55029
 Alpha virt. eigenvalues --    0.55345   0.55884   0.56067   0.56486   0.56669
 Alpha virt. eigenvalues --    0.57081   0.57354   0.57542   0.58014   0.58534
 Alpha virt. eigenvalues --    0.58800   0.58985   0.59038   0.59660   0.60113
 Alpha virt. eigenvalues --    0.60658   0.61011   0.61471   0.61773   0.62299
 Alpha virt. eigenvalues --    0.62445   0.62538   0.62969   0.63210   0.63746
 Alpha virt. eigenvalues --    0.63918   0.64098   0.64498   0.64901   0.64953
 Alpha virt. eigenvalues --    0.65135   0.65528   0.65770   0.66838   0.66970
 Alpha virt. eigenvalues --    0.67276   0.67783   0.68025   0.68634   0.68693
 Alpha virt. eigenvalues --    0.68832   0.69504   0.69727   0.69924   0.70270
 Alpha virt. eigenvalues --    0.70321   0.70731   0.70968   0.71299   0.71560
 Alpha virt. eigenvalues --    0.71936   0.72123   0.72711   0.73055   0.73343
 Alpha virt. eigenvalues --    0.73767   0.74099   0.74277   0.74413   0.74698
 Alpha virt. eigenvalues --    0.75216   0.75548   0.76137   0.76183   0.76433
 Alpha virt. eigenvalues --    0.77017   0.77238   0.77898   0.78303   0.78532
 Alpha virt. eigenvalues --    0.78963   0.79716   0.79814   0.80000   0.80400
 Alpha virt. eigenvalues --    0.80896   0.81405   0.81830   0.82104   0.82737
 Alpha virt. eigenvalues --    0.83232   0.83472   0.84281   0.84943   0.85123
 Alpha virt. eigenvalues --    0.85574   0.85845   0.86186   0.86614   0.86885
 Alpha virt. eigenvalues --    0.87818   0.88088   0.88199   0.88345   0.89116
 Alpha virt. eigenvalues --    0.89337   0.89630   0.90289   0.90835   0.91111
 Alpha virt. eigenvalues --    0.91428   0.91901   0.92462   0.92675   0.92729
 Alpha virt. eigenvalues --    0.93417   0.93799   0.94576   0.94911   0.95474
 Alpha virt. eigenvalues --    0.95619   0.96311   0.96418   0.96582   0.97171
 Alpha virt. eigenvalues --    0.97484   0.97592   0.97987   0.98249   0.98652
 Alpha virt. eigenvalues --    0.98815   0.99101   0.99613   0.99892   1.00158
 Alpha virt. eigenvalues --    1.00701   1.01326   1.01719   1.01940   1.02340
 Alpha virt. eigenvalues --    1.02792   1.03131   1.03382   1.03573   1.03792
 Alpha virt. eigenvalues --    1.03986   1.04631   1.04858   1.05636   1.05901
 Alpha virt. eigenvalues --    1.06207   1.06720   1.07175   1.07949   1.08319
 Alpha virt. eigenvalues --    1.09083   1.09997   1.10291   1.10411   1.10706
 Alpha virt. eigenvalues --    1.11201   1.11581   1.12022   1.12894   1.13652
 Alpha virt. eigenvalues --    1.14359   1.14959   1.15439   1.15794   1.16660
 Alpha virt. eigenvalues --    1.17044   1.17255   1.17340   1.17779   1.18436
 Alpha virt. eigenvalues --    1.19193   1.19359   1.19806   1.20081   1.21235
 Alpha virt. eigenvalues --    1.21692   1.21831   1.22130   1.22750   1.23084
 Alpha virt. eigenvalues --    1.23845   1.24665   1.24729   1.25283   1.25656
 Alpha virt. eigenvalues --    1.25996   1.26265   1.26622   1.27056   1.27158
 Alpha virt. eigenvalues --    1.28088   1.28197   1.28328   1.28697   1.29357
 Alpha virt. eigenvalues --    1.29661   1.29765   1.30890   1.31013   1.31522
 Alpha virt. eigenvalues --    1.32438   1.33175   1.33659   1.35390   1.35556
 Alpha virt. eigenvalues --    1.36037   1.36336   1.36884   1.37669   1.38768
 Alpha virt. eigenvalues --    1.39008   1.39965   1.40917   1.41303   1.41700
 Alpha virt. eigenvalues --    1.42358   1.42718   1.42869   1.43633   1.43756
 Alpha virt. eigenvalues --    1.44129   1.45542   1.45848   1.46248   1.46661
 Alpha virt. eigenvalues --    1.47022   1.47632   1.47870   1.48369   1.48747
 Alpha virt. eigenvalues --    1.49021   1.49112   1.49921   1.50040   1.50230
 Alpha virt. eigenvalues --    1.50544   1.50739   1.50898   1.51560   1.51701
 Alpha virt. eigenvalues --    1.51864   1.52163   1.52928   1.53147   1.53549
 Alpha virt. eigenvalues --    1.53808   1.54038   1.54194   1.55125   1.55291
 Alpha virt. eigenvalues --    1.55398   1.55596   1.55928   1.56120   1.56327
 Alpha virt. eigenvalues --    1.56729   1.56945   1.57150   1.57466   1.57943
 Alpha virt. eigenvalues --    1.58356   1.58517   1.58847   1.59055   1.59216
 Alpha virt. eigenvalues --    1.59696   1.60187   1.60313   1.60715   1.60940
 Alpha virt. eigenvalues --    1.61578   1.61625   1.62148   1.62329   1.63127
 Alpha virt. eigenvalues --    1.63397   1.63550   1.63711   1.63914   1.64620
 Alpha virt. eigenvalues --    1.65088   1.65374   1.65720   1.65993   1.66468
 Alpha virt. eigenvalues --    1.66918   1.67059   1.67240   1.67433   1.67685
 Alpha virt. eigenvalues --    1.68422   1.69066   1.69112   1.69454   1.69780
 Alpha virt. eigenvalues --    1.70067   1.70316   1.71013   1.71418   1.71939
 Alpha virt. eigenvalues --    1.72303   1.72436   1.72981   1.73551   1.73767
 Alpha virt. eigenvalues --    1.74725   1.75090   1.75508   1.76067   1.76365
 Alpha virt. eigenvalues --    1.76944   1.77384   1.78276   1.78974   1.79056
 Alpha virt. eigenvalues --    1.79921   1.80121   1.80425   1.81514   1.82254
 Alpha virt. eigenvalues --    1.82701   1.82856   1.83240   1.83675   1.84232
 Alpha virt. eigenvalues --    1.84417   1.84995   1.85377   1.86064   1.86645
 Alpha virt. eigenvalues --    1.87056   1.87372   1.87717   1.88164   1.88960
 Alpha virt. eigenvalues --    1.89435   1.90019   1.90832   1.91753   1.92777
 Alpha virt. eigenvalues --    1.93228   1.93629   1.94087   1.94429   1.94843
 Alpha virt. eigenvalues --    1.95438   1.95737   1.96082   1.96550   1.97200
 Alpha virt. eigenvalues --    1.97542   1.98138   1.98427   1.98786   1.99422
 Alpha virt. eigenvalues --    1.99820   2.00006   2.00488   2.00939   2.01327
 Alpha virt. eigenvalues --    2.01949   2.02450   2.03037   2.03195   2.04560
 Alpha virt. eigenvalues --    2.05063   2.05948   2.06040   2.06501   2.07056
 Alpha virt. eigenvalues --    2.07257   2.07774   2.08576   2.09324   2.09525
 Alpha virt. eigenvalues --    2.09907   2.10204   2.10883   2.11920   2.12309
 Alpha virt. eigenvalues --    2.12681   2.12765   2.13446   2.14240   2.14893
 Alpha virt. eigenvalues --    2.15445   2.15671   2.16627   2.17118   2.17674
 Alpha virt. eigenvalues --    2.17726   2.18066   2.19467   2.20272   2.20376
 Alpha virt. eigenvalues --    2.21134   2.21552   2.22020   2.22685   2.23618
 Alpha virt. eigenvalues --    2.24040   2.24329   2.24792   2.25416   2.25910
 Alpha virt. eigenvalues --    2.26130   2.26521   2.27163   2.27840   2.28029
 Alpha virt. eigenvalues --    2.28379   2.28695   2.29460   2.30001   2.30368
 Alpha virt. eigenvalues --    2.30863   2.31099   2.31872   2.32133   2.32657
 Alpha virt. eigenvalues --    2.33039   2.33573   2.34040   2.34393   2.34898
 Alpha virt. eigenvalues --    2.35337   2.35728   2.36068   2.36402   2.36840
 Alpha virt. eigenvalues --    2.37116   2.38000   2.38250   2.38531   2.38642
 Alpha virt. eigenvalues --    2.39048   2.39719   2.40561   2.40834   2.41120
 Alpha virt. eigenvalues --    2.41715   2.42171   2.42780   2.43338   2.43706
 Alpha virt. eigenvalues --    2.44609   2.45252   2.45642   2.46248   2.46372
 Alpha virt. eigenvalues --    2.46624   2.47110   2.47721   2.48294   2.48890
 Alpha virt. eigenvalues --    2.49374   2.50422   2.50632   2.51180   2.51879
 Alpha virt. eigenvalues --    2.52491   2.52568   2.52751   2.54082   2.54208
 Alpha virt. eigenvalues --    2.54822   2.55081   2.55337   2.55777   2.56049
 Alpha virt. eigenvalues --    2.56258   2.56757   2.57171   2.57516   2.57802
 Alpha virt. eigenvalues --    2.58255   2.59000   2.59349   2.59428   2.59882
 Alpha virt. eigenvalues --    2.60214   2.60539   2.60765   2.61395   2.61620
 Alpha virt. eigenvalues --    2.62050   2.62624   2.62813   2.63705   2.64259
 Alpha virt. eigenvalues --    2.64958   2.65210   2.65444   2.66133   2.67065
 Alpha virt. eigenvalues --    2.67708   2.67994   2.68114   2.68619   2.68988
 Alpha virt. eigenvalues --    2.69425   2.70007   2.70594   2.71039   2.71414
 Alpha virt. eigenvalues --    2.71573   2.72443   2.73085   2.73684   2.74171
 Alpha virt. eigenvalues --    2.74300   2.74534   2.75181   2.75545   2.76269
 Alpha virt. eigenvalues --    2.76883   2.77811   2.78065   2.78743   2.78974
 Alpha virt. eigenvalues --    2.79592   2.80044   2.80769   2.81327   2.81762
 Alpha virt. eigenvalues --    2.81935   2.82079   2.82670   2.83124   2.83747
 Alpha virt. eigenvalues --    2.84296   2.84635   2.85017   2.85608   2.85751
 Alpha virt. eigenvalues --    2.86054   2.86149   2.86847   2.87012   2.87423
 Alpha virt. eigenvalues --    2.87877   2.88218   2.89405   2.89583   2.90173
 Alpha virt. eigenvalues --    2.90550   2.90672   2.91298   2.91465   2.92444
 Alpha virt. eigenvalues --    2.92546   2.93040   2.93234   2.94067   2.94405
 Alpha virt. eigenvalues --    2.95263   2.95609   2.95746   2.96566   2.96923
 Alpha virt. eigenvalues --    2.97632   2.97864   2.98249   2.98722   2.99546
 Alpha virt. eigenvalues --    2.99964   3.00869   3.00987   3.01675   3.01922
 Alpha virt. eigenvalues --    3.02251   3.02910   3.03532   3.04165   3.04365
 Alpha virt. eigenvalues --    3.04658   3.05180   3.05279   3.05844   3.06202
 Alpha virt. eigenvalues --    3.06463   3.06711   3.07127   3.07622   3.07861
 Alpha virt. eigenvalues --    3.08348   3.08664   3.09063   3.09187   3.09292
 Alpha virt. eigenvalues --    3.10371   3.10775   3.11134   3.11182   3.11780
 Alpha virt. eigenvalues --    3.11913   3.12443   3.12966   3.13679   3.14118
 Alpha virt. eigenvalues --    3.14453   3.14527   3.14742   3.15046   3.15704
 Alpha virt. eigenvalues --    3.16308   3.16652   3.16889   3.17317   3.17440
 Alpha virt. eigenvalues --    3.17861   3.18326   3.18563   3.18953   3.19357
 Alpha virt. eigenvalues --    3.19434   3.19759   3.20216   3.20590   3.20739
 Alpha virt. eigenvalues --    3.21291   3.21605   3.21957   3.22195   3.22489
 Alpha virt. eigenvalues --    3.23160   3.23392   3.24095   3.24252   3.24486
 Alpha virt. eigenvalues --    3.24659   3.24704   3.25022   3.25530   3.26082
 Alpha virt. eigenvalues --    3.26302   3.26339   3.27318   3.27433   3.27761
 Alpha virt. eigenvalues --    3.28353   3.28531   3.29145   3.29406   3.29713
 Alpha virt. eigenvalues --    3.29894   3.30415   3.30612   3.30765   3.30918
 Alpha virt. eigenvalues --    3.31490   3.31728   3.32051   3.32157   3.32690
 Alpha virt. eigenvalues --    3.33116   3.33461   3.33655   3.33822   3.34074
 Alpha virt. eigenvalues --    3.34470   3.34630   3.34881   3.35145   3.35601
 Alpha virt. eigenvalues --    3.35887   3.36107   3.36453   3.36659   3.36886
 Alpha virt. eigenvalues --    3.37066   3.37219   3.37482   3.37763   3.38298
 Alpha virt. eigenvalues --    3.38589   3.38791   3.39394   3.39947   3.40142
 Alpha virt. eigenvalues --    3.40398   3.40993   3.41346   3.41453   3.42164
 Alpha virt. eigenvalues --    3.42361   3.42524   3.42805   3.44119   3.44560
 Alpha virt. eigenvalues --    3.44849   3.45124   3.45572   3.45706   3.46435
 Alpha virt. eigenvalues --    3.47019   3.47530   3.47830   3.48333   3.48834
 Alpha virt. eigenvalues --    3.49281   3.49469   3.50210   3.50570   3.51201
 Alpha virt. eigenvalues --    3.52490   3.52747   3.53337   3.54365   3.54613
 Alpha virt. eigenvalues --    3.55070   3.55311   3.56652   3.56977   3.57433
 Alpha virt. eigenvalues --    3.58055   3.58186   3.58787   3.59226   3.59445
 Alpha virt. eigenvalues --    3.59837   3.60548   3.60726   3.61430   3.62059
 Alpha virt. eigenvalues --    3.62532   3.63076   3.63742   3.64209   3.64764
 Alpha virt. eigenvalues --    3.65247   3.66341   3.66646   3.67007   3.67438
 Alpha virt. eigenvalues --    3.68048   3.68449   3.68725   3.70068   3.70448
 Alpha virt. eigenvalues --    3.70830   3.71063   3.71365   3.71701   3.72438
 Alpha virt. eigenvalues --    3.72856   3.73043   3.73309   3.73477   3.73980
 Alpha virt. eigenvalues --    3.74637   3.74919   3.75701   3.75956   3.76623
 Alpha virt. eigenvalues --    3.77140   3.77252   3.78242   3.79073   3.79871
 Alpha virt. eigenvalues --    3.80372   3.80879   3.81444   3.82032   3.83228
 Alpha virt. eigenvalues --    3.83723   3.84266   3.84787   3.85386   3.86207
 Alpha virt. eigenvalues --    3.86615   3.86980   3.88315   3.88990   3.89361
 Alpha virt. eigenvalues --    3.90143   3.90253   3.91650   3.91729   3.92330
 Alpha virt. eigenvalues --    3.93724   3.94631   3.95369   3.95611   3.96626
 Alpha virt. eigenvalues --    3.97413   3.97744   3.98045   3.99247   3.99407
 Alpha virt. eigenvalues --    4.00186   4.00645   4.00933   4.01441   4.01602
 Alpha virt. eigenvalues --    4.02308   4.03486   4.03890   4.04363   4.05578
 Alpha virt. eigenvalues --    4.06130   4.07348   4.07452   4.08033   4.08688
 Alpha virt. eigenvalues --    4.08838   4.10087   4.10584   4.11627   4.12319
 Alpha virt. eigenvalues --    4.13345   4.14354   4.14967   4.15384   4.15882
 Alpha virt. eigenvalues --    4.16381   4.16842   4.17025   4.17907   4.18918
 Alpha virt. eigenvalues --    4.19170   4.19944   4.20373   4.20487   4.21059
 Alpha virt. eigenvalues --    4.21590   4.21666   4.22156   4.23028   4.23229
 Alpha virt. eigenvalues --    4.24016   4.24999   4.25951   4.26833   4.27344
 Alpha virt. eigenvalues --    4.28646   4.29193   4.29712   4.30739   4.31369
 Alpha virt. eigenvalues --    4.31726   4.32552   4.32642   4.33944   4.34872
 Alpha virt. eigenvalues --    4.35353   4.35879   4.37507   4.37978   4.38545
 Alpha virt. eigenvalues --    4.38851   4.39599   4.39902   4.40279   4.40401
 Alpha virt. eigenvalues --    4.40815   4.41597   4.42266   4.43037   4.43653
 Alpha virt. eigenvalues --    4.44259   4.44467   4.45452   4.46118   4.46471
 Alpha virt. eigenvalues --    4.46738   4.47489   4.49623   4.50529   4.51590
 Alpha virt. eigenvalues --    4.51734   4.52754   4.53466   4.54639   4.56031
 Alpha virt. eigenvalues --    4.56152   4.56395   4.58465   4.60460   4.61608
 Alpha virt. eigenvalues --    4.61930   4.62623   4.64050   4.65382   4.66560
 Alpha virt. eigenvalues --    4.67416   4.67608   4.68149   4.68923   4.70081
 Alpha virt. eigenvalues --    4.72140   4.72433   4.73359   4.74278   4.75340
 Alpha virt. eigenvalues --    4.76918   4.77651   4.78535   4.80318   4.81422
 Alpha virt. eigenvalues --    4.81641   4.82578   4.82745   4.83525   4.84030
 Alpha virt. eigenvalues --    4.84732   4.85888   4.86254   4.87257   4.88899
 Alpha virt. eigenvalues --    4.90158   4.91800   4.92629   4.92926   4.93892
 Alpha virt. eigenvalues --    4.94845   4.96893   4.98197   4.98943   5.00021
 Alpha virt. eigenvalues --    5.00368   5.01161   5.02063   5.02308   5.03403
 Alpha virt. eigenvalues --    5.04516   5.05381   5.06927   5.07889   5.09476
 Alpha virt. eigenvalues --    5.10216   5.12376   5.13766   5.15673   5.17031
 Alpha virt. eigenvalues --    5.18277   5.18418   5.19383   5.20710   5.21565
 Alpha virt. eigenvalues --    5.22066   5.23582   5.25281   5.27340   5.33858
 Alpha virt. eigenvalues --    5.34544   5.35175   5.36193   5.36899   5.37524
 Alpha virt. eigenvalues --    5.38143   5.38611   5.41458   5.45853   5.47082
 Alpha virt. eigenvalues --    5.47827   5.48341   5.49691   5.50079   5.51389
 Alpha virt. eigenvalues --    5.57108   5.59009   5.60267   5.60799   5.61507
 Alpha virt. eigenvalues --    5.64901   5.66270   5.67127   5.71145   5.73272
 Alpha virt. eigenvalues --    5.74048   5.75096   5.75408   5.76569   5.82022
 Alpha virt. eigenvalues --    5.85945   5.89489   5.98647   5.99541   6.00379
 Alpha virt. eigenvalues --    6.04462   6.08365   6.09995   6.10337   6.16953
 Alpha virt. eigenvalues --    6.24351   6.31288   6.32280   6.39062   9.02839
 Alpha virt. eigenvalues --    9.16527   9.36557  19.48746  22.29532  22.34328
 Alpha virt. eigenvalues --   22.35058  22.45411  22.46147  22.52953  22.55293
 Alpha virt. eigenvalues --   22.61023  22.62209  22.80324  22.87181  22.87253
 Alpha virt. eigenvalues --   22.91250  22.92902  22.94689  22.96331  23.03116
 Alpha virt. eigenvalues --   23.05017  23.15290  23.25399  23.29487  23.29851
 Alpha virt. eigenvalues --   23.35694  23.42204  23.50115  23.51818  23.56350
 Alpha virt. eigenvalues --   23.74285  23.78759  23.79094  23.88306  32.84597
 Alpha virt. eigenvalues --   32.86993  32.87558  32.99747
  Beta  occ. eigenvalues -- -256.29683 -88.98466 -30.12456 -25.97012 -25.96908
  Beta  occ. eigenvalues --  -25.96326 -14.36333 -14.35984 -14.35681 -14.35461
  Beta  occ. eigenvalues --  -10.23904 -10.22403 -10.22362 -10.22189 -10.21938
  Beta  occ. eigenvalues --  -10.21667 -10.21650 -10.21282 -10.21024 -10.20417
  Beta  occ. eigenvalues --  -10.20175 -10.20114 -10.19945 -10.19817 -10.19566
  Beta  occ. eigenvalues --  -10.19481 -10.19440 -10.19114 -10.19033 -10.19004
  Beta  occ. eigenvalues --  -10.18998 -10.18900 -10.18794 -10.18778 -10.18689
  Beta  occ. eigenvalues --  -10.18637 -10.18586 -10.18311 -10.17978 -10.17957
  Beta  occ. eigenvalues --  -10.17627  -8.01402  -5.95959  -5.95659  -5.95122
  Beta  occ. eigenvalues --   -3.46086  -2.22460  -2.22347  -2.19633  -0.98483
  Beta  occ. eigenvalues --   -0.97602  -0.97265  -0.96394  -0.83088  -0.82756
  Beta  occ. eigenvalues --   -0.82539  -0.81944  -0.81677  -0.81210  -0.80339
  Beta  occ. eigenvalues --   -0.80029  -0.77455  -0.76270  -0.74920  -0.74365
  Beta  occ. eigenvalues --   -0.73725  -0.71678  -0.70410  -0.69394  -0.68814
  Beta  occ. eigenvalues --   -0.68574  -0.68383  -0.64994  -0.64487  -0.61387
  Beta  occ. eigenvalues --   -0.60746  -0.58187  -0.57634  -0.55216  -0.54802
  Beta  occ. eigenvalues --   -0.54493  -0.53340  -0.52283  -0.51887  -0.51020
  Beta  occ. eigenvalues --   -0.49299  -0.48734  -0.48439  -0.48189  -0.46926
  Beta  occ. eigenvalues --   -0.46339  -0.45965  -0.45249  -0.45035  -0.44424
  Beta  occ. eigenvalues --   -0.44263  -0.44181  -0.43826  -0.43466  -0.43188
  Beta  occ. eigenvalues --   -0.42791  -0.42315  -0.42197  -0.41735  -0.41664
  Beta  occ. eigenvalues --   -0.41280  -0.40882  -0.40761  -0.40658  -0.40248
  Beta  occ. eigenvalues --   -0.39983  -0.39940  -0.39346  -0.39313  -0.38817
  Beta  occ. eigenvalues --   -0.38546  -0.38322  -0.38166  -0.37944  -0.37472
  Beta  occ. eigenvalues --   -0.37276  -0.36662  -0.36494  -0.35258  -0.35068
  Beta  occ. eigenvalues --   -0.34042  -0.33312  -0.32429  -0.32204  -0.32011
  Beta  occ. eigenvalues --   -0.31128  -0.30207  -0.29136  -0.27261  -0.26965
  Beta  occ. eigenvalues --   -0.26797  -0.24865  -0.24221  -0.23633  -0.22568
  Beta  occ. eigenvalues --   -0.19246  -0.18235
  Beta virt. eigenvalues --   -0.10559  -0.10321  -0.07953  -0.06377  -0.05547
  Beta virt. eigenvalues --   -0.02062  -0.01219  -0.00138   0.00383   0.01767
  Beta virt. eigenvalues --    0.02942   0.03750   0.04530   0.04815   0.05649
  Beta virt. eigenvalues --    0.05712   0.06479   0.06755   0.07314   0.07652
  Beta virt. eigenvalues --    0.07795   0.08137   0.09009   0.09197   0.09295
  Beta virt. eigenvalues --    0.09551   0.09792   0.10362   0.10627   0.10928
  Beta virt. eigenvalues --    0.11279   0.11565   0.11883   0.11958   0.12310
  Beta virt. eigenvalues --    0.12474   0.12755   0.13145   0.13340   0.13497
  Beta virt. eigenvalues --    0.13610   0.13905   0.14446   0.14674   0.14920
  Beta virt. eigenvalues --    0.15175   0.15292   0.15448   0.15606   0.15808
  Beta virt. eigenvalues --    0.16070   0.16281   0.16671   0.16782   0.17015
  Beta virt. eigenvalues --    0.17156   0.17535   0.17812   0.17855   0.18577
  Beta virt. eigenvalues --    0.18676   0.19087   0.19267   0.19491   0.19752
  Beta virt. eigenvalues --    0.20014   0.20249   0.20722   0.20867   0.21234
  Beta virt. eigenvalues --    0.21391   0.21684   0.22024   0.22241   0.22663
  Beta virt. eigenvalues --    0.22929   0.23584   0.23654   0.23980   0.24283
  Beta virt. eigenvalues --    0.24643   0.24956   0.25289   0.25558   0.25785
  Beta virt. eigenvalues --    0.26273   0.26487   0.27033   0.27116   0.27456
  Beta virt. eigenvalues --    0.27581   0.27781   0.28288   0.28851   0.28887
  Beta virt. eigenvalues --    0.29150   0.29280   0.29488   0.29786   0.30114
  Beta virt. eigenvalues --    0.30348   0.30555   0.31075   0.31248   0.31350
  Beta virt. eigenvalues --    0.31657   0.32462   0.32624   0.32923   0.33237
  Beta virt. eigenvalues --    0.33415   0.33929   0.34364   0.34648   0.34873
  Beta virt. eigenvalues --    0.35180   0.35674   0.35936   0.36325   0.36370
  Beta virt. eigenvalues --    0.36590   0.37071   0.37331   0.37548   0.37810
  Beta virt. eigenvalues --    0.38132   0.38458   0.38809   0.38958   0.39335
  Beta virt. eigenvalues --    0.39710   0.39981   0.40263   0.40500   0.40570
  Beta virt. eigenvalues --    0.40927   0.41057   0.41294   0.41521   0.41696
  Beta virt. eigenvalues --    0.41951   0.42345   0.42508   0.42664   0.42931
  Beta virt. eigenvalues --    0.43204   0.43478   0.43521   0.43636   0.44221
  Beta virt. eigenvalues --    0.44365   0.44711   0.44971   0.45282   0.45517
  Beta virt. eigenvalues --    0.45683   0.45920   0.46264   0.46421   0.46650
  Beta virt. eigenvalues --    0.46894   0.47130   0.47336   0.47572   0.47599
  Beta virt. eigenvalues --    0.47982   0.48206   0.48280   0.48474   0.49041
  Beta virt. eigenvalues --    0.49109   0.49338   0.49773   0.49923   0.50226
  Beta virt. eigenvalues --    0.50412   0.50756   0.50987   0.51023   0.51199
  Beta virt. eigenvalues --    0.51356   0.51614   0.51970   0.52190   0.52468
  Beta virt. eigenvalues --    0.52786   0.53089   0.53318   0.53431   0.53704
  Beta virt. eigenvalues --    0.54117   0.54313   0.54927   0.55221   0.55549
  Beta virt. eigenvalues --    0.56062   0.56211   0.56664   0.56961   0.57276
  Beta virt. eigenvalues --    0.57554   0.57725   0.58271   0.58708   0.59019
  Beta virt. eigenvalues --    0.59220   0.59267   0.59813   0.60224   0.60839
  Beta virt. eigenvalues --    0.61184   0.61611   0.61926   0.62456   0.62631
  Beta virt. eigenvalues --    0.62745   0.63135   0.63401   0.63997   0.64158
  Beta virt. eigenvalues --    0.64262   0.64637   0.65057   0.65162   0.65366
  Beta virt. eigenvalues --    0.65725   0.65943   0.67034   0.67123   0.67540
  Beta virt. eigenvalues --    0.67975   0.68244   0.68815   0.68974   0.69044
  Beta virt. eigenvalues --    0.69706   0.69904   0.70125   0.70460   0.70518
  Beta virt. eigenvalues --    0.71025   0.71264   0.71503   0.71797   0.72247
  Beta virt. eigenvalues --    0.72413   0.73002   0.73295   0.73627   0.73986
  Beta virt. eigenvalues --    0.74324   0.74581   0.74679   0.74984   0.75439
  Beta virt. eigenvalues --    0.75767   0.76314   0.76381   0.76757   0.77217
  Beta virt. eigenvalues --    0.77480   0.78123   0.78443   0.78762   0.79198
  Beta virt. eigenvalues --    0.79926   0.80080   0.80149   0.80703   0.81177
  Beta virt. eigenvalues --    0.81628   0.82044   0.82292   0.82938   0.83493
  Beta virt. eigenvalues --    0.83744   0.84453   0.85182   0.85435   0.85788
  Beta virt. eigenvalues --    0.86004   0.86365   0.86881   0.87087   0.88041
  Beta virt. eigenvalues --    0.88321   0.88438   0.88705   0.89285   0.89584
  Beta virt. eigenvalues --    0.89859   0.90462   0.91066   0.91345   0.91698
  Beta virt. eigenvalues --    0.92104   0.92681   0.92851   0.92913   0.93591
  Beta virt. eigenvalues --    0.93948   0.94728   0.95088   0.95693   0.95771
  Beta virt. eigenvalues --    0.96488   0.96577   0.96901   0.97433   0.97731
  Beta virt. eigenvalues --    0.97826   0.98298   0.98518   0.98985   0.99125
  Beta virt. eigenvalues --    0.99528   0.99731   1.00038   1.00383   1.00868
  Beta virt. eigenvalues --    1.01601   1.01928   1.02176   1.02638   1.03026
  Beta virt. eigenvalues --    1.03329   1.03493   1.03843   1.03976   1.04433
  Beta virt. eigenvalues --    1.04965   1.05162   1.05928   1.06116   1.06944
  Beta virt. eigenvalues --    1.07100   1.07682   1.08193   1.08621   1.09347
  Beta virt. eigenvalues --    1.10349   1.10515   1.10615   1.10902   1.11586
  Beta virt. eigenvalues --    1.11877   1.12195   1.13215   1.13866   1.14568
  Beta virt. eigenvalues --    1.15146   1.15654   1.15932   1.16827   1.17340
  Beta virt. eigenvalues --    1.17458   1.17551   1.18023   1.18590   1.19510
  Beta virt. eigenvalues --    1.19751   1.20057   1.20291   1.21632   1.22104
  Beta virt. eigenvalues --    1.22127   1.22959   1.22990   1.23407   1.24146
  Beta virt. eigenvalues --    1.24872   1.25025   1.25758   1.25961   1.26300
  Beta virt. eigenvalues --    1.26515   1.26840   1.27319   1.27415   1.28321
  Beta virt. eigenvalues --    1.28406   1.28597   1.28887   1.29620   1.29946
  Beta virt. eigenvalues --    1.30192   1.31171   1.31251   1.31836   1.32748
  Beta virt. eigenvalues --    1.33396   1.33956   1.35642   1.35744   1.36298
  Beta virt. eigenvalues --    1.36564   1.37199   1.37924   1.39128   1.39277
  Beta virt. eigenvalues --    1.40130   1.41303   1.41528   1.41996   1.42657
  Beta virt. eigenvalues --    1.42941   1.43193   1.43965   1.44197   1.44480
  Beta virt. eigenvalues --    1.45835   1.46237   1.46585   1.46977   1.47268
  Beta virt. eigenvalues --    1.47805   1.48035   1.48634   1.48964   1.49206
  Beta virt. eigenvalues --    1.49411   1.50124   1.50296   1.50514   1.50758
  Beta virt. eigenvalues --    1.51068   1.51219   1.51709   1.51931   1.52287
  Beta virt. eigenvalues --    1.52378   1.53213   1.53510   1.53748   1.53997
  Beta virt. eigenvalues --    1.54259   1.54439   1.55231   1.55399   1.55550
  Beta virt. eigenvalues --    1.55717   1.56036   1.56260   1.56484   1.56818
  Beta virt. eigenvalues --    1.57121   1.57289   1.57586   1.58088   1.58514
  Beta virt. eigenvalues --    1.58796   1.59005   1.59236   1.59395   1.59902
  Beta virt. eigenvalues --    1.60345   1.60478   1.60882   1.61125   1.61748
  Beta virt. eigenvalues --    1.61825   1.62376   1.62501   1.63293   1.63539
  Beta virt. eigenvalues --    1.63768   1.63919   1.64133   1.64783   1.65254
  Beta virt. eigenvalues --    1.65608   1.65887   1.66206   1.66706   1.67017
  Beta virt. eigenvalues --    1.67157   1.67444   1.67661   1.67922   1.68712
  Beta virt. eigenvalues --    1.69252   1.69293   1.69603   1.69989   1.70235
  Beta virt. eigenvalues --    1.70470   1.71227   1.71609   1.72228   1.72426
  Beta virt. eigenvalues --    1.72632   1.73115   1.73705   1.73978   1.75062
  Beta virt. eigenvalues --    1.75319   1.75744   1.76312   1.76548   1.77248
  Beta virt. eigenvalues --    1.77583   1.78466   1.79196   1.79394   1.80178
  Beta virt. eigenvalues --    1.80385   1.80635   1.81740   1.82453   1.82890
  Beta virt. eigenvalues --    1.83119   1.83383   1.83878   1.84425   1.84668
  Beta virt. eigenvalues --    1.85188   1.85632   1.86314   1.86843   1.87381
  Beta virt. eigenvalues --    1.87698   1.88021   1.88420   1.89235   1.89677
  Beta virt. eigenvalues --    1.90364   1.91173   1.91984   1.93015   1.93407
  Beta virt. eigenvalues --    1.93910   1.94268   1.94749   1.95083   1.95627
  Beta virt. eigenvalues --    1.95973   1.96215   1.96872   1.97404   1.97794
  Beta virt. eigenvalues --    1.98323   1.98612   1.98951   1.99623   1.99934
  Beta virt. eigenvalues --    2.00276   2.00673   2.01069   2.01527   2.02114
  Beta virt. eigenvalues --    2.02747   2.03291   2.03456   2.04714   2.05306
  Beta virt. eigenvalues --    2.06218   2.06246   2.07048   2.07291   2.07591
  Beta virt. eigenvalues --    2.08059   2.08834   2.09564   2.09696   2.10060
  Beta virt. eigenvalues --    2.10391   2.11148   2.12180   2.12506   2.12842
  Beta virt. eigenvalues --    2.13047   2.13754   2.14524   2.15112   2.15772
  Beta virt. eigenvalues --    2.15909   2.17032   2.17384   2.17883   2.18061
  Beta virt. eigenvalues --    2.18436   2.19640   2.20439   2.20539   2.21321
  Beta virt. eigenvalues --    2.21823   2.22183   2.23117   2.23906   2.24212
  Beta virt. eigenvalues --    2.24847   2.24929   2.25659   2.26177   2.26388
  Beta virt. eigenvalues --    2.26917   2.27548   2.28068   2.28380   2.28759
  Beta virt. eigenvalues --    2.28959   2.29807   2.30240   2.30631   2.31254
  Beta virt. eigenvalues --    2.31551   2.32135   2.32373   2.32809   2.33706
  Beta virt. eigenvalues --    2.33734   2.34334   2.34650   2.35445   2.35648
  Beta virt. eigenvalues --    2.35921   2.36459   2.36641   2.37125   2.37337
  Beta virt. eigenvalues --    2.38159   2.38428   2.38743   2.38784   2.39426
  Beta virt. eigenvalues --    2.39875   2.40741   2.41036   2.41340   2.41964
  Beta virt. eigenvalues --    2.42351   2.43095   2.43517   2.43917   2.44846
  Beta virt. eigenvalues --    2.45425   2.45987   2.46407   2.46558   2.46734
  Beta virt. eigenvalues --    2.47345   2.47961   2.48760   2.49183   2.49559
  Beta virt. eigenvalues --    2.50657   2.50898   2.51665   2.51984   2.52605
  Beta virt. eigenvalues --    2.52739   2.52913   2.54274   2.54350   2.54982
  Beta virt. eigenvalues --    2.55225   2.55458   2.55918   2.56172   2.56391
  Beta virt. eigenvalues --    2.56914   2.57396   2.57770   2.58044   2.58410
  Beta virt. eigenvalues --    2.59165   2.59512   2.59578   2.60049   2.60335
  Beta virt. eigenvalues --    2.60804   2.60940   2.61572   2.61800   2.62210
  Beta virt. eigenvalues --    2.62815   2.63047   2.63812   2.64412   2.65092
  Beta virt. eigenvalues --    2.65370   2.65579   2.66307   2.67238   2.67904
  Beta virt. eigenvalues --    2.68150   2.68276   2.68764   2.69228   2.69665
  Beta virt. eigenvalues --    2.70349   2.70763   2.71265   2.71669   2.71747
  Beta virt. eigenvalues --    2.72638   2.73278   2.74020   2.74390   2.74597
  Beta virt. eigenvalues --    2.74814   2.75456   2.75785   2.76579   2.77043
  Beta virt. eigenvalues --    2.78083   2.78289   2.78942   2.79195   2.79863
  Beta virt. eigenvalues --    2.80226   2.81073   2.81526   2.81913   2.82243
  Beta virt. eigenvalues --    2.82407   2.83092   2.83279   2.83945   2.84540
  Beta virt. eigenvalues --    2.84862   2.85225   2.85910   2.86134   2.86355
  Beta virt. eigenvalues --    2.86503   2.87165   2.87255   2.87687   2.88115
  Beta virt. eigenvalues --    2.88648   2.89720   2.89735   2.90394   2.90810
  Beta virt. eigenvalues --    2.90958   2.91615   2.91678   2.92676   2.92854
  Beta virt. eigenvalues --    2.93275   2.93429   2.94253   2.94545   2.95494
  Beta virt. eigenvalues --    2.95841   2.96006   2.96796   2.97147   2.97859
  Beta virt. eigenvalues --    2.98107   2.98430   2.98908   2.99722   3.00156
  Beta virt. eigenvalues --    3.01025   3.01246   3.01877   3.02138   3.02453
  Beta virt. eigenvalues --    3.03155   3.03710   3.04358   3.04634   3.04854
  Beta virt. eigenvalues --    3.05375   3.05477   3.06015   3.06409   3.06644
  Beta virt. eigenvalues --    3.06892   3.07277   3.07849   3.08050   3.08527
  Beta virt. eigenvalues --    3.08877   3.09289   3.09369   3.09529   3.10560
  Beta virt. eigenvalues --    3.10990   3.11370   3.11424   3.12015   3.12197
  Beta virt. eigenvalues --    3.12652   3.13198   3.13894   3.14296   3.14659
  Beta virt. eigenvalues --    3.14703   3.14921   3.15324   3.15903   3.16540
  Beta virt. eigenvalues --    3.16868   3.17055   3.17556   3.17694   3.18250
  Beta virt. eigenvalues --    3.18547   3.18854   3.19176   3.19610   3.19752
  Beta virt. eigenvalues --    3.20029   3.20433   3.20762   3.21028   3.21520
  Beta virt. eigenvalues --    3.21764   3.22267   3.22518   3.22690   3.23388
  Beta virt. eigenvalues --    3.23672   3.24292   3.24460   3.24682   3.24835
  Beta virt. eigenvalues --    3.24895   3.25193   3.25784   3.26261   3.26485
  Beta virt. eigenvalues --    3.26637   3.27532   3.27660   3.27981   3.28508
  Beta virt. eigenvalues --    3.28684   3.29331   3.29641   3.29835   3.30070
  Beta virt. eigenvalues --    3.30569   3.30801   3.30917   3.31142   3.31657
  Beta virt. eigenvalues --    3.31962   3.32254   3.32400   3.32898   3.33282
  Beta virt. eigenvalues --    3.33676   3.33836   3.34044   3.34252   3.34638
  Beta virt. eigenvalues --    3.34846   3.35093   3.35443   3.35810   3.36150
  Beta virt. eigenvalues --    3.36239   3.36685   3.36849   3.37131   3.37250
  Beta virt. eigenvalues --    3.37433   3.37648   3.38003   3.38516   3.38750
  Beta virt. eigenvalues --    3.38976   3.39585   3.40168   3.40337   3.40760
  Beta virt. eigenvalues --    3.41249   3.41689   3.41759   3.42452   3.42579
  Beta virt. eigenvalues --    3.42841   3.43044   3.44277   3.44801   3.45062
  Beta virt. eigenvalues --    3.45329   3.45810   3.46038   3.46627   3.47253
  Beta virt. eigenvalues --    3.47709   3.48093   3.48584   3.49026   3.49619
  Beta virt. eigenvalues --    3.49784   3.50380   3.50823   3.51616   3.52760
  Beta virt. eigenvalues --    3.53024   3.53638   3.54662   3.54911   3.55290
  Beta virt. eigenvalues --    3.55654   3.56943   3.57289   3.57757   3.58357
  Beta virt. eigenvalues --    3.58686   3.59139   3.59487   3.59836   3.60532
  Beta virt. eigenvalues --    3.60928   3.61094   3.61681   3.62381   3.63095
  Beta virt. eigenvalues --    3.63399   3.64199   3.64802   3.65481   3.66353
  Beta virt. eigenvalues --    3.66675   3.66963   3.67659   3.68380   3.68549
  Beta virt. eigenvalues --    3.69296   3.69535   3.70664   3.70873   3.71292
  Beta virt. eigenvalues --    3.71652   3.71950   3.72121   3.72919   3.73211
  Beta virt. eigenvalues --    3.73359   3.73725   3.74082   3.74292   3.75049
  Beta virt. eigenvalues --    3.75350   3.76303   3.76510   3.77198   3.77944
  Beta virt. eigenvalues --    3.78505   3.79349   3.79604   3.80852   3.81444
  Beta virt. eigenvalues --    3.82093   3.83047   3.83213   3.83867   3.84624
  Beta virt. eigenvalues --    3.84767   3.85125   3.85708   3.86798   3.86992
  Beta virt. eigenvalues --    3.87927   3.88610   3.89544   3.89959   3.90711
  Beta virt. eigenvalues --    3.90934   3.92030   3.92291   3.92910   3.94357
  Beta virt. eigenvalues --    3.95174   3.95858   3.96802   3.97028   3.97890
  Beta virt. eigenvalues --    3.98200   3.98876   3.99658   4.00117   4.01177
  Beta virt. eigenvalues --    4.01789   4.02179   4.02636   4.03300   4.04062
  Beta virt. eigenvalues --    4.04229   4.04709   4.05556   4.06655   4.07119
  Beta virt. eigenvalues --    4.07729   4.08885   4.09179   4.10299   4.11123
  Beta virt. eigenvalues --    4.11336   4.12133   4.13412   4.13703   4.14002
  Beta virt. eigenvalues --    4.15355   4.16013   4.16291   4.16829   4.16998
  Beta virt. eigenvalues --    4.17561   4.18834   4.19270   4.20015   4.20307
  Beta virt. eigenvalues --    4.20648   4.21525   4.21948   4.22566   4.23485
  Beta virt. eigenvalues --    4.23769   4.24114   4.24901   4.25427   4.26145
  Beta virt. eigenvalues --    4.26833   4.27342   4.28459   4.28912   4.29453
  Beta virt. eigenvalues --    4.30206   4.30660   4.31330   4.31942   4.32435
  Beta virt. eigenvalues --    4.33021   4.33155   4.34349   4.35394   4.36004
  Beta virt. eigenvalues --    4.36439   4.37791   4.38765   4.39005   4.39832
  Beta virt. eigenvalues --    4.40023   4.40207   4.40698   4.40917   4.41466
  Beta virt. eigenvalues --    4.42531   4.43304   4.43849   4.44100   4.44647
  Beta virt. eigenvalues --    4.44933   4.45741   4.46439   4.46781   4.47058
  Beta virt. eigenvalues --    4.47785   4.49801   4.50652   4.51829   4.51971
  Beta virt. eigenvalues --    4.53018   4.53693   4.54835   4.56194   4.56372
  Beta virt. eigenvalues --    4.56599   4.58554   4.60689   4.61934   4.62261
  Beta virt. eigenvalues --    4.63088   4.64447   4.65701   4.66749   4.67612
  Beta virt. eigenvalues --    4.67749   4.68279   4.69057   4.70516   4.72319
  Beta virt. eigenvalues --    4.72633   4.73566   4.74361   4.75473   4.77111
  Beta virt. eigenvalues --    4.78032   4.78767   4.80560   4.81717   4.81871
  Beta virt. eigenvalues --    4.82704   4.82921   4.83780   4.84193   4.84876
  Beta virt. eigenvalues --    4.86065   4.86386   4.87410   4.89054   4.90411
  Beta virt. eigenvalues --    4.92008   4.92805   4.93098   4.94195   4.95150
  Beta virt. eigenvalues --    4.97067   4.98466   4.99263   5.00383   5.00663
  Beta virt. eigenvalues --    5.01477   5.02307   5.02576   5.03746   5.04723
  Beta virt. eigenvalues --    5.05601   5.07086   5.08102   5.09598   5.10379
  Beta virt. eigenvalues --    5.12520   5.13951   5.15934   5.17267   5.18433
  Beta virt. eigenvalues --    5.18655   5.19673   5.20908   5.21832   5.22198
  Beta virt. eigenvalues --    5.23742   5.25609   5.27500   5.34034   5.34715
  Beta virt. eigenvalues --    5.35362   5.36348   5.37022   5.37686   5.38469
  Beta virt. eigenvalues --    5.38724   5.41621   5.46036   5.47223   5.47976
  Beta virt. eigenvalues --    5.48406   5.49790   5.50282   5.51513   5.57192
  Beta virt. eigenvalues --    5.59033   5.60320   5.60901   5.61647   5.64976
  Beta virt. eigenvalues --    5.66368   5.67317   5.71192   5.73376   5.74096
  Beta virt. eigenvalues --    5.75188   5.75489   5.76666   5.82244   5.86027
  Beta virt. eigenvalues --    5.89618   5.98619   5.99495   6.00288   6.04450
  Beta virt. eigenvalues --    6.08426   6.10011   6.10422   6.16891   6.24306
  Beta virt. eigenvalues --    6.31232   6.32242   6.39011   9.02991   9.16962
  Beta virt. eigenvalues --    9.36775  19.48957  22.29537  22.34342  22.35088
  Beta virt. eigenvalues --   22.45410  22.46144  22.52954  22.55298  22.61025
  Beta virt. eigenvalues --   22.62205  22.80407  22.87208  22.87283  22.91297
  Beta virt. eigenvalues --   22.93016  22.94760  22.96433  23.03177  23.05214
  Beta virt. eigenvalues --   23.15433  23.25472  23.29540  23.29964  23.35772
  Beta virt. eigenvalues --   23.42276  23.50139  23.51944  23.56445  23.74371
  Beta virt. eigenvalues --   23.78877  23.79127  23.88381  32.84522  32.87075
  Beta virt. eigenvalues --   32.87585  32.99772
          Condensed to atoms (all electrons):
          Atomic-Atomic Spin Densities.
 Mulliken charges and spin densities:
               1          2
     1  Fe  -0.166077   2.908375
     2  N   -0.119678   0.021412
     3  N   -0.089656  -0.085406
     4  N   -0.066939   0.022831
     5  N   -0.015143  -0.081645
     6  C    0.319183  -0.014691
     7  C   -0.057124   0.035790
     8  C   -0.011764  -0.012475
     9  C    0.235568   0.053722
    10  C    0.231313   0.097355
    11  C   -0.082326   0.058460
    12  C    0.078884   0.091063
    13  C    0.258908   0.030488
    14  C    0.315120  -0.019285
    15  C   -0.065750   0.038816
    16  C    0.071831  -0.013105
    17  C    0.228666   0.063321
    18  C    0.214162   0.108355
    19  C   -0.033182   0.047262
    20  C   -0.034703   0.091679
    21  C    0.192796   0.040036
    22  C   -0.518931   0.157620
    23  H    0.138309  -0.009300
    24  C   -0.435736   0.032376
    25  H    0.140123  -0.002865
    26  C   -0.505013   0.150704
    27  H    0.174945  -0.007691
    28  C   -0.458325   0.024459
    29  H    0.121072  -0.003006
    30  C   -0.418983   0.000043
    31  H    0.122124  -0.000242
    32  H    0.137551   0.000604
    33  H    0.146907   0.000633
    34  C   -0.413955  -0.004567
    35  H    0.143906   0.003643
    36  H    0.133790   0.003077
    37  H    0.121582  -0.000108
    38  C   -0.406682  -0.006351
    39  H    0.136383   0.003997
    40  H    0.135327   0.003676
    41  H    0.128416  -0.000477
    42  C   -0.250293  -0.034090
    43  H    0.116741   0.003975
    44  C   -0.310709   0.054774
    45  H    0.145069  -0.002344
    46  H    0.121564  -0.002598
    47  C   -0.441702  -0.004606
    48  H    0.138256   0.003904
    49  H    0.143247   0.002224
    50  H    0.157686   0.000143
    51  C   -0.209639   0.003391
    52  H    0.116893   0.000850
    53  C   -0.282963  -0.003328
    54  H    0.142726   0.000160
    55  H    0.126458   0.000289
    56  C   -0.421642  -0.005518
    57  H    0.140273   0.004173
    58  H    0.134499   0.002633
    59  H    0.120902  -0.000501
    60  C   -0.413230  -0.010292
    61  H    0.136401   0.006147
    62  H    0.120263  -0.000372
    63  H    0.131543   0.005873
    64  C   -0.343626  -0.002216
    65  H    0.174835   0.001958
    66  H    0.161775   0.003968
    67  H    0.154928  -0.000031
    68  S   -0.027505   0.144138
    69  H    0.190352  -0.001289
 Sum of Mulliken charges =  -0.00000   4.00000
 Mulliken charges and spin densities with hydrogens summed into heavy atoms:
               1          2
     1  Fe  -0.166077   2.908375
     2  N   -0.119678   0.021412
     3  N   -0.089656  -0.085406
[...]
  1136. RY*(  20) C  56                  0.00000     3.21446   
  1137. RY*(  21) C  56                  0.00000     3.78977   
  1138. RY*(  22) C  56                  0.00000     3.55368   
  1139. RY*(  23) C  56                  0.00000     3.35871   
  1140. RY*(  24) C  56                  0.00000     3.38531   
  1141. RY*(  25) C  56                  0.00000     3.60057   
  1142. RY*(  26) C  56                  0.00000     3.66971   
  1143. RY*(   1) H  57                  0.00045     0.94792   
  1144. RY*(   2) H  57                  0.00009     1.79173   
  1145. RY*(   3) H  57                  0.00003     2.10820   
  1146. RY*(   4) H  57                  0.00003     2.03565   
  1147. RY*(   5) H  57                  0.00000     2.97892   
  1148. RY*(   1) H  58                  0.00040     0.92830   
  1149. RY*(   2) H  58                  0.00009     1.83623   
  1150. RY*(   3) H  58                  0.00003     2.10863   
  1151. RY*(   4) H  58                  0.00003     2.02826   
  1152. RY*(   5) H  58                  0.00000     2.96583   
  1153. RY*(   1) H  59                  0.00035     0.85600   
  1154. RY*(   2) H  59                  0.00007     1.70473   
  1155. RY*(   3) H  59                  0.00006     2.16509   
  1156. RY*(   4) H  59                  0.00004     2.08706   
  1157. RY*(   5) H  59                  0.00000     2.99343   
  1158. RY*(   1) C  60                  0.00069     1.19028   
  1159. RY*(   2) C  60                  0.00067     1.33538   
  1160. RY*(   3) C  60                  0.00035     1.37395   
  1161. RY*(   4) C  60                  0.00007     1.10734   
  1162. RY*(   5) C  60                  0.00002     1.90280   
  1163. RY*(   6) C  60                  0.00002     1.51194   
  1164. RY*(   7) C  60                  0.00000     1.77079   
  1165. RY*(   8) C  60                  0.00001     1.58271   
  1166. RY*(   9) C  60                  0.00000    21.57058   
  1167. RY*(  10) C  60                  0.00001     2.71201   
  1168. RY*(  11) C  60                  0.00000     2.72249   
  1169. RY*(  12) C  60                  0.00000     2.46734   
  1170. RY*(  13) C  60                  0.00000     2.34395   
  1171. RY*(  14) C  60                  0.00000     2.51831   
  1172. RY*(  15) C  60                  0.00000     2.48049   
  1173. RY*(  16) C  60                  0.00001     3.21635   
  1174. RY*(  17) C  60                  0.00001     2.54613   
  1175. RY*(  18) C  60                  0.00000     3.12102   
  1176. RY*(  19) C  60                  0.00000     2.59668   
  1177. RY*(  20) C  60                  0.00000     3.24708   
  1178. RY*(  21) C  60                  0.00000     3.79698   
  1179. RY*(  22) C  60                  0.00000     3.53716   
  1180. RY*(  23) C  60                  0.00000     3.38013   
  1181. RY*(  24) C  60                  0.00000     3.37118   
  1182. RY*(  25) C  60                  0.00000     3.53914   
  1183. RY*(  26) C  60                  0.00000     3.71219   
  1184. RY*(   1) H  61                  0.00042     0.92245   
  1185. RY*(   2) H  61                  0.00009     1.80669   
  1186. RY*(   3) H  61                  0.00003     2.14632   
  1187. RY*(   4) H  61                  0.00003     2.01375   
  1188. RY*(   5) H  61                  0.00000     2.97357   
  1189. RY*(   1) H  62                  0.00035     0.84261   
  1190. RY*(   2) H  62                  0.00006     1.72613   
  1191. RY*(   3) H  62                  0.00006     2.16655   
  1192. RY*(   4) H  62                  0.00004     2.08135   
  1193. RY*(   5) H  62                  0.00000     2.99376   
  1194. RY*(   1) H  63                  0.00040     0.91252   
  1195. RY*(   2) H  63                  0.00009     1.84515   
  1196. RY*(   3) H  63                  0.00003     2.15352   
  1197. RY*(   4) H  63                  0.00003     1.99821   
  1198. RY*(   5) H  63                  0.00000     2.97132   
  1199. RY*(   1) C  64                  0.00063     1.41384   
  1200. RY*(   2) C  64                  0.00037     1.08375   
  1201. RY*(   3) C  64                  0.00024     0.82632   
  1202. RY*(   4) C  64                  0.00017     1.21664   
  1203. RY*(   5) C  64                  0.00013     1.53576   
  1204. RY*(   6) C  64                  0.00007     0.88096   
  1205. RY*(   7) C  64                  0.00004     1.41759   
  1206. RY*(   8) C  64                  0.00004     1.00743   
  1207. RY*(   9) C  64                  0.00001     2.19198   
  1208. RY*(  10) C  64                  0.00001     1.67462   
  1209. RY*(  11) C  64                  0.00001     1.67672   
  1210. RY*(  12) C  64                  0.00001     1.08602   
  1211. RY*(  13) C  64                  0.00000     2.98155   
  1212. RY*(  14) C  64                  0.00000     1.57438   
  1213. RY*(  15) C  64                  0.00000     3.11520   
  1214. RY*(  16) C  64                  0.00000    20.81604   
  1215. RY*(  17) C  64                  0.00000     3.08897   
  1216. RY*(  18) C  64                  0.00000     2.95705   
  1217. RY*(  19) C  64                  0.00000     2.77800   
  1218. RY*(  20) C  64                  0.00000     3.44439   
  1219. RY*(  21) C  64                  0.00000     3.21459   
  1220. RY*(  22) C  64                  0.00000     3.45591   
  1221. RY*(  23) C  64                  0.00000     3.20362   
  1222. RY*(  24) C  64                  0.00000     3.36143   
  1223. RY*(  25) C  64                  0.00000     3.48142   
  1224. RY*(  26) C  64                  0.00000     3.11962   
  1225. RY*(   1) H  65                  0.00044     1.49397   
  1226. RY*(   2) H  65                  0.00010     2.05488   
  1227. RY*(   3) H  65                  0.00005     2.29175   
  1228. RY*(   4) H  65                  0.00002     2.81198   
  1229. RY*(   5) H  65                  0.00001     1.92654   
  1230. RY*(   1) H  66                  0.00026     1.27582   
  1231. RY*(   2) H  66                  0.00006     1.23874   
  1232. RY*(   3) H  66                  0.00003     2.15485   
  1233. RY*(   4) H  66                  0.00004     2.13611   
  1234. RY*(   5) H  66                  0.00000     2.91827   
  1235. RY*(   1) H  67                  0.00025     1.48570   
  1236. RY*(   2) H  67                  0.00009     1.90736   
  1237. RY*(   3) H  67                  0.00002     2.30682   
  1238. RY*(   4) H  67                  0.00002     2.79752   
  1239. RY*(   5) H  67                  0.00002     1.53105   
  1240. RY*(   1) S  68                  0.00186     0.64337   
  1241. RY*(   2) S  68                  0.00148     0.71631   
  1242. RY*(   3) S  68                  0.00109     0.77747   
  1243. RY*(   4) S  68                  0.00060     1.06887   
  1244. RY*(   5) S  68                  0.00034     1.39972   
  1245. RY*(   6) S  68                  0.00018     1.30064   
  1246. RY*(   7) S  68                  0.00013     1.04757   
  1247. RY*(   8) S  68                  0.00011     1.30484   
  1248. RY*(   9) S  68                  0.00005     2.30677   
  1249. RY*(  10) S  68                  0.00004     1.31212   
  1250. RY*(  11) S  68                  0.00001     2.72526   
  1251. RY*(  12) S  68                  0.00000    17.66818   
  1252. RY*(  13) S  68                  0.00001     1.60318   
  1253. RY*(  14) S  68                  0.00000     2.16940   
  1254. RY*(  15) S  68                  0.00000     8.57631   
  1255. RY*(  16) S  68                  0.00000     8.56214   
  1256. RY*(  17) S  68                  0.00001     1.74503   
  1257. RY*(  18) S  68                  0.00001     2.09028   
  1258. RY*(  19) S  68                  0.00001     1.79514   
  1259. RY*(  20) S  68                  0.00000     8.51114   
  1260. RY*(  21) S  68                  0.00001     1.71857   
  1261. RY*(  22) S  68                  0.00001     2.05629   
  1262. RY*(  23) S  68                  0.00000     2.03699   
  1263. RY*(  24) S  68                  0.00000     2.03744   
  1264. RY*(  25) S  68                  0.00000     1.97467   
  1265. RY*(  26) S  68                  0.00001     1.94024   
  1266. RY*(  27) S  68                  0.00000     2.04812   
  1267. RY*(  28) S  68                  0.00000     2.08438   
  1268. RY*(   1) H  69                  0.00075     0.88977   
  1269. RY*(   2) H  69                  0.00014     2.05472   
  1270. RY*(   3) H  69                  0.00011     1.87252   
  1271. RY*(   4) H  69                  0.00005     2.01602   
  1272. RY*(   5) H  69                  0.00001     2.60406   
  1273. BD*(   1)Fe   1 - N   4          0.06052     0.23439   
  1274. BD*(   1)Fe   1 - N   5          0.06073     0.22909   
  1275. BD*(   2)Fe   1 - N   5          0.05148    -0.03273   
  1276. BD*(   1)Fe   1 - S  68          0.02206     0.18763   
  1277. BD*(   1) N   2 - C   6          0.01363     0.49092   
  1278. BD*(   2) N   2 - C   6          0.33075    -0.00021  1322(v),1291(v),140(r)
                                                    1296(v),141(r),281(g)
                                                    1284(r),177(g),695(v)
                                                    1275(r)
  1279. BD*(   1) N   2 - C   9          0.01345     0.49712   
  1280. BD*(   1) N   3 - C  10          0.01319     0.49795   
  1281. BD*(   2) N   3 - C  10          0.32102     0.00885  1296(v),1300(v),144(v)
                                                    141(r),385(g),203(g),1275(r)
  1282. BD*(   1) N   3 - C  13          0.01284     0.49880   
  1283. BD*(   1) N   4 - C  14          0.01409     0.49402   
  1284. BD*(   2) N   4 - C  14          0.34226    -0.00070  146(v),140(v),1308(v),145(v)
                                                    489(g),1278(r),141(v),229(g)
                                                    1275(v),758(v),139(v)
  1285. BD*(   1) N   4 - C  17          0.01383     0.49038   
  1286. BD*(   1) N   5 - C  18          0.01422     0.49274   
  1287. BD*(   1) N   5 - C  21          0.01425     0.49283   
  1288. BD*(   1) C   6 - C   7          0.01723     0.48874   
  1289. BD*(   1) C   6 - C  22          0.01041     0.57417   
  1290. BD*(   1) C   7 - C   8          0.01143     0.60154   
  1291. BD*(   2) C   7 - C   8          0.13147     0.06351  1296(v),1278(v),1329(v)
                                                    1331(v),1330(v),1328(v)
  1292. BD*(   1) C   7 - C  34          0.00856     0.40954   
  1293. BD*(   1) C   8 - C   9          0.01737     0.48530   
  1294. BD*(   1) C   8 - C  30          0.00842     0.40922   
  1295. BD*(   1) C   9 - C  24          0.01048     0.58200   
  1296. BD*(   2) C   9 - C  24          0.19547     0.04866  1291(v),1281(v),1278(v)
                                                    726(g),361(g),1322(r)
  1297. BD*(   1) C  10 - C  11          0.01665     0.50283   
  1298. BD*(   1) C  10 - C  24          0.01041     0.57978   
  1299. BD*(   1) C  11 - C  12          0.01105     0.60227   
  1300. BD*(   2) C  11 - C  12          0.12637     0.07924  1338(v),1281(v),144(v)
                                                    1333(v),1334(v),1336(v)
  1301. BD*(   1) C  11 - C  38          0.00818     0.42063   
  1302. BD*(   1) C  12 - C  13          0.01853     0.49285   
  1303. BD*(   1) C  12 - C  42          0.01328     0.49759   
  1304. BD*(   1) C  13 - C  26          0.01003     0.58608   
  1305. BD*(   1) C  14 - C  15          0.01659     0.49346   
  1306. BD*(   1) C  14 - C  26          0.01068     0.58270   
  1307. BD*(   1) C  15 - C  16          0.01241     0.58637   
  1308. BD*(   2) C  15 - C  16          0.15011     0.05900  1346(v),1284(v),145(v)
                                                    1342(v),1341(v),1344(v)
  1309. BD*(   1) C  15 - C  47          0.00796     0.41431   
  1310. BD*(   1) C  16 - C  17          0.01695     0.48122   
  1311. BD*(   1) C  16 - C  51          0.01327     0.48921   
  1312. BD*(   1) C  17 - C  28          0.01030     0.57192   
  1313. BD*(   1) C  18 - C  19          0.01686     0.49440   
  1314. BD*(   1) C  18 - C  28          0.01037     0.57502   
  1315. BD*(   2) C  18 - C  28          0.18239     0.05418  1317(v),145(v),1346(r)
                                                    1322(r),1275(v),789(g)
  1316. BD*(   1) C  19 - C  20          0.01124     0.60798   
  1317. BD*(   2) C  19 - C  20          0.11496     0.07779  1322(v),1315(v),1349(v)
                                                    1352(v),1354(v),1350(v)
  1318. BD*(   1) C  19 - C  56          0.00838     0.41669   
  1319. BD*(   1) C  20 - C  21          0.01672     0.49580   
  1320. BD*(   1) C  20 - C  60          0.00848     0.41687   
  1321. BD*(   1) C  21 - C  22          0.01029     0.57839   
  1322. BD*(   2) C  21 - C  22          0.17939     0.05587  1317(v),1278(v),1315(r)
                                                    1275(v),695(g)
  1323. BD*(   1) C  22 - H  23          0.00646     0.43644   
  1324. BD*(   1) C  24 - H  25          0.00631     0.43417   
  1325. BD*(   1) C  26 - H  27          0.00724     0.44467   
  1326. BD*(   1) C  28 - H  29          0.00644     0.43474   
  1327. BD*(   1) C  30 - H  31          0.00330     0.38579   
  1328. BD*(   1) C  30 - H  32          0.00489     0.37485   
  1329. BD*(   1) C  30 - H  33          0.00521     0.37619   
  1330. BD*(   1) C  34 - H  35          0.00489     0.37767   
  1331. BD*(   1) C  34 - H  36          0.00491     0.37492   
  1332. BD*(   1) C  34 - H  37          0.00322     0.38639   
  1333. BD*(   1) C  38 - H  39          0.00512     0.38242   
  1334. BD*(   1) C  38 - H  40          0.00477     0.38448   
  1335. BD*(   1) C  38 - H  41          0.00295     0.39536   
  1336. BD*(   1) C  42 - H  43          0.01064     0.42662   
  1337. BD*(   1) C  42 - C  44          0.00359     0.62716   
  1338. BD*(   2) C  42 - C  44          0.02811     0.07421   
  1339. BD*(   1) C  44 - H  45          0.00572     0.44024   
  1340. BD*(   1) C  44 - H  46          0.00451     0.44054   
  1341. BD*(   1) C  47 - H  48          0.00448     0.38811   
  1342. BD*(   1) C  47 - H  49          0.00556     0.37742   
  1343. BD*(   1) C  47 - H  50          0.00384     0.39167   
  1344. BD*(   1) C  51 - H  52          0.01054     0.41963   
  1345. BD*(   1) C  51 - C  53          0.00379     0.62649   
  1346. BD*(   2) C  51 - C  53          0.03499     0.05462   
  1347. BD*(   1) C  53 - H  54          0.00547     0.43078   
  1348. BD*(   1) C  53 - H  55          0.00421     0.43138   
  1349. BD*(   1) C  56 - H  57          0.00531     0.37986   
  1350. BD*(   1) C  56 - H  58          0.00474     0.38022   
  1351. BD*(   1) C  56 - H  59          0.00330     0.39027   
  1352. BD*(   1) C  60 - H  61          0.00499     0.38107   
  1353. BD*(   1) C  60 - H  62          0.00323     0.39068   
  1354. BD*(   1) C  60 - H  63          0.00475     0.37994   
  1355. BD*(   1) C  64 - H  65          0.00600     0.36756   
  1356. BD*(   1) C  64 - H  66          0.00443     0.35126   
  1357. BD*(   1) C  64 - H  67          0.00353     0.35265   
  1358. BD*(   1) C  64 - S  68          0.00619     0.11877   
  1359. BD*(   1) S  68 - H  69          0.00722     0.16622   
       -------------------------------
              Total Lewis  137.83513  ( 97.0670%)
        Valence non-Lewis    3.91235  (  2.7552%)
        Rydberg non-Lewis    0.25252  (  0.1778%)
       -------------------------------
            Total unit  1  142.00000  (100.0000%)
           Charge unit  1    2.00000
 Unable to Open any file for archive entry.
 1\1\GINC-BGN1027\SP\UAPFD\def2TZVP\C31H32Fe1N4S1(5)\BECSLEIP\29-Sep-20
 24\0\\# apfd/def2TZVP guess=read scf=maxcycle=999 geom=check pop=nbo\\
 5g6p_II_Q\\0,5\Fe,0,-0.1230793782,17.2918900569,21.9514522329\N,0,0.25
 78227275,15.4562334623,22.6998542304\N,0,-0.9919660773,17.7773507458,2
 3.741524767\N,0,-0.3763538358,19.1810952763,21.4112919395\N,0,0.954428
 2957,16.8600694787,20.3746894654\C,0,1.1265729851,14.5421067706,22.175
 4357993\C,0,1.4009717095,13.4786748953,23.1106358868\C,0,0.6759212581,
 13.7615559223,24.2250790892\C,0,-0.012126219,15.0035003076,23.95643913
 73\C,0,-1.243971536,16.9382300491,24.7843839044\C,0,-1.9200448944,17.6
 247550848,25.8543543815\C,0,-2.0916693183,18.9133285797,25.435928572\C
 ,0,-1.496724156,18.9851071805,24.1166176201\C,0,-0.837269959,20.241160
 5913,22.1309115961\C,0,-0.6842291383,21.4700370889,21.3987260152\C,0,-
 0.1082339646,21.1358357703,20.2023244698\C,0,0.1042649626,19.703331366
 ,20.2474883383\C,0,1.1262416076,17.6787714183,19.2984599481\C,0,1.9184
 767879,17.0231224537,18.2833529368\C,0,2.2193232873,15.7877641163,18.7
 692274579\C,0,1.605160517,15.7018700454,20.07354614\C,0,1.6934194322,1
 4.6099555916,20.9145335448\H,0,2.2972532876,13.7765401334,20.590904852
 6\C,0,-0.8185454957,15.6289891211,24.8830937139\H,0,-1.0270542759,15.1
 047770658,25.8023391026\C,0,-1.4068599882,20.1505818364,23.3858133606\
 H,0,-1.7678272062,21.0565086056,23.845380985\C,0,0.6979360057,18.99037
 86866,19.220825619\H,0,0.940243163,19.5319209649,18.3196557812\C,0,0.5
 862726072,13.0124760124,25.5093735206\H,0,1.1683616481,12.0955689694,2
 5.4616818079\H,0,-0.4487909745,12.7507009379,25.7294420374\H,0,0.96553
 68752,13.6173033424,26.3332827246\C,0,2.3168684648,12.3354094237,22.84
 1181125\H,0,3.3224315133,12.6943978732,22.6219676234\H,0,1.9686846371,
 11.7577026411,21.9843599812\H,0,2.3698245909,11.6734492832,23.70186814
 38\C,0,-2.3562495879,16.9987317226,27.1328843802\H,0,-1.4962993343,16.
 6348826346,27.6961847932\H,0,-3.016008752,16.1531591981,26.939828901\H
 ,0,-2.8927955879,17.7191229338,27.7444767615\C,0,-2.7459734234,19.9870
 958428,26.1591032606\H,0,-2.5314105272,20.0269838379,27.2215177067\C,0
 ,-3.592453946,20.8642050034,25.6338060071\H,0,-3.87886883,20.830220948
 7,24.5962223804\H,0,-4.0516516081,21.6326923439,26.2332925071\C,0,-1.0
 326564306,22.8199842199,21.9177427685\H,0,-0.7873169054,22.9001342487,
 22.9754587361\H,0,-2.0998024406,23.01595637,21.8028581832\H,0,-0.48204
 91742,23.5829694889,21.3713526938\C,0,0.2848786468,21.9973036529,19.10
 78831716\H,0,1.1834628334,21.7044237752,18.5778000412\C,0,-0.368481050
 9,23.0871214119,18.7200219778\H,0,-1.2901754992,23.3960850408,19.18146
 69515\H,0,-0.0156458512,23.6944045,17.9032706764\C,0,2.3027927311,17.6
 472988059,16.9869524149\H,0,2.9519191721,18.5069980117,17.1554446089\H
 ,0,1.419313973,17.9910979071,16.4490969952\H,0,2.8339025719,16.9371400
 022,16.3582778779\C,0,3.0189386868,14.6955466806,18.1478488827\H,0,3.8
 975372365,14.4729678463,18.7535723376\H,0,3.352747773,14.979262685,17.
 153112303\H,0,2.4258650088,13.7843387189,18.0656426976\C,0,-1.91449363
 87,14.9669660115,20.3211388086\H,0,-0.9304017463,14.8507589468,19.8792
 758559\H,0,-2.6999021245,14.7489177013,19.6042629472\H,0,-2.0059609945
 ,14.3199914196,21.1873998512\S,0,-2.1161744033,16.6803528595,20.931243
 6191\H,0,-1.9358567235,17.2534340805,19.7321310505\\Version=ES64L-G16R
 evC.02\State=5-A\HF=-3080.7340664\S2=6.066513\S2-1=0.\S2A=6.001192\RMS
 D=1.483e-09\Dipole=-0.2205909,-1.0043764,-0.7024672\Quadrupole=-7.8147
 311,5.4210466,2.3936846,-1.8995758,0.0818987,-2.6264579\PG=C01 [X(C31H
 32Fe1N4S1)]\\@
 The archive entry for this job was punched.


 THE BEST WAY TO CONVINCE A FOOL THAT HE IS WRONG 
 IS TO LET HIM HAVE HIS OWN WAY.

                                         JOSH BILLINGS
 Job cpu time:       0 days 21 hours 24 minutes  2.8 seconds.
 Elapsed time:       0 days  0 hours 20 minutes 12.9 seconds.
 File lengths (MBytes):  RWF=   1706 Int=      0 D2E=      0 Chk=    156 Scr=      1
 Normal termination of Gaussian 16 at Sun Sep 29 11:36:38 2024.
