 Entering Gaussian System, Link 0=g16
 Input=5g6q01.com
 Output=5g6q01.log
 Initial command:
 /sw/chem/gaussian/g16_C02/a100/g16/l1.exe "/local/becsleip_8032219/Gau-3407378.inp" -scrdir="/local/becsleip_8032219/"
 Entering Link 1 = /sw/chem/gaussian/g16_C02/a100/g16/l1.exe PID=   3407379.
  
 Copyright (c) 1988-2021, Gaussian, Inc.  All Rights Reserved.
  
 This is part of the Gaussian(R) 16 program.  It is based on
 the Gaussian(R) 09 system (copyright 2009, Gaussian, Inc.),
 the Gaussian(R) 03 system (copyright 2003, Gaussian, Inc.),
 the Gaussian(R) 98 system (copyright 1998, Gaussian, Inc.),
 the Gaussian(R) 94 system (copyright 1995, Gaussian, Inc.),
 the Gaussian 92(TM) system (copyright 1992, Gaussian, Inc.),
 the Gaussian 90(TM) system (copyright 1990, Gaussian, Inc.),
 the Gaussian 88(TM) system (copyright 1988, Gaussian, Inc.),
 the Gaussian 86(TM) system (copyright 1986, Carnegie Mellon
 University), and the Gaussian 82(TM) system (copyright 1983,
 Carnegie Mellon University). Gaussian is a federally registered
 trademark of Gaussian, Inc.
  
 This software contains proprietary and confidential information,
 including trade secrets, belonging to Gaussian, Inc.
  
 This software is provided under written license and may be
 used, copied, transmitted, or stored only in accord with that
 written license.
  
 The following legend is applicable only to US Government
 contracts under FAR:
  
                    RESTRICTED RIGHTS LEGEND
  
 Use, reproduction and disclosure by the US Government is
 subject to restrictions as set forth in subparagraphs (a)
 and (c) of the Commercial Computer Software - Restricted
 Rights clause in FAR 52.227-19.
  
 Gaussian, Inc.
 340 Quinnipiac St., Bldg. 40, Wallingford CT 06492
  
  
 ---------------------------------------------------------------
 Warning -- This program may not be used in any manner that
 competes with the business of Gaussian, Inc. or will provide
 assistance to any competitor of Gaussian, Inc.  The licensee
 of this program is prohibited from giving any competitor of
 Gaussian, Inc. access to this program.  By using this program,
 the user acknowledges that Gaussian, Inc. is engaged in the
 business of creating and licensing software in the field of
 computational chemistry and represents and warrants to the
 licensee that it is not a competitor of Gaussian, Inc. and that
 it will not use this program in any manner prohibited above.
 ---------------------------------------------------------------
  

 Cite this work as:
 Gaussian 16, Revision C.02,
 M. J. Frisch, G. W. Trucks, H. B. Schlegel, G. E. Scuseria, 
 M. A. Robb, J. R. Cheeseman, G. Scalmani, V. Barone, 
 G. A. Petersson, H. Nakatsuji, X. Li, M. Caricato, A. V. Marenich, 
 J. Bloino, B. G. Janesko, R. Gomperts, B. Mennucci, H. P. Hratchian, 
 J. V. Ortiz, A. F. Izmaylov, J. L. Sonnenberg, D. Williams-Young, 
 F. Ding, F. Lipparini, F. Egidi, J. Goings, B. Peng, A. Petrone, 
 T. Henderson, D. Ranasinghe, V. G. Zakrzewski, J. Gao, N. Rega, 
 G. Zheng, W. Liang, M. Hada, M. Ehara, K. Toyota, R. Fukuda, 
 J. Hasegawa, M. Ishida, T. Nakajima, Y. Honda, O. Kitao, H. Nakai, 
 T. Vreven, K. Throssell, J. A. Montgomery, Jr., J. E. Peralta, 
 F. Ogliaro, M. J. Bearpark, J. J. Heyd, E. N. Brothers, K. N. Kudin, 
 V. N. Staroverov, T. A. Keith, R. Kobayashi, J. Normand, 
 K. Raghavachari, A. P. Rendell, J. C. Burant, S. S. Iyengar, 
 J. Tomasi, M. Cossi, J. M. Millam, M. Klene, C. Adamo, R. Cammi, 
 J. W. Ochterski, R. L. Martin, K. Morokuma, O. Farkas, 
 J. B. Foresman, and D. J. Fox, Gaussian, Inc., Wallingford CT, 2019.
 
 ******************************************
 Gaussian 16:  ES64L-G16RevC.02  7-Dec-2021
                29-Sep-2024 
 ******************************************
 %mem=16GB
 %CPU=0-71
 SetSPE:  set environment variable "OMP_PROC_BIND" = "true"
 SetSPE:  set environment variable "OMP_PLACES" = "{0},{1},{2},{3},{4},{5},{6},{7},{8},{9},{10},{11},{12},{13},{14},{15},{16},{17},{18},{19},{20},{21},{22},{23},{24},{25},{26},{27},{28},{29},{30},{31},{32},{33},{34},{35},{36},{37},{38},{39},{40},{41},{42},{43},{44},{45},{46},{47},{48},{49},{50},{51},{52},{53},{54},{55},{56},{57},{58},{59},{60},{61},{62},{63},{64},{65},{66},{67},{68},{69},{70},{71}"
 Will use up to   72 processors via shared memory.
 %gpucpu=0,1,2,3=0,1,2,3
 Will use    4 GPUs:
 Thread  CPU   GPU
      0    0     0
      1    1     1
      2    2     2
      3    3     3
      4    4    -1
      5    5    -1
      6    6    -1
      7    7    -1
      8    8    -1
      9    9    -1
     10   10    -1
     11   11    -1
     12   12    -1
     13   13    -1
     14   14    -1
     15   15    -1
     16   16    -1
     17   17    -1
     18   18    -1
     19   19    -1
     20   20    -1
     21   21    -1
     22   22    -1
     23   23    -1
     24   24    -1
     25   25    -1
     26   26    -1
     27   27    -1
     28   28    -1
     29   29    -1
     30   30    -1
     31   31    -1
     32   32    -1
     33   33    -1
     34   34    -1
     35   35    -1
     36   36    -1
     37   37    -1
     38   38    -1
     39   39    -1
     40   40    -1
     41   41    -1
     42   42    -1
     43   43    -1
     44   44    -1
     45   45    -1
     46   46    -1
     47   47    -1
     48   48    -1
     49   49    -1
     50   50    -1
     51   51    -1
     52   52    -1
     53   53    -1
     54   54    -1
     55   55    -1
     56   56    -1
     57   57    -1
     58   58    -1
     59   59    -1
     60   60    -1
     61   61    -1
     62   62    -1
     63   63    -1
     64   64    -1
     65   65    -1
     66   66    -1
     67   67    -1
     68   68    -1
     69   69    -1
     70   70    -1
     71   71    -1
 SetGPE:  set environment variable "OMP_PROC_BIND" = "true"
 SetGPE:  set environment variable "OMP_PLACES" = "{0},{1},{2},{3},{4},{5},{6},{7},{8},{9},{10},{11},{12},{13},{14},{15},{16},{17},{18},{19},{20},{21},{22},{23},{24},{25},{26},{27},{28},{29},{30},{31},{32},{33},{34},{35},{36},{37},{38},{39},{40},{41},{42},{43},{44},{45},{46},{47},{48},{49},{50},{51},{52},{53},{54},{55},{56},{57},{58},{59},{60},{61},{62},{63},{64},{65},{66},{67},{68},{69},{70},{71}"
 %chk=5g6q_II_O.chk
 Properties for Device   0
 Minimum vector length:                              32
 Maximum vector length:                            1024
 Number of SMPs:                                    108
 Maximum number of threads per SMP:                2048
 Number of ASync Engines:                             5
 Memory:                                           9207742464
 Properties for Device   1
 Minimum vector length:                              32
 Maximum vector length:                            1024
 Number of SMPs:                                    108
 Maximum number of threads per SMP:                2048
 Number of ASync Engines:                             5
 Memory:                                           9207742464
 Properties for Device   2
 Minimum vector length:                              32
 Maximum vector length:                            1024
 Number of SMPs:                                    108
 Maximum number of threads per SMP:                2048
 Number of ASync Engines:                             5
 Memory:                                           9207742464
 Properties for Device   3
 Minimum vector length:                              32
 Maximum vector length:                            1024
 Number of SMPs:                                    108
 Maximum number of threads per SMP:                2048
 Number of ASync Engines:                             5
 Memory:                                           9207742464
   8286968217 words of memory will be used on each GPU.
 ------------------------------------------
 # polar def2tzvp apfd int=(grid=ultrafine)
 ------------------------------------------
 1/38=1,172=1/1;
 2/12=2,17=6,18=5,40=1/2;
 3/5=44,7=101,11=2,25=1,30=1,74=-44,75=-5/1,2,3;
 4//1;
 5/5=2,38=5,98=1/2;
 8/6=4,10=90,11=11/1;
 10/6=1,13=10/2;
 6/7=2,8=2,9=2,10=2,28=1/1;
 99/5=1,9=1/99;
 ---------
 5g6q_II_S
 ---------
 Symbolic Z-matrix:
 Charge =  0 Multiplicity = 1
 Fe                   -0.13      17.31671   22.15854 
 N                     0.30541   15.50344   22.9346 
 N                    -0.99868   17.80889   23.95368 
 N                    -0.45429   19.19041   21.5937 
 N                     0.97077   16.89734   20.59865 
 C                     1.21875   14.61735   22.43775 
 C                     1.52246   13.57977   23.39217 
 C                     0.77151   13.85036   24.49234 
 C                     0.03757   15.05916   24.1947 
 C                    -1.24044   16.97221   25.00069 
 C                    -1.90725   17.66086   26.07549 
 C                    -2.08783   18.94699   25.65373 
 C                    -1.51108   19.01438   24.3262 
 C                    -0.90724   20.254    22.31317 
 C                    -0.72721   21.48437   21.59037 
 C                    -0.1574    21.14597   20.39194 
 C                     0.02738   19.70925   20.42887 
 C                     1.11174   17.70354   19.50812 
 C                     1.94722   17.06887   18.5142 
 C                     2.30252   15.85884   19.02651 
 C                     1.67435   15.76421   20.32365 
 C                     1.80455   14.69299   21.18582 
 H                     2.45005   13.88297   20.88417 
 C                    -0.79463   15.67049   25.10815 
 H                    -0.99821   15.14818   26.02956 
 C                    -1.45729   20.17036   23.57772 
 H                    -1.81817   21.07794   24.03418 
 C                     0.63282   18.99615   19.40791 
 H                     0.86275   19.53348   18.50089 
 C                     0.6943    13.11726   25.78661 
 H                     1.32013   12.22871   25.7633 
 H                    -0.33091   12.80958   25.9929 
 H                     1.02971   13.75143   26.6073 
 C                     2.48845   12.4717   23.15252 
 H                     3.48437   12.86834   22.95531 
 H                     2.18411   11.87626   22.29135 
 H                     2.54619   11.81693   24.01824 
 C                    -2.32528   17.04024   27.3626 
 H                    -1.46027   16.65385   27.90273 
 H                    -3.00985   16.21112   27.18357 
 H                    -2.82903   17.77088   27.9901 
 C                    -2.73582   20.02262   26.3804 
 H                    -2.49881   20.07505   27.43755 
 C                    -3.60012   20.88766   25.86447 
 H                    -3.90742   20.84097   24.83332 
 H                    -4.05217   21.65939   26.46528 
 C                    -1.05064   22.83706   22.11839 
 H                    -0.80244   22.90632   23.17628 
 H                    -2.11448   23.05212   22.00639 
 H                    -0.48755   23.59378   21.57622 
 C                     0.2536    22.00579   19.30256 
 H                     1.1452    21.69711   18.76981 
 C                    -0.37573   23.11219   18.92208 
 H                    -1.28877   23.44018   19.38737 
 H                    -0.00933   23.71705   18.1095 
 C                     2.31814   17.68721   17.21108 
 H                     2.92622   18.57803   17.3709 
 H                     1.42653   17.98137   16.65748 
 H                     2.88791   16.9907   16.60126 
 C                     3.1657    14.79777   18.437 
 H                     4.0472    14.63474   19.05738 
 H                     3.49656   15.07789   17.44025 
 H                     2.62248   13.85501   18.36786 
 C                    -1.83394   14.91619   20.53883 
 H                    -0.84123   14.83445   20.10793 
 H                    -2.6034    14.67089   19.81332 
 H                    -1.91218   14.26649   21.40443 
 S                    -2.10225   16.62175   21.14611 
 H                    -1.9413    17.20043   19.94753 
 
 Stoichiometry    C31H32FeN4S
 Framework group  C1[X(C31H32FeN4S)]
 Deg. of freedom   201
 Full point group                 C1      NOp   1
 Largest Abelian subgroup         C1      NOp   1
 Largest concise Abelian subgroup C1      NOp   1
                         Standard orientation:                         
 ---------------------------------------------------------------------
 Center     Atomic      Atomic             Coordinates (Angstroms)
 Number     Number       Type             X           Y           Z
 ---------------------------------------------------------------------
      1         26           0        0.178006   -0.029389    0.064993
      2          7           0        1.995378    0.845387   -0.043336
      3          7           0       -0.662594    1.839585   -0.075308
      4          7           0       -1.662883   -0.762634   -0.026746
      5          7           0        1.026752   -1.781271   -0.112084
      6          6           0        3.170977    0.216672   -0.341474
      7          6           0        4.211985    1.163519   -0.656961
      8          6           0        3.646067    2.394333   -0.545799
      9          6           0        2.264803    2.173922   -0.182513
     10          6           0       -0.010676    3.034241   -0.025186
     11          6           0       -0.934026    4.136240   -0.109337
     12          6           0       -2.181072    3.586497   -0.194513
     13          6           0       -1.984763    2.151059   -0.172270
     14          6           0       -2.844130   -0.130505   -0.269880
     15          6           0       -3.896825   -1.076982   -0.524206
     16          6           0       -3.330185   -2.319252   -0.418735
     17          6           0       -1.927298   -2.095600   -0.133158
     18          6           0        0.368085   -2.973414   -0.048503
     19          6           0        1.299666   -4.072811   -0.158856
     20          6           0        2.536222   -3.517788   -0.284345
     21          6           0        2.347638   -2.086455   -0.241525
     22          6           0        3.360128   -1.154484   -0.360252
     23          1           0        4.360177   -1.520684   -0.532326
     24          6           0        1.359087    3.202796   -0.034913
     25          1           0        1.737014    4.212449   -0.067011
     26          6           0       -3.013278    1.240556   -0.284283
     27          1           0       -4.006110    1.626743   -0.449911
     28          6           0       -1.005536   -3.121627   -0.010441
     29          1           0       -1.388362   -4.130448   -0.011542
     30          6           0        4.252445    3.736206   -0.769895
     31          1           0        5.308142    3.645529   -1.012800
     32          1           0        4.157638    4.354220    0.123054
     33          1           0        3.754285    4.249795   -1.592248
     34          6           0        5.603851    0.790298   -1.033523
     35          1           0        5.604866    0.175337   -1.933461
     36          1           0        6.078774    0.221452   -0.233748
     37          1           0        6.202289    1.677365   -1.224614
     38          6           0       -0.556220    5.575904   -0.074487
     39          1           0        0.098573    5.822614   -0.910943
     40          1           0       -0.027507    5.810938    0.849277
     41          1           0       -1.442756    6.202223   -0.130508
     42          6           0       -3.444842    4.294271   -0.277322
     43          1           0       -3.446230    5.164034   -0.925397
     44          6           0       -4.545682    3.983659    0.395861
     45          1           0       -4.576215    3.162298    1.091781
     46          1           0       -5.450636    4.559346    0.293240
     47          6           0       -5.292842   -0.718848   -0.893059
     48          1           0       -5.305836    0.144489   -1.556392
     49          1           0       -5.876425   -0.471134   -0.005013
     50          1           0       -5.771887   -1.555362   -1.397446
     51          6           0       -3.940417   -3.618565   -0.604064
     52          1           0       -3.308720   -4.375580   -1.053435
     53          6           0       -5.185235   -3.934504   -0.264130
     54          1           0       -5.840227   -3.234746    0.224780
     55          1           0       -5.584662   -4.919002   -0.441968
     56          6           0        0.907414   -5.509482   -0.146134
     57          1           0        0.294124   -5.745185   -1.016295
     58          1           0        0.329244   -5.742263    0.748016
     59          1           0        1.785598   -6.149873   -0.164726
     60          6           0        3.859793   -4.181478   -0.446094
     61          1           0        4.309803   -3.907498   -1.400525
     62          1           0        3.756385   -5.263048   -0.415163
     63          1           0        4.541708   -3.877329    0.348345
     64          6           0        1.850670   -0.456591    2.947536
     65          1           0        2.304275   -1.198155    2.297808
     66          1           0        1.825327   -0.794367    3.978980
     67          1           0        2.394851    0.479120    2.871361
     68         16           0        0.143449   -0.109411    2.386659
     69          1           0       -0.292240   -1.366786    2.549572
 ---------------------------------------------------------------------
 Rotational constants (GHZ):           0.1131363           0.1080327           0.0606865
 Standard basis: def2TZVP (5D, 7F)
 There are  1546 symmetry adapted cartesian basis functions of A   symmetry.
 There are  1359 symmetry adapted basis functions of A   symmetry.
  1359 basis functions,  2212 primitive gaussians,  1546 cartesian basis functions
   144 alpha electrons      144 beta electrons
       nuclear repulsion energy      5040.2958367007 Hartrees.
 NAtoms=   69 NActive=   69 NUniq=   69 SFac= 1.00D+00 NAtFMM=   60 NAOKFM=T Big=T
 Integral buffers will be    131072 words long.
 Raffenetti 2 integral format.
 Two-electron integral symmetry is turned on.
 R6APFD:  NTU= -4 IXU= 1 FactS= 1.050
 Nuclear repulsion after empirical dispersion term =     5040.1627220174 Hartrees.
 One-electron integrals computed using PRISM.
   1 Symmetry operations used in ECPInt.
 ECPInt:  NShTT=  146611 NPrTT=  457451 LenC2=  115927 LenP2D=  241488.
 LDataN:  DoStor=T MaxTD1= 6 Len=  172
 Number of processors reduced to  26 by ecpmxn.
 NBasis=  1359 RedAO= T EigKep=  3.58D-06  NBF=  1359
 NBsUse=  1359 1.00D-06 EigRej= -1.00D+00 NBFU=  1359
 ExpMin= 4.20D-02 ExpMax= 3.01D+05 ExpMxC= 2.91D+03 IAcc=3 IRadAn=         5 AccDes= 0.00D+00
 Harris functional with IExCor= 3731 and IRadAn=       5 diagonalized for initial guess.
 HarFok:  IExCor= 3731 AccDes= 0.00D+00 IRadAn=         5 IDoV= 1 UseB2=F ITyADJ=14
 ICtDFT=  3500011 ScaDFX=  1.000000  1.000000  1.000000  1.000000
 FoFCou: FMM=F IPFlag=           0 FMFlag=      100000 FMFlg1=        2001
         NFxFlg=           0 DoJE=T BraDBF=F KetDBF=T FulRan=T
         wScrn=  0.000000 ICntrl=       500 IOpCl=  0 I1Cent=   200000004 NGrid=           0
         NMat0=    1 NMatS0=      1 NMatT0=    0 NMatD0=    1 NMtDS0=    0 NMtDT0=    0
 Petite list used in FoFCou.
 Requested convergence on RMS density matrix=1.00D-08 within 128 cycles.
 Requested convergence on MAX density matrix=1.00D-06.
 Requested convergence on             energy=1.00D-06.
 No special actions if energy rises.
 EnCoef did     3 forward-backward iterations
 EnCoef did   100 forward-backward iterations
 EnCoef did   100 forward-backward iterations
 EnCoef did   100 forward-backward iterations
 EnCoef did     4 forward-backward iterations
 Restarting incremental Fock formation.
 SCF Done:  E(RAPFD) =  -3080.76574242     A.U. after   32 cycles
            NFock= 32  Conv=0.12D-08     -V/T= 2.0031
 DoSCS=F DFT=T ScalE2(SS,OS)=  1.000000  1.000000
 Range of M.O.s used for correlation:     1  1359
 NBasis=  1359 NAE=   144 NBE=   144 NFC=     0 NFV=     0
 NROrb=   1359 NOA=   144 NOB=   144 NVA=  1215 NVB=  1215

 **** Warning!!: The largest alpha MO coefficient is  0.58063086D+02

          Differentiating once with respect to electric field.
                with respect to dipole field.
          Electric field/nuclear overlap derivatives assumed to be zero.
          There are     3 degrees of freedom in the 1st order CPHF.  IDoFFX=0 NUNeed=     3.
      3 vectors produced by pass  0 Test12= 5.83D-12 3.33D-08 XBig12= 1.84D+03 2.95D+01.
 AX will form     3 AO Fock derivatives at one time.
      3 vectors produced by pass  1 Test12= 5.83D-12 3.33D-08 XBig12= 1.11D+03 7.04D+00.
      3 vectors produced by pass  2 Test12= 5.83D-12 3.33D-08 XBig12= 4.40D+02 5.03D+00.
      3 vectors produced by pass  3 Test12= 5.83D-12 3.33D-08 XBig12= 2.16D+02 3.16D+00.
      3 vectors produced by pass  4 Test12= 5.83D-12 3.33D-08 XBig12= 1.43D+02 3.52D+00.
      3 vectors produced by pass  5 Test12= 5.83D-12 3.33D-08 XBig12= 1.01D+02 3.70D+00.
      3 vectors produced by pass  6 Test12= 5.83D-12 3.33D-08 XBig12= 6.63D+01 2.78D+00.
      3 vectors produced by pass  7 Test12= 5.83D-12 3.33D-08 XBig12= 3.21D+01 1.44D+00.
      3 vectors produced by pass  8 Test12= 5.83D-12 3.33D-08 XBig12= 1.64D+01 9.28D-01.
      3 vectors produced by pass  9 Test12= 5.83D-12 3.33D-08 XBig12= 9.97D+00 8.32D-01.
      3 vectors produced by pass 10 Test12= 5.83D-12 3.33D-08 XBig12= 2.88D+00 4.38D-01.
      3 vectors produced by pass 11 Test12= 5.83D-12 3.33D-08 XBig12= 1.21D+00 2.38D-01.
      3 vectors produced by pass 12 Test12= 5.83D-12 3.33D-08 XBig12= 5.36D-01 1.12D-01.
      3 vectors produced by pass 13 Test12= 5.83D-12 3.33D-08 XBig12= 1.27D-01 5.67D-02.
      3 vectors produced by pass 14 Test12= 5.83D-12 3.33D-08 XBig12= 5.07D-02 5.32D-02.
      3 vectors produced by pass 15 Test12= 5.83D-12 3.33D-08 XBig12= 1.25D-02 3.97D-02.
      3 vectors produced by pass 16 Test12= 5.83D-12 3.33D-08 XBig12= 3.55D-03 1.24D-02.
      3 vectors produced by pass 17 Test12= 5.83D-12 3.33D-08 XBig12= 1.03D-03 3.51D-03.
      3 vectors produced by pass 18 Test12= 5.83D-12 3.33D-08 XBig12= 2.44D-04 2.24D-03.
      3 vectors produced by pass 19 Test12= 5.83D-12 3.33D-08 XBig12= 3.50D-05 1.13D-03.
      3 vectors produced by pass 20 Test12= 5.83D-12 3.33D-08 XBig12= 6.16D-06 3.93D-04.
      3 vectors produced by pass 21 Test12= 5.83D-12 3.33D-08 XBig12= 1.08D-06 1.40D-04.
      3 vectors produced by pass 22 Test12= 5.83D-12 3.33D-08 XBig12= 1.71D-07 7.49D-05.
      3 vectors produced by pass 23 Test12= 5.83D-12 3.33D-08 XBig12= 3.33D-08 2.89D-05.
      3 vectors produced by pass 24 Test12= 5.83D-12 3.33D-08 XBig12= 4.08D-09 1.38D-05.
      3 vectors produced by pass 25 Test12= 5.83D-12 3.33D-08 XBig12= 6.68D-10 4.37D-06.
      3 vectors produced by pass 26 Test12= 5.83D-12 3.33D-08 XBig12= 1.04D-10 1.52D-06.
      3 vectors produced by pass 27 Test12= 5.83D-12 3.33D-08 XBig12= 2.06D-11 5.12D-07.
      3 vectors produced by pass 28 Test12= 5.83D-12 3.33D-08 XBig12= 2.11D-12 2.02D-07.
      3 vectors produced by pass 29 Test12= 5.83D-12 3.33D-08 XBig12= 4.37D-13 8.79D-08.
      1 vectors produced by pass 30 Test12= 5.83D-12 3.33D-08 XBig12= 5.57D-14 4.27D-08.
 InvSVY:  IOpt=1 It=  1 EMax= 2.13D-14
 Solved reduced A of dimension    91 with     3 vectors.
 Isotropic polarizability for W=    0.000000      538.65 Bohr**3.
 End of Minotr F.D. properties file   721 does not exist.
 End of Minotr F.D. properties file   722 does not exist.
 End of Minotr F.D. properties file   788 does not exist.

 **********************************************************************

            Population analysis using the SCF Density.

 **********************************************************************

 Orbital symmetries:
       Occupied  (A) (A) (A) (A) (A) (A) (A) (A) (A) (A) (A) (A)
                 (A) (A) (A) (A) (A) (A) (A) (A) (A) (A) (A) (A)
                 (A) (A) (A) (A) (A) (A) (A) (A) (A) (A) (A) (A)
                 (A) (A) (A) (A) (A) (A) (A) (A) (A) (A) (A) (A)
                 (A) (A) (A) (A) (A) (A) (A) (A) (A) (A) (A) (A)
                 (A) (A) (A) (A) (A) (A) (A) (A) (A) (A) (A) (A)
                 (A) (A) (A) (A) (A) (A) (A) (A) (A) (A) (A) (A)
                 (A) (A) (A) (A) (A) (A) (A) (A) (A) (A) (A) (A)
                 (A) (A) (A) (A) (A) (A) (A) (A) (A) (A) (A) (A)
                 (A) (A) (A) (A) (A) (A) (A) (A) (A) (A) (A) (A)
                 (A) (A) (A) (A) (A) (A) (A) (A) (A) (A) (A) (A)
                 (A) (A) (A) (A) (A) (A) (A) (A) (A) (A) (A) (A)
       Virtual   (A) (A) (A) (A) (A) (A) (A) (A) (A) (A) (A) (A)
                 (A) (A) (A) (A) (A) (A) (A) (A) (A) (A) (A) (A)
                 (A) (A) (A) (A) (A) (A) (A) (A) (A) (A) (A) (A)
                 (A) (A) (A) (A) (A) (A) (A) (A) (A) (A) (A) (A)
                 (A) (A) (A) (A) (A) (A) (A) (A) (A) (A) (A) (A)
                 (A) (A) (A) (A) (A) (A) (A) (A) (A) (A) (A) (A)
                 (A) (A) (A) (A) (A) (A) (A) (A) (A) (A) (A) (A)
                 (A) (A) (A) (A) (A) (A) (A) (A) (A) (A) (A) (A)
                 (A) (A) (A) (A) (A) (A) (A) (A) (A) (A) (A) (A)
                 (A) (A) (A) (A) (A) (A) (A) (A) (A) (A) (A) (A)
                 (A) (A) (A) (A) (A) (A) (A) (A) (A) (A) (A) (A)
                 (A) (A) (A) (A) (A) (A) (A) (A) (A) (A) (A) (A)
                 (A) (A) (A) (A) (A) (A) (A) (A) (A) (A) (A) (A)
                 (A) (A) (A) (A) (A) (A) (A) (A) (A) (A) (A) (A)
                 (A) (A) (A) (A) (A) (A) (A) (A) (A) (A) (A) (A)
                 (A) (A) (A) (A) (A) (A) (A) (A) (A) (A) (A) (A)
                 (A) (A) (A) (A) (A) (A) (A) (A) (A) (A) (A) (A)
                 (A) (A) (A) (A) (A) (A) (A) (A) (A) (A) (A) (A)
                 (A) (A) (A) (A) (A) (A) (A) (A) (A) (A) (A) (A)
                 (A) (A) (A) (A) (A) (A) (A) (A) (A) (A) (A) (A)
                 (A) (A) (A) (A) (A) (A) (A) (A) (A) (A) (A) (A)
                 (A) (A) (A) (A) (A) (A) (A) (A) (A) (A) (A) (A)
                 (A) (A) (A) (A) (A) (A) (A) (A) (A) (A) (A) (A)
                 (A) (A) (A) (A) (A) (A) (A) (A) (A) (A) (A) (A)
                 (A) (A) (A) (A) (A) (A) (A) (A) (A) (A) (A) (A)
                 (A) (A) (A) (A) (A) (A) (A) (A) (A) (A) (A) (A)
                 (A) (A) (A) (A) (A) (A) (A) (A) (A) (A) (A) (A)
                 (A) (A) (A) (A) (A) (A) (A) (A) (A) (A) (A) (A)
                 (A) (A) (A) (A) (A) (A) (A) (A) (A) (A) (A) (A)
                 (A) (A) (A) (A) (A) (A) (A) (A) (A) (A) (A) (A)
                 (A) (A) (A) (A) (A) (A) (A) (A) (A) (A) (A) (A)
                 (A) (A) (A) (A) (A) (A) (A) (A) (A) (A) (A) (A)
                 (A) (A) (A) (A) (A) (A) (A) (A) (A) (A) (A) (A)
                 (A) (A) (A) (A) (A) (A) (A) (A) (A) (A) (A) (A)
                 (A) (A) (A) (A) (A) (A) (A) (A) (A) (A) (A) (A)
                 (A) (A) (A) (A) (A) (A) (A) (A) (A) (A) (A) (A)
                 (A) (A) (A) (A) (A) (A) (A) (A) (A) (A) (A) (A)
                 (A) (A) (A) (A) (A) (A) (A) (A) (A) (A) (A) (A)
                 (A) (A) (A) (A) (A) (A) (A) (A) (A) (A) (A) (A)
                 (A) (A) (A) (A) (A) (A) (A) (A) (A) (A) (A) (A)
                 (A) (A) (A) (A) (A) (A) (A) (A) (A) (A) (A) (A)
                 (A) (A) (A) (A) (A) (A) (A) (A) (A) (A) (A) (A)
                 (A) (A) (A) (A) (A) (A) (A) (A) (A) (A) (A) (A)
                 (A) (A) (A) (A) (A) (A) (A) (A) (A) (A) (A) (A)
                 (A) (A) (A) (A) (A) (A) (A) (A) (A) (A) (A) (A)
                 (A) (A) (A) (A) (A) (A) (A) (A) (A) (A) (A) (A)
                 (A) (A) (A) (A) (A) (A) (A) (A) (A) (A) (A) (A)
                 (A) (A) (A) (A) (A) (A) (A) (A) (A) (A) (A) (A)
                 (A) (A) (A) (A) (A) (A) (A) (A) (A) (A) (A) (A)
                 (A) (A) (A) (A) (A) (A) (A) (A) (A) (A) (A) (A)
                 (A) (A) (A) (A) (A) (A) (A) (A) (A) (A) (A) (A)
                 (A) (A) (A) (A) (A) (A) (A) (A) (A) (A) (A) (A)
                 (A) (A) (A) (A) (A) (A) (A) (A) (A) (A) (A) (A)
                 (A) (A) (A) (A) (A) (A) (A) (A) (A) (A) (A) (A)
                 (A) (A) (A) (A) (A) (A) (A) (A) (A) (A) (A) (A)
                 (A) (A) (A) (A) (A) (A) (A) (A) (A) (A) (A) (A)
                 (A) (A) (A) (A) (A) (A) (A) (A) (A) (A) (A) (A)
                 (A) (A) (A) (A) (A) (A) (A) (A) (A) (A) (A) (A)
                 (A) (A) (A) (A) (A) (A) (A) (A) (A) (A) (A) (A)
                 (A) (A) (A) (A) (A) (A) (A) (A) (A) (A) (A) (A)
                 (A) (A) (A) (A) (A) (A) (A) (A) (A) (A) (A) (A)
                 (A) (A) (A) (A) (A) (A) (A) (A) (A) (A) (A) (A)
                 (A) (A) (A) (A) (A) (A) (A) (A) (A) (A) (A) (A)
                 (A) (A) (A) (A) (A) (A) (A) (A) (A) (A) (A) (A)
                 (A) (A) (A) (A) (A) (A) (A) (A) (A) (A) (A) (A)
                 (A) (A) (A) (A) (A) (A) (A) (A) (A) (A) (A) (A)
                 (A) (A) (A) (A) (A) (A) (A) (A) (A) (A) (A) (A)
                 (A) (A) (A) (A) (A) (A) (A) (A) (A) (A) (A) (A)
                 (A) (A) (A) (A) (A) (A) (A) (A) (A) (A) (A) (A)
                 (A) (A) (A) (A) (A) (A) (A) (A) (A) (A) (A) (A)
                 (A) (A) (A) (A) (A) (A) (A) (A) (A) (A) (A) (A)
                 (A) (A) (A) (A) (A) (A) (A) (A) (A) (A) (A) (A)
                 (A) (A) (A) (A) (A) (A) (A) (A) (A) (A) (A) (A)
                 (A) (A) (A) (A) (A) (A) (A) (A) (A) (A) (A) (A)
                 (A) (A) (A) (A) (A) (A) (A) (A) (A) (A) (A) (A)
                 (A) (A) (A) (A) (A) (A) (A) (A) (A) (A) (A) (A)
                 (A) (A) (A) (A) (A) (A) (A) (A) (A) (A) (A) (A)
                 (A) (A) (A) (A) (A) (A) (A) (A) (A) (A) (A) (A)
                 (A) (A) (A) (A) (A) (A) (A) (A) (A) (A) (A) (A)
                 (A) (A) (A) (A) (A) (A) (A) (A) (A) (A) (A) (A)
                 (A) (A) (A) (A) (A) (A) (A) (A) (A) (A) (A) (A)
                 (A) (A) (A) (A) (A) (A) (A) (A) (A) (A) (A) (A)
                 (A) (A) (A) (A) (A) (A) (A) (A) (A) (A) (A) (A)
                 (A) (A) (A) (A) (A) (A) (A) (A) (A) (A) (A) (A)
                 (A) (A) (A) (A) (A) (A) (A) (A) (A) (A) (A) (A)
                 (A) (A) (A) (A) (A) (A) (A) (A) (A) (A) (A) (A)
                 (A) (A) (A) (A) (A) (A) (A) (A) (A) (A) (A) (A)
                 (A) (A) (A) (A) (A) (A) (A) (A) (A) (A) (A) (A)
                 (A) (A) (A) (A) (A) (A) (A) (A) (A) (A) (A) (A)
                 (A) (A) (A) (A) (A) (A) (A) (A) (A) (A) (A) (A)
                 (A) (A) (A) (A) (A) (A) (A) (A) (A) (A) (A) (A)
                 (A) (A) (A) (A) (A) (A) (A) (A) (A) (A) (A) (A)
                 (A) (A) (A) (A) (A) (A) (A) (A) (A) (A) (A) (A)
                 (A) (A) (A) (A) (A) (A) (A) (A) (A) (A) (A) (A)
                 (A) (A) (A) (A) (A) (A) (A) (A) (A) (A) (A) (A)
                 (A) (A) (A) (A) (A) (A) (A) (A) (A) (A) (A) (A)
                 (A) (A) (A) (A) (A) (A) (A) (A) (A) (A) (A) (A)
                 (A) (A) (A) (A) (A) (A) (A) (A) (A) (A) (A) (A)
                 (A) (A) (A) (A) (A) (A) (A) (A) (A) (A) (A) (A)
                 (A) (A) (A) (A) (A) (A) (A) (A) (A) (A) (A) (A)
                 (A) (A) (A) (A) (A) (A) (A) (A) (A) (A) (A) (A)
                 (A) (A) (A)
 The electronic state is 1-A.
 Alpha  occ. eigenvalues -- -256.19641 -88.97437 -30.04488 -25.88692 -25.88357
 Alpha  occ. eigenvalues --  -25.88127 -14.34764 -14.34653 -14.34582 -14.34412
 Alpha  occ. eigenvalues --  -10.22595 -10.21954 -10.21820 -10.21816 -10.21774
 Alpha  occ. eigenvalues --  -10.21727 -10.21671 -10.21614 -10.21591 -10.20162
 Alpha  occ. eigenvalues --  -10.20031 -10.19629 -10.19571 -10.19514 -10.19495
 Alpha  occ. eigenvalues --  -10.19405 -10.19340 -10.19334 -10.19330 -10.19272
 Alpha  occ. eigenvalues --  -10.19261 -10.19239 -10.19237 -10.19209 -10.19183
 Alpha  occ. eigenvalues --  -10.19112 -10.19101 -10.18902 -10.18708 -10.18673
 Alpha  occ. eigenvalues --  -10.18639  -8.00154  -5.94715  -5.94436  -5.93961
 Alpha  occ. eigenvalues --   -3.42299  -2.19178  -2.18227  -2.17873  -0.97871
 Alpha  occ. eigenvalues --   -0.96921  -0.96849  -0.95884  -0.83140  -0.82508
 Alpha  occ. eigenvalues --   -0.82171  -0.81667  -0.81248  -0.80955  -0.80495
 Alpha  occ. eigenvalues --   -0.80358  -0.77550  -0.76377  -0.75002  -0.74816
 Alpha  occ. eigenvalues --   -0.73878  -0.71462  -0.70632  -0.69052  -0.68731
 Alpha  occ. eigenvalues --   -0.68536  -0.67102  -0.65096  -0.64753  -0.61197
 Alpha  occ. eigenvalues --   -0.60904  -0.58418  -0.57430  -0.55227  -0.54838
 Alpha  occ. eigenvalues --   -0.54183  -0.52876  -0.51957  -0.51583  -0.51065
 Alpha  occ. eigenvalues --   -0.49059  -0.48706  -0.48206  -0.47272  -0.46695
 Alpha  occ. eigenvalues --   -0.46107  -0.45483  -0.45157  -0.44783  -0.44379
 Alpha  occ. eigenvalues --   -0.44327  -0.44029  -0.43925  -0.43450  -0.43354
 Alpha  occ. eigenvalues --   -0.42823  -0.42171  -0.42091  -0.41965  -0.41339
 Alpha  occ. eigenvalues --   -0.40918  -0.40628  -0.40557  -0.40511  -0.40236
 Alpha  occ. eigenvalues --   -0.39936  -0.39777  -0.39455  -0.39085  -0.38616
 Alpha  occ. eigenvalues --   -0.38415  -0.37907  -0.37541  -0.37494  -0.37229
 Alpha  occ. eigenvalues --   -0.36816  -0.36209  -0.35608  -0.35239  -0.34736
 Alpha  occ. eigenvalues --   -0.34322  -0.32520  -0.32278  -0.31263  -0.31011
 Alpha  occ. eigenvalues --   -0.30102  -0.29600  -0.29093  -0.27664  -0.27388
 Alpha  occ. eigenvalues --   -0.25371  -0.25023  -0.23753  -0.22939  -0.21112
 Alpha  occ. eigenvalues --   -0.19833  -0.19711  -0.19513  -0.18597
 Alpha virt. eigenvalues --   -0.07404  -0.07191  -0.04165  -0.02525  -0.00071
 Alpha virt. eigenvalues --    0.00858   0.01397   0.03342   0.03558   0.03978
 Alpha virt. eigenvalues --    0.04389   0.04917   0.05637   0.05894   0.06612
 Alpha virt. eigenvalues --    0.07040   0.07196   0.07388   0.07902   0.08502
 Alpha virt. eigenvalues --    0.08822   0.09133   0.09401   0.09698   0.09939
 Alpha virt. eigenvalues --    0.10120   0.10619   0.11040   0.11143   0.11492
 Alpha virt. eigenvalues --    0.11855   0.12058   0.12334   0.12358   0.12694
 Alpha virt. eigenvalues --    0.12967   0.13227   0.13437   0.13813   0.13847
 Alpha virt. eigenvalues --    0.14370   0.14504   0.14871   0.15114   0.15164
 Alpha virt. eigenvalues --    0.15511   0.15690   0.15796   0.16013   0.16189
 Alpha virt. eigenvalues --    0.16585   0.17014   0.17189   0.17262   0.17715
 Alpha virt. eigenvalues --    0.17903   0.18036   0.18722   0.19142   0.19209
 Alpha virt. eigenvalues --    0.19347   0.19626   0.19766   0.20001   0.20470
 Alpha virt. eigenvalues --    0.21035   0.21120   0.21361   0.21626   0.21727
 Alpha virt. eigenvalues --    0.22211   0.22455   0.22847   0.23407   0.23472
 Alpha virt. eigenvalues --    0.23861   0.24286   0.24579   0.24715   0.25070
 Alpha virt. eigenvalues --    0.25512   0.25667   0.25808   0.26335   0.26637
 Alpha virt. eigenvalues --    0.27208   0.27337   0.27461   0.27674   0.28130
 Alpha virt. eigenvalues --    0.28342   0.28825   0.28989   0.29159   0.29458
 Alpha virt. eigenvalues --    0.29620   0.30157   0.30243   0.30414   0.30756
 Alpha virt. eigenvalues --    0.31291   0.31404   0.31666   0.31874   0.32515
 Alpha virt. eigenvalues --    0.32638   0.33051   0.33328   0.33585   0.33873
 Alpha virt. eigenvalues --    0.34580   0.34709   0.34851   0.35348   0.35683
 Alpha virt. eigenvalues --    0.36014   0.36401   0.36522   0.36840   0.37064
 Alpha virt. eigenvalues --    0.37227   0.37689   0.38174   0.38297   0.38520
 Alpha virt. eigenvalues --    0.38768   0.39157   0.39493   0.39918   0.39987
 Alpha virt. eigenvalues --    0.40203   0.40449   0.40705   0.40927   0.41123
 Alpha virt. eigenvalues --    0.41203   0.41519   0.41693   0.41959   0.42355
 Alpha virt. eigenvalues --    0.42541   0.42653   0.43110   0.43476   0.43582
 Alpha virt. eigenvalues --    0.43660   0.43712   0.44286   0.44672   0.44888
 Alpha virt. eigenvalues --    0.45148   0.45220   0.45478   0.45783   0.46011
 Alpha virt. eigenvalues --    0.46303   0.46473   0.46675   0.46984   0.47077
 Alpha virt. eigenvalues --    0.47409   0.47692   0.47812   0.48064   0.48198
 Alpha virt. eigenvalues --    0.48234   0.48467   0.48851   0.49242   0.49423
 Alpha virt. eigenvalues --    0.49778   0.50194   0.50296   0.50435   0.50807
 Alpha virt. eigenvalues --    0.50964   0.51164   0.51374   0.51470   0.51684
 Alpha virt. eigenvalues --    0.52036   0.52286   0.52490   0.52980   0.53253
 Alpha virt. eigenvalues --    0.53341   0.53748   0.53784   0.54183   0.54463
 Alpha virt. eigenvalues --    0.55199   0.55289   0.55676   0.56334   0.56408
 Alpha virt. eigenvalues --    0.56643   0.57160   0.57300   0.57806   0.57916
 Alpha virt. eigenvalues --    0.58409   0.58793   0.59233   0.59315   0.59438
 Alpha virt. eigenvalues --    0.59834   0.60502   0.61005   0.61429   0.61632
 Alpha virt. eigenvalues --    0.62160   0.62529   0.62804   0.62847   0.63294
 Alpha virt. eigenvalues --    0.63456   0.64217   0.64333   0.64512   0.64927
 Alpha virt. eigenvalues --    0.65145   0.65244   0.65490   0.65922   0.66135
 Alpha virt. eigenvalues --    0.67096   0.67308   0.67671   0.68274   0.68298
 Alpha virt. eigenvalues --    0.68833   0.69023   0.69401   0.69783   0.69928
 Alpha virt. eigenvalues --    0.70273   0.70577   0.70785   0.71304   0.71474
 Alpha virt. eigenvalues --    0.71559   0.72033   0.72425   0.72673   0.73218
 Alpha virt. eigenvalues --    0.73543   0.73883   0.74105   0.74578   0.74740
 Alpha virt. eigenvalues --    0.74911   0.75222   0.75603   0.75979   0.76451
 Alpha virt. eigenvalues --    0.76660   0.77057   0.77407   0.77636   0.78531
 Alpha virt. eigenvalues --    0.78659   0.79070   0.79209   0.80037   0.80340
 Alpha virt. eigenvalues --    0.80383   0.81015   0.81319   0.81828   0.82185
 Alpha virt. eigenvalues --    0.82572   0.82960   0.83706   0.84047   0.84601
 Alpha virt. eigenvalues --    0.85419   0.85518   0.85793   0.86086   0.86485
 Alpha virt. eigenvalues --    0.87015   0.87137   0.88107   0.88377   0.88782
 Alpha virt. eigenvalues --    0.88972   0.89585   0.89652   0.89713   0.90392
 Alpha virt. eigenvalues --    0.90892   0.91281   0.91575   0.92004   0.92598
 Alpha virt. eigenvalues --    0.92805   0.92949   0.93528   0.93948   0.94603
 Alpha virt. eigenvalues --    0.94938   0.95691   0.96089   0.96408   0.96654
 Alpha virt. eigenvalues --    0.96956   0.97521   0.97723   0.97867   0.98292
 Alpha virt. eigenvalues --    0.98582   0.99019   0.99376   0.99450   0.99926
 Alpha virt. eigenvalues --    1.00077   1.00701   1.00801   1.01866   1.02141
 Alpha virt. eigenvalues --    1.02265   1.02669   1.02823   1.03316   1.03418
 Alpha virt. eigenvalues --    1.03905   1.04166   1.04687   1.05066   1.05218
 Alpha virt. eigenvalues --    1.06143   1.06367   1.07193   1.07437   1.07826
 Alpha virt. eigenvalues --    1.08025   1.08855   1.09271   1.10304   1.10504
 Alpha virt. eigenvalues --    1.10908   1.11180   1.11817   1.12063   1.12270
 Alpha virt. eigenvalues --    1.13216   1.13973   1.14810   1.15310   1.15694
 Alpha virt. eigenvalues --    1.16202   1.16804   1.17382   1.17560   1.17769
 Alpha virt. eigenvalues --    1.18218   1.18829   1.19657   1.19960   1.20042
 Alpha virt. eigenvalues --    1.20557   1.21938   1.22122   1.22356   1.23076
 Alpha virt. eigenvalues --    1.23331   1.23671   1.24384   1.24753   1.24870
 Alpha virt. eigenvalues --    1.25938   1.26159   1.26264   1.26624   1.26760
 Alpha virt. eigenvalues --    1.27315   1.27501   1.28093   1.28419   1.28768
 Alpha virt. eigenvalues --    1.28994   1.29907   1.30057   1.30809   1.31380
 Alpha virt. eigenvalues --    1.31638   1.32205   1.32930   1.33800   1.34332
 Alpha virt. eigenvalues --    1.35511   1.36139   1.36688   1.36991   1.37282
 Alpha virt. eigenvalues --    1.37966   1.39288   1.39530   1.40022   1.41376
 Alpha virt. eigenvalues --    1.41562   1.41985   1.42814   1.42931   1.43492
 Alpha virt. eigenvalues --    1.44021   1.44322   1.44675   1.45700   1.46257
 Alpha virt. eigenvalues --    1.46891   1.47052   1.47415   1.47784   1.48110
 Alpha virt. eigenvalues --    1.48965   1.49268   1.49391   1.49625   1.49964
 Alpha virt. eigenvalues --    1.50559   1.50666   1.50922   1.51097   1.51568
 Alpha virt. eigenvalues --    1.51910   1.52310   1.52447   1.52825   1.53424
 Alpha virt. eigenvalues --    1.53660   1.53970   1.54065   1.54415   1.54870
 Alpha virt. eigenvalues --    1.55264   1.55528   1.55732   1.55759   1.55976
 Alpha virt. eigenvalues --    1.56105   1.56491   1.56896   1.57186   1.57617
 Alpha virt. eigenvalues --    1.57810   1.57940   1.58427   1.58773   1.59127
 Alpha virt. eigenvalues --    1.59433   1.59760   1.60232   1.60502   1.60787
 Alpha virt. eigenvalues --    1.61177   1.61384   1.61860   1.62068   1.62534
 Alpha virt. eigenvalues --    1.62593   1.63365   1.63566   1.63787   1.64107
 Alpha virt. eigenvalues --    1.64464   1.64812   1.65427   1.65749   1.66081
 Alpha virt. eigenvalues --    1.66544   1.67127   1.67159   1.67372   1.67748
 Alpha virt. eigenvalues --    1.67973   1.68415   1.69018   1.69290   1.69711
 Alpha virt. eigenvalues --    1.69783   1.70257   1.70305   1.70837   1.71521
 Alpha virt. eigenvalues --    1.71921   1.72474   1.72585   1.72961   1.73252
 Alpha virt. eigenvalues --    1.73796   1.74335   1.75446   1.75764   1.76080
 Alpha virt. eigenvalues --    1.76324   1.76646   1.77408   1.77683   1.78319
 Alpha virt. eigenvalues --    1.79325   1.79600   1.80348   1.80865   1.81057
 Alpha virt. eigenvalues --    1.81798   1.82573   1.83156   1.83251   1.83518
 Alpha virt. eigenvalues --    1.84071   1.84296   1.84853   1.85219   1.85806
 Alpha virt. eigenvalues --    1.86654   1.87054   1.87336   1.87592   1.88157
 Alpha virt. eigenvalues --    1.88544   1.89229   1.89841   1.90600   1.91417
 Alpha virt. eigenvalues --    1.91952   1.93468   1.93603   1.94233   1.95185
 Alpha virt. eigenvalues --    1.95192   1.95293   1.95776   1.95927   1.96593
 Alpha virt. eigenvalues --    1.96924   1.97964   1.98274   1.98505   1.98816
 Alpha virt. eigenvalues --    1.99234   1.99740   2.00012   2.00413   2.00685
 Alpha virt. eigenvalues --    2.01234   2.01692   2.02370   2.02877   2.03355
 Alpha virt. eigenvalues --    2.03567   2.04696   2.05412   2.06063   2.06769
 Alpha virt. eigenvalues --    2.07106   2.07572   2.08005   2.08152   2.08877
 Alpha virt. eigenvalues --    2.09708   2.09862   2.10138   2.10696   2.11087
 Alpha virt. eigenvalues --    2.12479   2.12607   2.13074   2.13118   2.13777
 Alpha virt. eigenvalues --    2.14567   2.15110   2.15686   2.16021   2.16897
 Alpha virt. eigenvalues --    2.17377   2.18017   2.18154   2.18999   2.19586
 Alpha virt. eigenvalues --    2.20367   2.20824   2.21513   2.22010   2.22310
 Alpha virt. eigenvalues --    2.23187   2.24022   2.24114   2.24858   2.25192
 Alpha virt. eigenvalues --    2.25772   2.26271   2.26439   2.27074   2.27515
 Alpha virt. eigenvalues --    2.28107   2.28403   2.28874   2.29236   2.30032
 Alpha virt. eigenvalues --    2.30049   2.30864   2.31216   2.31815   2.32220
 Alpha virt. eigenvalues --    2.32950   2.33018   2.33525   2.33952   2.34508
 Alpha virt. eigenvalues --    2.34924   2.35607   2.35952   2.36107   2.36592
 Alpha virt. eigenvalues --    2.36765   2.37489   2.37631   2.38273   2.38651
 Alpha virt. eigenvalues --    2.38751   2.39021   2.39659   2.39941   2.40705
 Alpha virt. eigenvalues --    2.41062   2.41340   2.41970   2.42405   2.43300
 Alpha virt. eigenvalues --    2.43446   2.44214   2.44904   2.45631   2.46102
 Alpha virt. eigenvalues --    2.46283   2.46580   2.46722   2.47403   2.47919
 Alpha virt. eigenvalues --    2.49222   2.49503   2.49772   2.50643   2.50801
 Alpha virt. eigenvalues --    2.51823   2.52066   2.52521   2.52750   2.53141
 Alpha virt. eigenvalues --    2.54158   2.54473   2.54975   2.55383   2.55649
 Alpha virt. eigenvalues --    2.56134   2.56220   2.56421   2.57208   2.57414
 Alpha virt. eigenvalues --    2.57833   2.58233   2.58524   2.59287   2.59367
 Alpha virt. eigenvalues --    2.59547   2.60326   2.60606   2.60796   2.61149
 Alpha virt. eigenvalues --    2.61478   2.61695   2.62174   2.62692   2.63524
 Alpha virt. eigenvalues --    2.63719   2.64598   2.64822   2.65428   2.65660
 Alpha virt. eigenvalues --    2.66408   2.67125   2.67785   2.68021   2.68457
 Alpha virt. eigenvalues --    2.68508   2.69456   2.69638   2.70215   2.70892
 Alpha virt. eigenvalues --    2.71081   2.71708   2.71824   2.72762   2.73138
 Alpha virt. eigenvalues --    2.73953   2.74196   2.74338   2.74637   2.75523
 Alpha virt. eigenvalues --    2.75700   2.76498   2.77108   2.77916   2.78210
 Alpha virt. eigenvalues --    2.79028   2.79410   2.79733   2.80213   2.81184
 Alpha virt. eigenvalues --    2.81640   2.82060   2.82160   2.82744   2.83243
 Alpha virt. eigenvalues --    2.83429   2.83968   2.84637   2.84924   2.85370
 Alpha virt. eigenvalues --    2.85728   2.86143   2.86353   2.86740   2.87031
 Alpha virt. eigenvalues --    2.87215   2.87694   2.88233   2.88808   2.89784
 Alpha virt. eigenvalues --    2.89953   2.90302   2.90604   2.90918   2.91687
 Alpha virt. eigenvalues --    2.91818   2.92527   2.92839   2.93305   2.93477
 Alpha virt. eigenvalues --    2.94069   2.94565   2.95375   2.95745   2.96274
 Alpha virt. eigenvalues --    2.96778   2.97164   2.97903   2.98052   2.98225
 Alpha virt. eigenvalues --    2.98877   3.00028   3.00344   3.01124   3.01433
 Alpha virt. eigenvalues --    3.01715   3.02252   3.02376   3.03143   3.03612
 Alpha virt. eigenvalues --    3.04207   3.04738   3.04933   3.05302   3.05520
 Alpha virt. eigenvalues --    3.05756   3.06503   3.06645   3.07007   3.07496
 Alpha virt. eigenvalues --    3.07711   3.08132   3.08747   3.08781   3.09376
 Alpha virt. eigenvalues --    3.09504   3.09568   3.10524   3.10877   3.11251
 Alpha virt. eigenvalues --    3.11505   3.12363   3.12383   3.12655   3.13419
 Alpha virt. eigenvalues --    3.13793   3.14213   3.14467   3.14683   3.14894
 Alpha virt. eigenvalues --    3.15744   3.15874   3.16240   3.16793   3.17133
 Alpha virt. eigenvalues --    3.17384   3.17873   3.18230   3.18374   3.18644
 Alpha virt. eigenvalues --    3.19080   3.19617   3.19757   3.20176   3.20298
 Alpha virt. eigenvalues --    3.20706   3.20999   3.21247   3.21781   3.22376
 Alpha virt. eigenvalues --    3.22661   3.22855   3.23076   3.23499   3.24143
 Alpha virt. eigenvalues --    3.24423   3.24502   3.24618   3.24876   3.25283
 Alpha virt. eigenvalues --    3.25743   3.26238   3.26539   3.26655   3.27368
 Alpha virt. eigenvalues --    3.27584   3.28032   3.28366   3.28823   3.29172
 Alpha virt. eigenvalues --    3.29455   3.29860   3.30002   3.30437   3.30595
 Alpha virt. eigenvalues --    3.30785   3.31025   3.31573   3.31994   3.32190
 Alpha virt. eigenvalues --    3.32415   3.32953   3.33066   3.33604   3.33752
 Alpha virt. eigenvalues --    3.33996   3.34230   3.34632   3.34768   3.34972
 Alpha virt. eigenvalues --    3.35499   3.35975   3.36060   3.36337   3.36627
 Alpha virt. eigenvalues --    3.36853   3.37223   3.37367   3.37464   3.37669
 Alpha virt. eigenvalues --    3.37968   3.38297   3.38685   3.39289   3.39788
 Alpha virt. eigenvalues --    3.40256   3.40544   3.41019   3.41271   3.41739
 Alpha virt. eigenvalues --    3.41820   3.42452   3.42590   3.42837   3.43367
 Alpha virt. eigenvalues --    3.44227   3.44927   3.45034   3.45210   3.45979
 Alpha virt. eigenvalues --    3.46335   3.46558   3.46961   3.47573   3.48130
 Alpha virt. eigenvalues --    3.48596   3.48887   3.49649   3.49759   3.50029
 Alpha virt. eigenvalues --    3.50856   3.51470   3.52692   3.53123   3.53760
 Alpha virt. eigenvalues --    3.54631   3.54642   3.55406   3.56053   3.57066
 Alpha virt. eigenvalues --    3.57224   3.57605   3.58467   3.58697   3.59104
 Alpha virt. eigenvalues --    3.59414   3.59869   3.60448   3.60863   3.61424
 Alpha virt. eigenvalues --    3.61655   3.62175   3.63116   3.63520   3.64601
 Alpha virt. eigenvalues --    3.64793   3.65510   3.66390   3.66843   3.66998
 Alpha virt. eigenvalues --    3.67539   3.68391   3.68724   3.69371   3.69907
 Alpha virt. eigenvalues --    3.70594   3.70754   3.70974   3.71498   3.72031
 Alpha virt. eigenvalues --    3.72220   3.73188   3.73347   3.73654   3.73777
 Alpha virt. eigenvalues --    3.74257   3.74505   3.75141   3.75588   3.76267
 Alpha virt. eigenvalues --    3.76534   3.77528   3.78177   3.78953   3.79211
 Alpha virt. eigenvalues --    3.79913   3.81004   3.81610   3.82267   3.83247
 Alpha virt. eigenvalues --    3.83815   3.83937   3.84794   3.85011   3.85525
 Alpha virt. eigenvalues --    3.85782   3.87029   3.87413   3.88478   3.88841
 Alpha virt. eigenvalues --    3.89538   3.90172   3.90933   3.91020   3.92437
 Alpha virt. eigenvalues --    3.92670   3.93258   3.94470   3.95276   3.96061
 Alpha virt. eigenvalues --    3.96935   3.97348   3.97943   3.98349   3.99044
 Alpha virt. eigenvalues --    3.99510   4.00165   4.01086   4.02021   4.02398
 Alpha virt. eigenvalues --    4.02876   4.03740   4.03992   4.04260   4.05178
 Alpha virt. eigenvalues --    4.05968   4.06715   4.07387   4.07590   4.08793
 Alpha virt. eigenvalues --    4.09198   4.10478   4.11430   4.11636   4.12129
 Alpha virt. eigenvalues --    4.13638   4.14544   4.15229   4.15754   4.16475
 Alpha virt. eigenvalues --    4.16844   4.16966   4.17679   4.17943   4.18879
 Alpha virt. eigenvalues --    4.19593   4.20108   4.20874   4.21154   4.21637
 Alpha virt. eigenvalues --    4.21945   4.22741   4.23967   4.24755   4.25066
 Alpha virt. eigenvalues --    4.25784   4.26454   4.27127   4.27404   4.28062
 Alpha virt. eigenvalues --    4.29213   4.29676   4.30218   4.31171   4.31770
 Alpha virt. eigenvalues --    4.32201   4.32458   4.32927   4.33532   4.33724
 Alpha virt. eigenvalues --    4.34652   4.35659   4.36442   4.37112   4.37841
 Alpha virt. eigenvalues --    4.38712   4.39051   4.39916   4.40142   4.40285
 Alpha virt. eigenvalues --    4.40668   4.40852   4.41444   4.42414   4.43753
 Alpha virt. eigenvalues --    4.43993   4.44528   4.44899   4.45462   4.46264
 Alpha virt. eigenvalues --    4.46551   4.47080   4.47784   4.48487   4.50116
 Alpha virt. eigenvalues --    4.51393   4.51999   4.52232   4.53180   4.53754
 Alpha virt. eigenvalues --    4.55187   4.56042   4.56384   4.56803   4.58488
 Alpha virt. eigenvalues --    4.60322   4.62058   4.62573   4.63391   4.64627
 Alpha virt. eigenvalues --    4.65714   4.66488   4.67603   4.67913   4.68320
 Alpha virt. eigenvalues --    4.69131   4.70616   4.72221   4.72648   4.73686
 Alpha virt. eigenvalues --    4.74459   4.75088   4.77201   4.78242   4.78918
 Alpha virt. eigenvalues --    4.80645   4.81763   4.82339   4.82829   4.82912
 Alpha virt. eigenvalues --    4.84205   4.84510   4.84609   4.86384   4.86580
 Alpha virt. eigenvalues --    4.87803   4.89284   4.90408   4.92323   4.93221
 Alpha virt. eigenvalues --    4.94027   4.95129   4.95981   4.97344   4.98489
 Alpha virt. eigenvalues --    4.99923   5.00847   5.01086   5.01923   5.02669
 Alpha virt. eigenvalues --    5.03457   5.03863   5.04579   5.05450   5.07329
 Alpha virt. eigenvalues --    5.08158   5.09219   5.10441   5.12431   5.13905
 Alpha virt. eigenvalues --    5.15787   5.17506   5.17974   5.18453   5.19892
 Alpha virt. eigenvalues --    5.21653   5.22589   5.23155   5.23994   5.26297
 Alpha virt. eigenvalues --    5.27550   5.34297   5.35144   5.35467   5.37063
 Alpha virt. eigenvalues --    5.37976   5.38368   5.38996   5.39770   5.41742
 Alpha virt. eigenvalues --    5.46210   5.47832   5.48527   5.49320   5.50196
 Alpha virt. eigenvalues --    5.51085   5.52145   5.56196   5.59561   5.60693
 Alpha virt. eigenvalues --    5.60853   5.61540   5.65302   5.66501   5.67056
 Alpha virt. eigenvalues --    5.71281   5.73624   5.74622   5.75420   5.76108
 Alpha virt. eigenvalues --    5.77003   5.82272   5.86509   5.90635   5.99109
 Alpha virt. eigenvalues --    6.00355   6.00625   6.05826   6.09404   6.11115
 Alpha virt. eigenvalues --    6.12031   6.17538   6.25278   6.31750   6.32762
 Alpha virt. eigenvalues --    6.39363   9.04303   9.18158   9.38074  19.49881
 Alpha virt. eigenvalues --   22.30619  22.33754  22.34978  22.45433  22.45992
 Alpha virt. eigenvalues --   22.53234  22.54754  22.61228  22.61733  22.79546
 Alpha virt. eigenvalues --   22.86462  22.87025  22.90873  22.92485  22.94183
 Alpha virt. eigenvalues --   22.95516  23.01922  23.03992  23.13867  23.25216
 Alpha virt. eigenvalues --   23.29161  23.29927  23.35713  23.42275  23.50407
 Alpha virt. eigenvalues --   23.51413  23.55955  23.73870  23.78153  23.79365
 Alpha virt. eigenvalues --   23.88082  32.85740  32.87999  32.88581  33.00850
          Condensed to atoms (all electrons):
 Mulliken charges:
               1
     1  Fe  -0.215247
     2  N   -0.107720
     3  N   -0.108558
     4  N   -0.065884
     5  N   -0.030298
     6  C    0.308623
     7  C   -0.067958
     8  C   -0.011842
     9  C    0.235028
    10  C    0.235427
    11  C   -0.073870
    12  C    0.070157
    13  C    0.267284
    14  C    0.310007
    15  C   -0.072173
    16  C    0.064633
    17  C    0.234693
    18  C    0.217634
    19  C   -0.024936
    20  C   -0.040822
    21  C    0.190018
    22  C   -0.465237
    23  H    0.140709
    24  C   -0.428468
    25  H    0.141378
    26  C   -0.483516
    27  H    0.177872
    28  C   -0.452187
    29  H    0.123021
    30  C   -0.419963
    31  H    0.120713
    32  H    0.135344
    33  H    0.144072
    34  C   -0.415364
    35  H    0.142466
    36  H    0.132766
    37  H    0.121138
    38  C   -0.400075
    39  H    0.138060
    40  H    0.138419
    41  H    0.128156
    42  C   -0.247968
    43  H    0.120459
    44  C   -0.303963
    45  H    0.148833
    46  H    0.124707
    47  C   -0.441070
    48  H    0.135566
    49  H    0.141066
    50  H    0.157541
    51  C   -0.206967
    52  H    0.113291
    53  C   -0.288203
    54  H    0.141028
    55  H    0.124022
    56  C   -0.418356
    57  H    0.141909
    58  H    0.136289
    59  H    0.121319
    60  C   -0.410121
    61  H    0.138299
    62  H    0.121495
    63  H    0.134452
    64  C   -0.344367
    65  H    0.163392
    66  H    0.154926
    67  H    0.148918
    68  S   -0.010070
    69  H    0.170072
 Sum of Mulliken charges =  -0.00000
 Mulliken charges with hydrogens summed into heavy atoms:
               1
     1  Fe  -0.215247
     2  N   -0.107720
     3  N   -0.108558
     4  N   -0.065884
     5  N   -0.030298
     6  C    0.308623
     7  C   -0.067958
     8  C   -0.011842
     9  C    0.235028
    10  C    0.235427
    11  C   -0.073870
    12  C    0.070157
    13  C    0.267284
    14  C    0.310007
    15  C   -0.072173
    16  C    0.064633
    17  C    0.234693
    18  C    0.217634
    19  C   -0.024936
    20  C   -0.040822
    21  C    0.190018
    22  C   -0.324528
    24  C   -0.287091
    26  C   -0.305645
    28  C   -0.329166
    30  C   -0.019833
    34  C   -0.018994
    38  C    0.004560
    42  C   -0.127509
    44  C   -0.030423
    47  C   -0.006897
    51  C   -0.093677
    53  C   -0.023153
    56  C   -0.018838
    60  C   -0.015875
    64  C    0.122869
    68  S    0.160002
 Electronic spatial extent (au):  <R**2>=          17949.8641
 Charge=             -0.0000 electrons
 Dipole moment (field-independent basis, Debye):
    X=              2.1767    Y=             -0.5107    Z=              1.2384  Tot=              2.5559
 Quadrupole moment (field-independent basis, Debye-Ang):
   XX=           -212.8412   YY=           -211.9129   ZZ=           -230.5083
   XY=             -1.0126   XZ=              1.5047   YZ=             -3.6872
 Traceless Quadrupole moment (field-independent basis, Debye-Ang):
   XX=              5.5796   YY=              6.5079   ZZ=            -12.0875
   XY=             -1.0126   XZ=              1.5047   YZ=             -3.6872
 Octapole moment (field-independent basis, Debye-Ang**2):
  XXX=             26.2353  YYY=             -0.7901  ZZZ=             36.0963  XYY=             21.5040
  XXY=              8.2152  XXZ=             -2.3737  XZZ=             26.8203  YZZ=             -8.0241
  YYZ=            -18.3015  XYZ=              0.9851
 Hexadecapole moment (field-independent basis, Debye-Ang**3):
 XXXX=         -11567.4034 YYYY=         -10928.1796 ZZZZ=          -1312.3390 XXXY=            -34.0347
 XXXZ=           -105.0279 YYYX=            -10.8881 YYYZ=            -31.1008 ZZZX=             38.8371
 ZZZY=            -44.6764 XXYY=          -3764.4994 XXZZ=          -2295.8795 YYZZ=          -2205.5181
 XXYZ=            -20.7717 YYXZ=             40.2310 ZZXY=             -7.0543
 N-N= 5.040162722017D+03 E-N=-1.733403809795D+04  KE= 3.071197311592D+03
  Exact polarizability:     697.412       9.463     661.878      -9.886      -1.192     256.673
 Approx polarizability:    1290.290      17.987    1234.244     -24.231      -5.135     435.460

 ----------------------------------------------------------------------

 Electric dipole moment (input orientation):
 (Debye = 10**-18 statcoulomb cm , SI units = C m)
                  (au)            (Debye)         (10**-30 SI)
   Tot        0.100555D+01      0.255586D+01      0.852544D+01
   x         -0.319909D-01     -0.813127D-01     -0.271230D+00
   y         -0.916508D+00     -0.232953D+01     -0.777048D+01
   z         -0.412466D+00     -0.104839D+01     -0.349704D+01

 Dipole polarizability, Alpha (input orientation).
 (esu units = cm**3 , SI units = C**2 m**2 J**-1)
 Alpha(0;0):
               (au)            (10**-24 esu)      (10**-40 SI)
   iso        0.538655D+03      0.798204D+02      0.888121D+02
   aniso      0.424756D+03      0.629424D+02      0.700329D+02
   xx         0.372134D+03      0.551446D+02      0.613566D+02
   yx        -0.127359D+03     -0.188726D+02     -0.209986D+02
   yy         0.648463D+03      0.960922D+02      0.106917D+03
   zx        -0.135930D+03     -0.201428D+02     -0.224119D+02
   zy        -0.627738D+02     -0.930212D+01     -0.103500D+02
   zz         0.595367D+03      0.882242D+02      0.981627D+02

 First dipole hyperpolarizability, Beta (input orientation).
 ||, _|_  parallel and perpendicular components, (z) with respect to z axis,
 vector components x,y,z.  Values do not include the 1/n! factor of 1/2.
 (esu units = statvolt**-1 cm**4 , SI units = C**3 m**3 J**-2)
 Beta(0;0,0):
               (au)            (10**-30 esu)      (10**-50 SI)
   || (z)     0.424690D+02      0.366899D+00      0.136171D+00
   _|_(z)     0.141563D+02      0.122300D+00      0.453903D-01
   x         -0.746479D+03     -0.644900D+01     -0.239348D+01
   y          0.383574D+04      0.331378D+02      0.122988D+02
   z          0.212345D+03      0.183450D+01      0.680855D+00
   ||         0.782693D+03      0.676186D+01      0.250960D+01
   xxx       -0.101839D+03     -0.879811D+00     -0.326533D+00
   xxy        0.511069D+02      0.441523D+00      0.163867D+00
   yxy        0.706873D+02      0.610683D+00      0.226649D+00
   yyy        0.945043D+03      0.816443D+01      0.303015D+01
   xxz        0.256856D+03      0.221903D+01      0.823572D+00
   yxz       -0.129999D+03     -0.112309D+01     -0.416824D+00
   yyz       -0.427242D+03     -0.369103D+01     -0.136989D+01
   zxz       -0.217674D+03     -0.188054D+01     -0.697943D+00
   zyz        0.282430D+03      0.243998D+01      0.905574D+00
   zzz        0.241168D+03      0.208350D+01      0.773270D+00

 ----------------------------------------------------------------------

 Dipole orientation:
    26         -2.25054930         24.71402163        -46.99424595
     7         -1.40451792         27.47561660        -44.49883296
     7         -4.01798903         27.39000577        -49.18121879
     7         -2.90177122         22.27361455        -49.76412654
     7         -0.06181549         22.39571183        -45.12896488
     6          0.38449792         27.34337894        -42.64242150
     6          0.94095089         29.80475018        -41.61337745
     6         -0.55377087         31.46037232        -42.88709145
     6         -1.96880098         29.98055954        -44.69425269
     6         -4.50495619         29.83364608        -48.53718402
     6         -5.85550258         31.12420511        -50.51634562
     6         -6.22112099         29.39209661        -52.39376983
     6         -5.05482708         27.07565557        -51.51549895
     6         -3.84169794         22.66934434        -52.12650958
     6         -3.50607880         20.47601726        -53.69622984
     6         -2.34486237         18.69676741        -52.21867615
     6         -1.94232267         19.88316749        -49.78383383
     6          0.23863904         19.89686445        -45.68070282
     6          1.90074238         18.71023418        -43.86736566
     6          2.58789228         20.54602099        -42.20170472
     6          1.32737718         22.82925942        -43.00642095
     6          1.56302625         25.15110765        -41.83750073
     1          2.83158667         25.28561334        -40.24731192
     6         -3.61897807         31.04683742        -46.40523202
     1         -4.03850614         33.03152917        -46.20758976
     6         -4.95316938         24.89095171        -52.92958332
     1         -5.69734793         24.95839725        -54.82490765
     6         -0.70994027         18.70193531        -47.80060006
     1         -0.24209997         16.73139606        -48.03683715
     6         -0.74889427         34.25585434        -42.62300923
     1          0.46882285         34.92997838        -41.11213840
     1         -2.68532872         34.81022762        -42.19133596
     1         -0.18951167         35.18999441        -44.37161277
     6          2.82256889         30.28992275        -39.57717610
     1          4.69967417         29.68096311        -40.16734917
     1          2.32276262         29.25719954        -37.86577984
     1          2.90499381         32.29169804        -39.12393539
     6         -6.69816216         33.80677803        -50.41995512
     1         -5.08216205         35.07073390        -50.22514485
     1         -7.94790587         34.11563280        -48.81197610
     1         -7.71554961         34.30066391        -52.13451433
     6         -7.53025158         29.78328114        -54.77072950
     1         -7.14829219         31.57259592        -55.69473620
     6         -9.16497979         28.18936462        -55.80877576
     1         -9.68146917         26.43764751        -54.91061124
     1        -10.08472539         28.60737419        -57.57652702
     6         -4.20113776         20.32254633        -56.41592335
     1         -3.79874688         22.10050334        -57.37015196
     1         -6.21169113         19.92131008        -56.63556535
     1         -3.13463185         18.82300536        -57.33288712
     6         -1.53666375         16.16876943        -52.87990490
     1          0.19101606         15.52550041        -51.98887956
     6         -2.74519955         14.62986567        -54.45278224
     1         -4.51007267         15.14110510        -55.32347805
     1         -2.02795117         12.77484153        -54.88674338
     6          2.65549208         16.00003541        -43.94457876
     1          3.75955586         15.60720343        -45.63934357
     1          0.99366445         14.78345061        -43.96850583
     1          3.79515136         15.51267369        -42.30646483
     6          4.29456941         20.38811844        -39.96906460
     1          5.92821608         21.61750705        -40.22214823
     1          4.96839206         18.46667614        -39.69881001
     1          3.30957343         20.97997955        -38.25902805
     6         -5.27755513         23.72205558        -41.50167851
     1         -3.37388000         23.08191813        -41.08655944
     1         -6.67743423         22.63303013        -40.47053607
     1         -5.45209585         25.71439776        -41.04890752
    16         -5.88700101         23.43322331        -44.89390838
     1         -5.53350275         20.92572559        -44.97120761

 Electric dipole moment (dipole orientation):
 (Debye = 10**-18 statcoulomb cm , SI units = C m)
                  (au)            (Debye)         (10**-30 SI)
   Tot        0.100555D+01      0.255586D+01      0.852544D+01
   x          0.000000D+00      0.000000D+00      0.000000D+00
   y          0.000000D+00      0.000000D+00      0.000000D+00
   z          0.100555D+01      0.255586D+01      0.852544D+01

 Dipole polarizability, Alpha (dipole orientation).
 (esu units = cm**3 , SI units = C**2 m**2 J**-1)
 Alpha(0;0):
               (au)            (10**-24 esu)      (10**-40 SI)
   iso        0.538655D+03      0.798204D+02      0.888121D+02
   aniso      0.424756D+03      0.629424D+02      0.700329D+02
   xx         0.386272D+03      0.572395D+02      0.636876D+02
   yx        -0.751490D+02     -0.111359D+02     -0.123904D+02
   yy         0.648314D+03      0.960703D+02      0.106893D+03
   zx         0.177235D+03      0.262636D+02      0.292222D+02
   zy         0.674093D+02      0.998903D+01      0.111143D+02
   zz         0.581378D+03      0.861513D+02      0.958562D+02

 First dipole hyperpolarizability, Beta (dipole orientation).
 ||, _|_  parallel and perpendicular components, (z) with respect to z axis,
 vector components x,y,z.  Values do not include the 1/n! factor of 1/2.
 (esu units = statvolt**-1 cm**4 , SI units = C**3 m**3 J**-2)
 Beta(0;0,0):
               (au)            (10**-30 esu)      (10**-50 SI)
   || (z)    -0.711884D+03     -0.615013D+01     -0.228256D+01
   _|_(z)    -0.237295D+03     -0.205004D+01     -0.760853D+00
   x         -0.831571D+03     -0.718413D+01     -0.266632D+01
   y         -0.139794D+04     -0.120771D+02     -0.448229D+01
   z         -0.355942D+04     -0.307506D+02     -0.114128D+02
   ||         0.782693D+03      0.676186D+01      0.250960D+01
   xxx       -0.130345D+03     -0.112608D+01     -0.417934D+00
   xxy        0.225951D+03      0.195204D+01      0.724479D+00
   yxy       -0.744780D+02     -0.643432D+00     -0.238804D+00
   yyy       -0.373577D+03     -0.322741D+01     -0.119782D+01
   xxz       -0.160937D+03     -0.139037D+01     -0.516021D+00
   yxz        0.186585D+03      0.161195D+01      0.598258D+00
   yyz       -0.606867D+03     -0.524286D+01     -0.194584D+01
   zxz       -0.723671D+02     -0.625196D+00     -0.232035D+00
   zyz       -0.318353D+03     -0.275032D+01     -0.102075D+01
   zzz       -0.418670D+03     -0.361698D+01     -0.134241D+01

 ----------------------------------------------------------------------
 Unable to Open any file for archive entry.
 1\1\GINC-BGN1007\SP\RAPFD\def2TZVP\C31H32Fe1N4S1\BECSLEIP\29-Sep-2024\
 0\\# polar def2tzvp apfd int=(grid=ultrafine)\\5g6q_II_S\\0,1\Fe,0,-0.
 1300028112,17.3167134281,22.1585433475\N,0,0.305414645,15.503442168,22
 .934602504\N,0,-0.9986840602,17.8088864352,23.9536789986\N,0,-0.454289
 872,19.1904053814,21.5936952362\N,0,0.970765363,16.8973399899,20.59865
 43943\C,0,1.2187493461,14.6173520051,22.4377465338\C,0,1.5224585286,13
 .5797666892,23.3921714053\C,0,0.7715120704,13.8503621722,24.4923444433
 \C,0,0.0375699043,15.0591563475,24.1946955882\C,0,-1.2404438999,16.972
 2064736,25.0006892814\C,0,-1.907246665,17.6608621546,26.0754852343\C,0
 ,-2.087825022,18.9469861861,25.6537342626\C,0,-1.5110834172,19.0143828
 995,24.3262024454\C,0,-0.9072431434,20.2540005425,22.3131704079\C,0,-0
 .72720781,21.4843719653,21.5903696815\C,0,-0.1573950282,21.1459720581,
 20.3919377489\C,0,0.027384938,19.7092543905,20.428868598\C,0,1.1117432
 459,17.7035375033,19.5081226813\C,0,1.947219087,17.0688730661,18.51420
 23343\C,0,2.302515713,15.8588432548,19.0265117694\C,0,1.6743505905,15.
 7642148127,20.323649734\C,0,1.8045464623,14.6929938244,21.1858193843\H
 ,0,2.4500501221,13.8829691432,20.8841670287\C,0,-0.7946321733,15.67049
 18321,25.1081492064\H,0,-0.9982091266,15.1481751872,26.0295607043\C,0,
 -1.457292638,20.1703593154,23.5777169816\H,0,-1.8181700014,21.07793726
 28,24.0341789739\C,0,0.6328239368,18.9961481394,19.4079081927\H,0,0.86
 27520261,19.5334766571,18.5008868022\C,0,0.6943035327,13.1172587394,25
 .7866138072\H,0,1.320128415,12.228707909,25.7633011143\H,0,-0.33091310
 65,12.8095822611,25.9928976617\H,0,1.0297064801,13.751430711,26.607303
 2981\C,0,2.4884523352,12.4717023388,23.1525178879\H,0,3.4843703001,12.
 8683408027,22.9553092966\H,0,2.184106898,11.8762639045,22.2913534456\H
 ,0,2.5461896192,11.8169298621,24.0182377291\C,0,-2.325276083,17.040236
 3235,27.3625977298\H,0,-1.4602658015,16.6538549686,27.9027324392\H,0,-
 3.0098474876,16.2111224044,27.1835717218\H,0,-2.8290286745,17.77087505
 75,27.9901011541\C,0,-2.7358163962,20.0226175955,26.380396888\H,0,-2.4
 988114496,20.0750526312,27.437549243\C,0,-3.6001242424,20.8876565689,2
 5.8644667836\H,0,-3.9074241313,20.8409741613,24.8333226274\H,0,-4.0521
 741905,21.6593869392,26.4652759748\C,0,-1.0506361535,22.8370587081,22.
 1183925579\H,0,-0.8024418774,22.9063176087,23.1762829342\H,0,-2.114479
 7198,23.0521184628,22.0063940995\H,0,-0.4875499635,23.5937838001,21.57
 62226782\C,0,0.2536027288,22.0057924962,19.3025645044\H,0,1.1451950859
 ,21.6971109784,18.7698112729\C,0,-0.3757330111,23.112189676,18.9220845
 102\H,0,-1.2887719839,23.4401794248,19.3873711019\H,0,-0.0093328864,23
 .7170520413,18.1094975081\C,0,2.3181385364,17.6872129137,17.2110827371
 \H,0,2.9262220645,18.5780303823,17.3708956637\H,0,1.4265333533,17.9813
 726934,16.6574751032\H,0,2.8879061213,16.9906958945,16.6012609228\C,0,
 3.1656967158,14.797768431,18.436998354\H,0,4.0472027681,14.6347379921,
 19.0573844875\H,0,3.496555007,15.077890663,17.440249207\H,0,2.62248448
 93,13.855012247,18.3678609691\C,0,-1.8339386376,14.9161908866,20.53883
 34086\H,0,-0.8412342947,14.8344507757,20.1079289371\H,0,-2.6034005807,
 14.6708863238,19.8133239507\H,0,-1.9121788552,14.266492214,21.40443156
 75\S,0,-2.1022455176,16.6217545919,21.146110242\H,0,-1.9412997171,17.2
 004263307,19.9475305756\\Version=ES64L-G16RevC.02\State=1-A\HF=-3080.7
 657424\RMSD=1.165e-09\Dipole=-0.0319909,-0.916508,-0.4124665\Polar=372
 .134225,-127.3585294,648.4625673,-135.9302951,-62.7737859,595.3667323\
 HyperPolar=-101.8391996,51.1068515,70.6873254,945.042668,256.8557753,-
 129.9989545,-427.2416297,-217.6744552,282.4303074,241.1675437\Quadrupo
 le=-7.612392,2.9309428,4.6814492,-3.7339929,-3.4399125,-0.1417751\PG=C
 01 [X(C31H32Fe1N4S1)]\\@
 The archive entry for this job was punched.


 We're simply so accustomed to the marvels of everyday thought
 that we never wonder about it.
 -- Marvin Minsky in "Why people think computers are smart"
 Job cpu time:       1 days 15 hours  9 minutes 19.4 seconds.
 Elapsed time:       0 days  0 hours 34 minutes 17.2 seconds.
 File lengths (MBytes):  RWF=    952 Int=      0 D2E=      0 Chk=    122 Scr=      1
 Normal termination of Gaussian 16 at Sun Sep 29 00:38:08 2024.
 Initial command:
 /sw/chem/gaussian/g16_C02/a100/g16/l1.exe "/local/becsleip_8032219/Gau-3407378.inp" -scrdir="/local/becsleip_8032219/"
 Entering Link 1 = /sw/chem/gaussian/g16_C02/a100/g16/l1.exe PID=   3408883.
  
 Copyright (c) 1988-2021, Gaussian, Inc.  All Rights Reserved.
  
 This is part of the Gaussian(R) 16 program.  It is based on
 the Gaussian(R) 09 system (copyright 2009, Gaussian, Inc.),
 the Gaussian(R) 03 system (copyright 2003, Gaussian, Inc.),
 the Gaussian(R) 98 system (copyright 1998, Gaussian, Inc.),
 the Gaussian(R) 94 system (copyright 1995, Gaussian, Inc.),
 the Gaussian 92(TM) system (copyright 1992, Gaussian, Inc.),
 the Gaussian 90(TM) system (copyright 1990, Gaussian, Inc.),
 the Gaussian 88(TM) system (copyright 1988, Gaussian, Inc.),
 the Gaussian 86(TM) system (copyright 1986, Carnegie Mellon
 University), and the Gaussian 82(TM) system (copyright 1983,
 Carnegie Mellon University). Gaussian is a federally registered
 trademark of Gaussian, Inc.
  
 This software contains proprietary and confidential information,
 including trade secrets, belonging to Gaussian, Inc.
  
 This software is provided under written license and may be
 used, copied, transmitted, or stored only in accord with that
 written license.
  
 The following legend is applicable only to US Government
 contracts under FAR:
  
                    RESTRICTED RIGHTS LEGEND
  
 Use, reproduction and disclosure by the US Government is
 subject to restrictions as set forth in subparagraphs (a)
 and (c) of the Commercial Computer Software - Restricted
 Rights clause in FAR 52.227-19.
  
 Gaussian, Inc.
 340 Quinnipiac St., Bldg. 40, Wallingford CT 06492
  
  
 ---------------------------------------------------------------
 Warning -- This program may not be used in any manner that
 competes with the business of Gaussian, Inc. or will provide
 assistance to any competitor of Gaussian, Inc.  The licensee
 of this program is prohibited from giving any competitor of
 Gaussian, Inc. access to this program.  By using this program,
 the user acknowledges that Gaussian, Inc. is engaged in the
 business of creating and licensing software in the field of
 computational chemistry and represents and warrants to the
 licensee that it is not a competitor of Gaussian, Inc. and that
 it will not use this program in any manner prohibited above.
 ---------------------------------------------------------------
  

 Cite this work as:
 Gaussian 16, Revision C.02,
 M. J. Frisch, G. W. Trucks, H. B. Schlegel, G. E. Scuseria, 
 M. A. Robb, J. R. Cheeseman, G. Scalmani, V. Barone, 
 G. A. Petersson, H. Nakatsuji, X. Li, M. Caricato, A. V. Marenich, 
 J. Bloino, B. G. Janesko, R. Gomperts, B. Mennucci, H. P. Hratchian, 
 J. V. Ortiz, A. F. Izmaylov, J. L. Sonnenberg, D. Williams-Young, 
 F. Ding, F. Lipparini, F. Egidi, J. Goings, B. Peng, A. Petrone, 
 T. Henderson, D. Ranasinghe, V. G. Zakrzewski, J. Gao, N. Rega, 
 G. Zheng, W. Liang, M. Hada, M. Ehara, K. Toyota, R. Fukuda, 
 J. Hasegawa, M. Ishida, T. Nakajima, Y. Honda, O. Kitao, H. Nakai, 
 T. Vreven, K. Throssell, J. A. Montgomery, Jr., J. E. Peralta, 
 F. Ogliaro, M. J. Bearpark, J. J. Heyd, E. N. Brothers, K. N. Kudin, 
 V. N. Staroverov, T. A. Keith, R. Kobayashi, J. Normand, 
 K. Raghavachari, A. P. Rendell, J. C. Burant, S. S. Iyengar, 
 J. Tomasi, M. Cossi, J. M. Millam, M. Klene, C. Adamo, R. Cammi, 
 J. W. Ochterski, R. L. Martin, K. Morokuma, O. Farkas, 
 J. B. Foresman, and D. J. Fox, Gaussian, Inc., Wallingford CT, 2019.
 
 ******************************************
 Gaussian 16:  ES64L-G16RevC.02  7-Dec-2021
                29-Sep-2024 
 ******************************************
 %mem=16GB
 %CPU=0-71
 SetSPE:  set environment variable "OMP_PROC_BIND" = "true"
 SetSPE:  set environment variable "OMP_PLACES" = "{0},{1},{2},{3},{4},{5},{6},{7},{8},{9},{10},{11},{12},{13},{14},{15},{16},{17},{18},{19},{20},{21},{22},{23},{24},{25},{26},{27},{28},{29},{30},{31},{32},{33},{34},{35},{36},{37},{38},{39},{40},{41},{42},{43},{44},{45},{46},{47},{48},{49},{50},{51},{52},{53},{54},{55},{56},{57},{58},{59},{60},{61},{62},{63},{64},{65},{66},{67},{68},{69},{70},{71}"
 Will use up to   72 processors via shared memory.
 %gpucpu=0,1,2,3=0,1,2,3
 Will use    4 GPUs:
 Thread  CPU   GPU
      0    0     0
      1    1     1
      2    2     2
      3    3     3
      4    4    -1
      5    5    -1
      6    6    -1
      7    7    -1
      8    8    -1
      9    9    -1
     10   10    -1
     11   11    -1
     12   12    -1
     13   13    -1
     14   14    -1
     15   15    -1
     16   16    -1
     17   17    -1
     18   18    -1
     19   19    -1
     20   20    -1
     21   21    -1
     22   22    -1
     23   23    -1
     24   24    -1
     25   25    -1
     26   26    -1
     27   27    -1
     28   28    -1
     29   29    -1
     30   30    -1
     31   31    -1
     32   32    -1
     33   33    -1
     34   34    -1
     35   35    -1
     36   36    -1
     37   37    -1
     38   38    -1
     39   39    -1
     40   40    -1
     41   41    -1
     42   42    -1
     43   43    -1
     44   44    -1
     45   45    -1
     46   46    -1
     47   47    -1
     48   48    -1
     49   49    -1
     50   50    -1
     51   51    -1
     52   52    -1
     53   53    -1
     54   54    -1
     55   55    -1
     56   56    -1
     57   57    -1
     58   58    -1
     59   59    -1
     60   60    -1
     61   61    -1
     62   62    -1
     63   63    -1
     64   64    -1
     65   65    -1
     66   66    -1
     67   67    -1
     68   68    -1
     69   69    -1
     70   70    -1
     71   71    -1
 SetGPE:  set environment variable "OMP_PROC_BIND" = "true"
 SetGPE:  set environment variable "OMP_PLACES" = "{0},{1},{2},{3},{4},{5},{6},{7},{8},{9},{10},{11},{12},{13},{14},{15},{16},{17},{18},{19},{20},{21},{22},{23},{24},{25},{26},{27},{28},{29},{30},{31},{32},{33},{34},{35},{36},{37},{38},{39},{40},{41},{42},{43},{44},{45},{46},{47},{48},{49},{50},{51},{52},{53},{54},{55},{56},{57},{58},{59},{60},{61},{62},{63},{64},{65},{66},{67},{68},{69},{70},{71}"
 %oldchk=5g6q_II_O.chk
 %chk=5g6q_II_Sn.chk
 Properties for Device   0
 Minimum vector length:                              32
 Maximum vector length:                            1024
 Number of SMPs:                                    108
 Maximum number of threads per SMP:                2048
 Number of ASync Engines:                             5
 Memory:                                           9207742464
 Properties for Device   1
 Minimum vector length:                              32
 Maximum vector length:                            1024
 Number of SMPs:                                    108
 Maximum number of threads per SMP:                2048
 Number of ASync Engines:                             5
 Memory:                                           9207742464
 Properties for Device   2
 Minimum vector length:                              32
 Maximum vector length:                            1024
 Number of SMPs:                                    108
 Maximum number of threads per SMP:                2048
 Number of ASync Engines:                             5
 Memory:                                           9207742464
 Properties for Device   3
 Minimum vector length:                              32
 Maximum vector length:                            1024
 Number of SMPs:                                    108
 Maximum number of threads per SMP:                2048
 Number of ASync Engines:                             5
 Memory:                                           9207742464
   8286968217 words of memory will be used on each GPU.
 Copying data from "5g6q_II_O.chk" to current chk file "5g6q_II_Sn.chk"
 IOpt=  2 FromEx=T IUOpen= 4 IOptOp= 5 NList=   0 IFRang= 0 IUIn= 4 IUOut= 2.
 ----------------------------------------------------------------------
 # apfd/def2TZVP int=(grid=ultrafine) geom=check guess=read pop=nbo scf
 =qc
 ----------------------------------------------------------------------
 1/29=2,38=1,172=1/1;
 2/12=2,40=1/2;
 3/5=44,7=101,11=2,14=-4,25=1,30=1,74=-44,75=-5,116=-2/1,2,3;
 4/5=1/1;
 5/5=2,8=3,38=6/8;
 6/7=2,8=2,9=2,10=2,28=1,40=1/1,7;
 99/5=1,9=1/99;
 -------------
 5g6q_II_S_nbo
 -------------
 Structure from the checkpoint file:  "5g6q_II_Sn.chk"
 Charge =  0 Multiplicity = 1
 Z-Matrix found in chk file.
 Fe,0,-0.1300028112,17.3167134281,22.1585433475
 N,0,0.305414645,15.503442168,22.934602504
 N,0,-0.9986840602,17.8088864352,23.9536789986
 N,0,-0.454289872,19.1904053814,21.5936952362
 N,0,0.970765363,16.8973399899,20.5986543943
 C,0,1.2187493461,14.6173520051,22.4377465338
 C,0,1.5224585286,13.5797666892,23.3921714053
 C,0,0.7715120704,13.8503621722,24.4923444433
 C,0,0.0375699043,15.0591563475,24.1946955882
 C,0,-1.2404438999,16.9722064736,25.0006892814
 C,0,-1.907246665,17.6608621546,26.0754852343
 C,0,-2.087825022,18.9469861861,25.6537342626
[...]
  1065. RY*(  14) C  51                  0.00001     1.81653   
  1066. RY*(  15) C  51                  0.00001     2.89943   
  1067. RY*(  16) C  51                  0.00001     1.89492   
  1068. RY*(  17) C  51                  0.00000    20.91882   
  1069. RY*(  18) C  51                  0.00000     2.90333   
  1070. RY*(  19) C  51                  0.00000     3.40143   
  1071. RY*(  20) C  51                  0.00000     3.44806   
  1072. RY*(  21) C  51                  0.00000     3.43128   
  1073. RY*(  22) C  51                  0.00000     3.46143   
  1074. RY*(  23) C  51                  0.00000     3.60929   
  1075. RY*(  24) C  51                  0.00000     3.71894   
  1076. RY*(  25) C  51                  0.00000     3.86251   
  1077. RY*(  26) C  51                  0.00000     3.92073   
  1078. RY*(   1) H  52                  0.00132     0.68753   
  1079. RY*(   2) H  52                  0.00023     2.25964   
  1080. RY*(   3) H  52                  0.00013     2.32352   
  1081. RY*(   4) H  52                  0.00010     2.72747   
  1082. RY*(   5) H  52                  0.00001     3.12022   
  1083. RY*(   1) C  53                  0.00230     1.27508   
  1084. RY*(   2) C  53                  0.00139     0.96248   
  1085. RY*(   3) C  53                  0.00107     0.62793   
  1086. RY*(   4) C  53                  0.00028     1.00832   
  1087. RY*(   5) C  53                  0.00016     1.05612   
  1088. RY*(   6) C  53                  0.00005     1.44277   
  1089. RY*(   7) C  53                  0.00004     1.55077   
  1090. RY*(   8) C  53                  0.00001     1.32273   
  1091. RY*(   9) C  53                  0.00000     1.60666   
  1092. RY*(  10) C  53                  0.00001     1.74063   
  1093. RY*(  11) C  53                  0.00000     2.87320   
  1094. RY*(  12) C  53                  0.00001     1.56685   
  1095. RY*(  13) C  53                  0.00001     2.17065   
  1096. RY*(  14) C  53                  0.00001     2.24859   
  1097. RY*(  15) C  53                  0.00000     2.90265   
  1098. RY*(  16) C  53                  0.00000    20.94951   
  1099. RY*(  17) C  53                  0.00000     2.97427   
  1100. RY*(  18) C  53                  0.00000     2.91255   
  1101. RY*(  19) C  53                  0.00000     3.14386   
  1102. RY*(  20) C  53                  0.00000     3.34605   
  1103. RY*(  21) C  53                  0.00000     3.47799   
  1104. RY*(  22) C  53                  0.00000     3.20033   
  1105. RY*(  23) C  53                  0.00000     3.40263   
  1106. RY*(  24) C  53                  0.00000     3.55514   
  1107. RY*(  25) C  53                  0.00000     3.72582   
  1108. RY*(  26) C  53                  0.00000     3.72562   
  1109. RY*(   1) H  54                  0.00069     1.02625   
  1110. RY*(   2) H  54                  0.00030     1.66564   
  1111. RY*(   3) H  54                  0.00019     2.17850   
  1112. RY*(   4) H  54                  0.00006     2.39142   
  1113. RY*(   5) H  54                  0.00001     3.11169   
  1114. RY*(   1) H  55                  0.00046     0.73709   
  1115. RY*(   2) H  55                  0.00031     1.80892   
  1116. RY*(   3) H  55                  0.00015     2.12264   
  1117. RY*(   4) H  55                  0.00006     2.50112   
  1118. RY*(   5) H  55                  0.00001     3.06630   
  1119. RY*(   1) C  56                  0.00143     1.15411   
  1120. RY*(   2) C  56                  0.00144     1.33924   
  1121. RY*(   3) C  56                  0.00073     1.37706   
  1122. RY*(   4) C  56                  0.00014     1.08661   
  1123. RY*(   5) C  56                  0.00005     1.94553   
  1124. RY*(   6) C  56                  0.00005     1.53007   
  1125. RY*(   7) C  56                  0.00003     2.10169   
  1126. RY*(   8) C  56                  0.00002     2.39841   
  1127. RY*(   9) C  56                  0.00001     3.29352   
  1128. RY*(  10) C  56                  0.00001     1.69650   
  1129. RY*(  11) C  56                  0.00001     2.97510   
  1130. RY*(  12) C  56                  0.00000     3.10203   
  1131. RY*(  13) C  56                  0.00000     2.25098   
  1132. RY*(  14) C  56                  0.00000     1.98977   
  1133. RY*(  15) C  56                  0.00000     2.44577   
  1134. RY*(  16) C  56                  0.00000    21.15631   
  1135. RY*(  17) C  56                  0.00000     2.72951   
  1136. RY*(  18) C  56                  0.00000     3.01628   
  1137. RY*(  19) C  56                  0.00000     2.27116   
  1138. RY*(  20) C  56                  0.00000     3.21424   
  1139. RY*(  21) C  56                  0.00000     3.79681   
  1140. RY*(  22) C  56                  0.00000     3.61822   
  1141. RY*(  23) C  56                  0.00000     3.35269   
  1142. RY*(  24) C  56                  0.00000     3.38747   
  1143. RY*(  25) C  56                  0.00000     3.45488   
  1144. RY*(  26) C  56                  0.00000     3.76453   
  1145. RY*(   1) H  57                  0.00093     0.93942   
  1146. RY*(   2) H  57                  0.00017     1.81089   
  1147. RY*(   3) H  57                  0.00007     2.12945   
  1148. RY*(   4) H  57                  0.00005     1.98312   
  1149. RY*(   5) H  57                  0.00001     2.97456   
  1150. RY*(   1) H  58                  0.00082     0.91665   
  1151. RY*(   2) H  58                  0.00018     1.83232   
  1152. RY*(   3) H  58                  0.00006     2.10516   
  1153. RY*(   4) H  58                  0.00006     2.01847   
  1154. RY*(   5) H  58                  0.00001     2.96231   
  1155. RY*(   1) H  59                  0.00072     0.85601   
  1156. RY*(   2) H  59                  0.00013     1.70227   
  1157. RY*(   3) H  59                  0.00011     2.15546   
  1158. RY*(   4) H  59                  0.00007     2.08349   
  1159. RY*(   5) H  59                  0.00001     2.98533   
  1160. RY*(   1) C  60                  0.00145     1.33393   
  1161. RY*(   2) C  60                  0.00140     1.16921   
  1162. RY*(   3) C  60                  0.00072     1.37673   
  1163. RY*(   4) C  60                  0.00014     1.09306   
  1164. RY*(   5) C  60                  0.00005     1.93342   
  1165. RY*(   6) C  60                  0.00005     1.52196   
  1166. RY*(   7) C  60                  0.00003     2.14014   
  1167. RY*(   8) C  60                  0.00001     1.63955   
  1168. RY*(   9) C  60                  0.00001     3.23163   
  1169. RY*(  10) C  60                  0.00000    21.08992   
  1170. RY*(  11) C  60                  0.00001     2.71128   
  1171. RY*(  12) C  60                  0.00000     2.54021   
  1172. RY*(  13) C  60                  0.00000     2.31979   
  1173. RY*(  14) C  60                  0.00000     2.49432   
  1174. RY*(  15) C  60                  0.00000     2.43517   
  1175. RY*(  16) C  60                  0.00001     1.76738   
  1176. RY*(  17) C  60                  0.00000     3.08693   
  1177. RY*(  18) C  60                  0.00000     3.21637   
  1178. RY*(  19) C  60                  0.00001     2.56083   
  1179. RY*(  20) C  60                  0.00000     3.27714   
  1180. RY*(  21) C  60                  0.00000     3.81928   
  1181. RY*(  22) C  60                  0.00000     3.52629   
  1182. RY*(  23) C  60                  0.00000     3.39458   
  1183. RY*(  24) C  60                  0.00000     3.37360   
  1184. RY*(  25) C  60                  0.00000     3.76652   
  1185. RY*(  26) C  60                  0.00001     3.70716   
  1186. RY*(   1) H  61                  0.00092     0.90747   
  1187. RY*(   2) H  61                  0.00017     1.80859   
  1188. RY*(   3) H  61                  0.00007     2.13672   
  1189. RY*(   4) H  61                  0.00005     1.99359   
  1190. RY*(   5) H  61                  0.00001     2.96848   
  1191. RY*(   1) H  62                  0.00071     0.84969   
  1192. RY*(   2) H  62                  0.00013     1.70848   
  1193. RY*(   3) H  62                  0.00011     2.15811   
  1194. RY*(   4) H  62                  0.00007     2.07791   
  1195. RY*(   5) H  62                  0.00001     2.99090   
  1196. RY*(   1) H  63                  0.00086     0.90567   
  1197. RY*(   2) H  63                  0.00018     1.83581   
  1198. RY*(   3) H  63                  0.00007     2.14135   
  1199. RY*(   4) H  63                  0.00005     1.97496   
  1200. RY*(   5) H  63                  0.00001     2.96894   
  1276. BD*(   1) N   2 - C   6          0.02603     0.49345   
  1277. BD*(   1) N   2 - C   9          0.02617     0.49918   
  1278. BD*(   2) N   2 - C   9          0.63148     0.00369  1298(v),1291(v),1289(v)
                                                    361(g),142(r),1283(r),177(g)
                                                    728(v),138(r),1275(r),139(r)
                                                    141(r)
  1279. BD*(   1) N   3 - C  10          0.02537     0.50289   
  1280. BD*(   1) N   3 - C  13          0.02478     0.50388   
  1281. BD*(   1) N   4 - C  14          0.02701     0.50088   
  1282. BD*(   1) N   4 - C  17          0.02637     0.49687   
  1283. BD*(   2) N   4 - C  17          0.61829     0.00282  1316(v),1309(v),148(v)
                                                    142(r),1278(r),569(g),229(g)
                                                    790(v),138(r),1275(r)
                                                    1358(r)
  1284. BD*(   1) N   5 - C  18          0.02723     0.49676   
  1285. BD*(   1) N   5 - C  21          0.02727     0.49854   
  1286. BD*(   2) N   5 - C  21          0.64017     0.00120  1289(v),1318(v),1316(v)
                                                    673(g),142(r),255(g),697(v)
                                                    138(r),139(r),1355(r)
                                                    1275(r),140(r)
  1287. BD*(   1) C   6 - C   7          0.03525     0.49273   
  1288. BD*(   1) C   6 - C  22          0.02102     0.57099   
  1289. BD*(   2) C   6 - C  22          0.41618     0.04222  1286(v),1291(v),1278(v)
                                                    697(g),1316(r),1298(r)
                                                    283(g),285(g),142(r)
  1290. BD*(   1) C   7 - C   8          0.02282     0.60601   
  1291. BD*(   2) C   7 - C   8          0.25138     0.06707  1289(v),1278(v),1329(v)
                                                    1330(v),1331(v),1328(v)
  1292. BD*(   1) C   7 - C  34          0.01726     0.41250   
  1293. BD*(   1) C   8 - C   9          0.03567     0.48913   
  1294. BD*(   1) C   8 - C  30          0.01712     0.41302   
  1295. BD*(   1) C   9 - C  24          0.02107     0.57918   
  1296. BD*(   1) C  10 - C  11          0.03511     0.49471   
  1297. BD*(   1) C  10 - C  24          0.02125     0.57559   
  1298. BD*(   2) C  10 - C  24          0.41572     0.04623  1300(v),1278(v),145(v)
                                                    1305(r),728(g),1289(r)
                                                    388(g),389(g),142(r)
  1299. BD*(   1) C  11 - C  12          0.02229     0.59371   
  1300. BD*(   2) C  11 - C  12          0.27511     0.06499  1338(v),1305(v),1298(v)
                                                    1333(v),1334(v),1336(v)
  1301. BD*(   1) C  11 - C  38          0.01664     0.41410   
  1302. BD*(   1) C  12 - C  13          0.03861     0.48645   
  1303. BD*(   1) C  12 - C  42          0.02678     0.48969   
  1304. BD*(   1) C  13 - C  26          0.02049     0.58133   
  1305. BD*(   2) C  13 - C  26          0.39398     0.04875  1300(v),148(v),145(v)
                                                    1298(r),1338(r),760(g)
                                                    467(g),465(g),142(r)
  1306. BD*(   1) C  14 - C  15          0.03395     0.49840   
  1307. BD*(   1) C  14 - C  26          0.02160     0.57790   
  1308. BD*(   1) C  15 - C  16          0.02493     0.59028   
  1309. BD*(   2) C  15 - C  16          0.28715     0.06428  1346(v),1283(v),148(v)
                                                    1342(v),1341(v),1344(v)
  1310. BD*(   1) C  15 - C  47          0.01612     0.41787   
  1311. BD*(   1) C  16 - C  17          0.03502     0.48561   
  1312. BD*(   1) C  16 - C  51          0.02670     0.49385   
  1313. BD*(   1) C  17 - C  28          0.02081     0.56927   
  1314. BD*(   1) C  18 - C  19          0.03503     0.48826   
  1315. BD*(   1) C  18 - C  28          0.02119     0.57188   
  1316. BD*(   2) C  18 - C  28          0.40905     0.04396  1283(v),1318(v),1286(v)
                                                    1289(r),790(g),142(r)
  1317. BD*(   1) C  19 - C  20          0.02267     0.60236   
  1318. BD*(   2) C  19 - C  20          0.25125     0.06537  1316(v),1286(v),1349(v)
                                                    1352(v),1354(v),1350(v)
  1319. BD*(   1) C  19 - C  56          0.01703     0.41227   
  1320. BD*(   1) C  20 - C  21          0.03475     0.48992   
  1321. BD*(   1) C  20 - C  60          0.01709     0.41167   
  1322. BD*(   1) C  21 - C  22          0.02102     0.57460   
  1323. BD*(   1) C  22 - H  23          0.01271     0.43184   
  1324. BD*(   1) C  24 - H  25          0.01275     0.43077   
  1325. BD*(   1) C  26 - H  27          0.01459     0.43921   
  1326. BD*(   1) C  28 - H  29          0.01296     0.43230   
  1327. BD*(   1) C  30 - H  31          0.00672     0.38866   
  1328. BD*(   1) C  30 - H  32          0.01045     0.37713   
  1329. BD*(   1) C  30 - H  33          0.01104     0.37836   
  1330. BD*(   1) C  34 - H  35          0.01083     0.37804   
  1331. BD*(   1) C  34 - H  36          0.01064     0.37605   
  1332. BD*(   1) C  34 - H  37          0.00664     0.38841   
  1333. BD*(   1) C  38 - H  39          0.01076     0.37733   
  1334. BD*(   1) C  38 - H  40          0.01036     0.37923   
  1335. BD*(   1) C  38 - H  41          0.00597     0.39051   
  1336. BD*(   1) C  42 - H  43          0.02196     0.42043   
  1337. BD*(   1) C  42 - C  44          0.00717     0.62024   
  1338. BD*(   2) C  42 - C  44          0.06336     0.06728   
  1339. BD*(   1) C  44 - H  45          0.01133     0.43389   
  1340. BD*(   1) C  44 - H  46          0.00894     0.43435   
  1341. BD*(   1) C  47 - H  48          0.00989     0.38826   
  1342. BD*(   1) C  47 - H  49          0.01220     0.37839   
  1343. BD*(   1) C  47 - H  50          0.00796     0.39415   
  1344. BD*(   1) C  51 - H  52          0.02145     0.42275   
  1345. BD*(   1) C  51 - C  53          0.00774     0.63111   
  1346. BD*(   2) C  51 - C  53          0.07394     0.05798   
  1347. BD*(   1) C  53 - H  54          0.01098     0.43472   
  1348. BD*(   1) C  53 - H  55          0.00858     0.43487   
  1349. BD*(   1) C  56 - H  57          0.01134     0.37653   
  1350. BD*(   1) C  56 - H  58          0.01012     0.37750   
  1351. BD*(   1) C  56 - H  59          0.00666     0.38771   
  1352. BD*(   1) C  60 - H  61          0.01110     0.37639   
  1353. BD*(   1) C  60 - H  62          0.00658     0.38744   
  1354. BD*(   1) C  60 - H  63          0.01050     0.37576   
       -------------------------------
              Total Lewis  230.25834  ( 97.2785%)
        Valence non-Lewis    5.95749  (  2.5169%)
        Rydberg non-Lewis    0.48433  (  0.2046%)
       -------------------------------
            Total unit  2  236.70016  (100.0000%)
           Charge unit  2   -0.70016
 Unable to Open any file for archive entry.
 1\1\GINC-BGN1007\SP\RAPFD\def2TZVP\C31H32Fe1N4S1\BECSLEIP\29-Sep-2024\
 0\\# apfd/def2TZVP int=(grid=ultrafine) geom=check guess=read pop=nbo 
 scf=qc\\5g6q_II_S_nbo\\0,1\Fe,0,-0.1300028112,17.3167134281,22.1585433
 475\N,0,0.305414645,15.503442168,22.934602504\N,0,-0.9986840602,17.808
 8864352,23.9536789986\N,0,-0.454289872,19.1904053814,21.5936952362\N,0
 ,0.970765363,16.8973399899,20.5986543943\C,0,1.2187493461,14.617352005
 1,22.4377465338\C,0,1.5224585286,13.5797666892,23.3921714053\C,0,0.771
 5120704,13.8503621722,24.4923444433\C,0,0.0375699043,15.0591563475,24.
 1946955882\C,0,-1.2404438999,16.9722064736,25.0006892814\C,0,-1.907246
 665,17.6608621546,26.0754852343\C,0,-2.087825022,18.9469861861,25.6537
 342626\C,0,-1.5110834172,19.0143828995,24.3262024454\C,0,-0.9072431434
 ,20.2540005425,22.3131704079\C,0,-0.72720781,21.4843719653,21.59036968
 15\C,0,-0.1573950282,21.1459720581,20.3919377489\C,0,0.027384938,19.70
 92543905,20.428868598\C,0,1.1117432459,17.7035375033,19.5081226813\C,0
 ,1.947219087,17.0688730661,18.5142023343\C,0,2.302515713,15.8588432548
 ,19.0265117694\C,0,1.6743505905,15.7642148127,20.323649734\C,0,1.80454
 64623,14.6929938244,21.1858193843\H,0,2.4500501221,13.8829691432,20.88
 41670287\C,0,-0.7946321733,15.6704918321,25.1081492064\H,0,-0.99820912
 66,15.1481751872,26.0295607043\C,0,-1.457292638,20.1703593154,23.57771
 69816\H,0,-1.8181700014,21.0779372628,24.0341789739\C,0,0.6328239368,1
 8.9961481394,19.4079081927\H,0,0.8627520261,19.5334766571,18.500886802
 2\C,0,0.6943035327,13.1172587394,25.7866138072\H,0,1.320128415,12.2287
 07909,25.7633011143\H,0,-0.3309131065,12.8095822611,25.9928976617\H,0,
 1.0297064801,13.751430711,26.6073032981\C,0,2.4884523352,12.4717023388
 ,23.1525178879\H,0,3.4843703001,12.8683408027,22.9553092966\H,0,2.1841
 06898,11.8762639045,22.2913534456\H,0,2.5461896192,11.8169298621,24.01
 82377291\C,0,-2.325276083,17.0402363235,27.3625977298\H,0,-1.460265801
 5,16.6538549686,27.9027324392\H,0,-3.0098474876,16.2111224044,27.18357
 17218\H,0,-2.8290286745,17.7708750575,27.9901011541\C,0,-2.7358163962,
 20.0226175955,26.380396888\H,0,-2.4988114496,20.0750526312,27.43754924
 3\C,0,-3.6001242424,20.8876565689,25.8644667836\H,0,-3.9074241313,20.8
 409741613,24.8333226274\H,0,-4.0521741905,21.6593869392,26.4652759748\
 C,0,-1.0506361535,22.8370587081,22.1183925579\H,0,-0.8024418774,22.906
 3176087,23.1762829342\H,0,-2.1144797198,23.0521184628,22.0063940995\H,
 0,-0.4875499635,23.5937838001,21.5762226782\C,0,0.2536027288,22.005792
 4962,19.3025645044\H,0,1.1451950859,21.6971109784,18.7698112729\C,0,-0
 .3757330111,23.112189676,18.9220845102\H,0,-1.2887719839,23.4401794248
 ,19.3873711019\H,0,-0.0093328864,23.7170520413,18.1094975081\C,0,2.318
 1385364,17.6872129137,17.2110827371\H,0,2.9262220645,18.5780303823,17.
 3708956637\H,0,1.4265333533,17.9813726934,16.6574751032\H,0,2.88790612
 13,16.9906958945,16.6012609228\C,0,3.1656967158,14.797768431,18.436998
 354\H,0,4.0472027681,14.6347379921,19.0573844875\H,0,3.496555007,15.07
 7890663,17.440249207\H,0,2.6224844893,13.855012247,18.3678609691\C,0,-
 1.8339386376,14.9161908866,20.5388334086\H,0,-0.8412342947,14.83445077
 57,20.1079289371\H,0,-2.6034005807,14.6708863238,19.8133239507\H,0,-1.
 9121788552,14.266492214,21.4044315675\S,0,-2.1022455176,16.6217545919,
 21.146110242\H,0,-1.9412997171,17.2004263307,19.9475305756\\Version=ES
 64L-G16RevC.02\State=1-A\HF=-3080.7657424\RMSD=3.896e-10\Dipole=-0.031
 9909,-0.916508,-0.4124665\Quadrupole=-7.612392,2.9309428,4.6814492,-3.
 7339929,-3.4399125,-0.1417751\PG=C01 [X(C31H32Fe1N4S1)]\\@
 The archive entry for this job was punched.


 EVERYBODY NEEDS BEAUTY AS WELL AS BREAD, PLACES TO PLAY IN AND PRAY IN,
 WHERE NATURE MAY HEAL AND CHEER AND GIVE STRENGTH TO BODY AND SOUL ALIKE.

                                    -- JOHN MUIR
 Job cpu time:       0 days  0 hours 35 minutes 25.4 seconds.
 Elapsed time:       0 days  0 hours  0 minutes 46.2 seconds.
 File lengths (MBytes):  RWF=    624 Int=      0 D2E=      0 Chk=    150 Scr=      1
 Normal termination of Gaussian 16 at Sun Sep 29 00:38:56 2024.
