 Entering Gaussian System, Link 0=g16
 Input=5ibj01.com
 Output=5ibj01.log
 Initial command:
 /sw/chem/gaussian/g16_C02/a100/g16/l1.exe "/local/becsleip_8034756/Gau-61204.inp" -scrdir="/local/becsleip_8034756/"
 Entering Link 1 = /sw/chem/gaussian/g16_C02/a100/g16/l1.exe PID=     61205.
  
 Copyright (c) 1988-2021, Gaussian, Inc.  All Rights Reserved.
  
 This is part of the Gaussian(R) 16 program.  It is based on
 the Gaussian(R) 09 system (copyright 2009, Gaussian, Inc.),
 the Gaussian(R) 03 system (copyright 2003, Gaussian, Inc.),
 the Gaussian(R) 98 system (copyright 1998, Gaussian, Inc.),
 the Gaussian(R) 94 system (copyright 1995, Gaussian, Inc.),
 the Gaussian 92(TM) system (copyright 1992, Gaussian, Inc.),
 the Gaussian 90(TM) system (copyright 1990, Gaussian, Inc.),
 the Gaussian 88(TM) system (copyright 1988, Gaussian, Inc.),
 the Gaussian 86(TM) system (copyright 1986, Carnegie Mellon
 University), and the Gaussian 82(TM) system (copyright 1983,
 Carnegie Mellon University). Gaussian is a federally registered
 trademark of Gaussian, Inc.
  
 This software contains proprietary and confidential information,
 including trade secrets, belonging to Gaussian, Inc.
  
 This software is provided under written license and may be
 used, copied, transmitted, or stored only in accord with that
 written license.
  
 The following legend is applicable only to US Government
 contracts under FAR:
  
                    RESTRICTED RIGHTS LEGEND
  
 Use, reproduction and disclosure by the US Government is
 subject to restrictions as set forth in subparagraphs (a)
 and (c) of the Commercial Computer Software - Restricted
 Rights clause in FAR 52.227-19.
  
 Gaussian, Inc.
 340 Quinnipiac St., Bldg. 40, Wallingford CT 06492
  
  
 ---------------------------------------------------------------
 Warning -- This program may not be used in any manner that
 competes with the business of Gaussian, Inc. or will provide
 assistance to any competitor of Gaussian, Inc.  The licensee
 of this program is prohibited from giving any competitor of
 Gaussian, Inc. access to this program.  By using this program,
 the user acknowledges that Gaussian, Inc. is engaged in the
 business of creating and licensing software in the field of
 computational chemistry and represents and warrants to the
 licensee that it is not a competitor of Gaussian, Inc. and that
 it will not use this program in any manner prohibited above.
 ---------------------------------------------------------------
  

 Cite this work as:
 Gaussian 16, Revision C.02,
 M. J. Frisch, G. W. Trucks, H. B. Schlegel, G. E. Scuseria, 
 M. A. Robb, J. R. Cheeseman, G. Scalmani, V. Barone, 
 G. A. Petersson, H. Nakatsuji, X. Li, M. Caricato, A. V. Marenich, 
 J. Bloino, B. G. Janesko, R. Gomperts, B. Mennucci, H. P. Hratchian, 
 J. V. Ortiz, A. F. Izmaylov, J. L. Sonnenberg, D. Williams-Young, 
 F. Ding, F. Lipparini, F. Egidi, J. Goings, B. Peng, A. Petrone, 
 T. Henderson, D. Ranasinghe, V. G. Zakrzewski, J. Gao, N. Rega, 
 G. Zheng, W. Liang, M. Hada, M. Ehara, K. Toyota, R. Fukuda, 
 J. Hasegawa, M. Ishida, T. Nakajima, Y. Honda, O. Kitao, H. Nakai, 
 T. Vreven, K. Throssell, J. A. Montgomery, Jr., J. E. Peralta, 
 F. Ogliaro, M. J. Bearpark, J. J. Heyd, E. N. Brothers, K. N. Kudin, 
 V. N. Staroverov, T. A. Keith, R. Kobayashi, J. Normand, 
 K. Raghavachari, A. P. Rendell, J. C. Burant, S. S. Iyengar, 
 J. Tomasi, M. Cossi, J. M. Millam, M. Klene, C. Adamo, R. Cammi, 
 J. W. Ochterski, R. L. Martin, K. Morokuma, O. Farkas, 
 J. B. Foresman, and D. J. Fox, Gaussian, Inc., Wallingford CT, 2019.
 
 ******************************************
 Gaussian 16:  ES64L-G16RevC.02  7-Dec-2021
                 3-Oct-2024 
 ******************************************
 %mem=16GB
 %CPU=0-71
 SetSPE:  set environment variable "OMP_PROC_BIND" = "true"
 SetSPE:  set environment variable "OMP_PLACES" = "{0},{1},{2},{3},{4},{5},{6},{7},{8},{9},{10},{11},{12},{13},{14},{15},{16},{17},{18},{19},{20},{21},{22},{23},{24},{25},{26},{27},{28},{29},{30},{31},{32},{33},{34},{35},{36},{37},{38},{39},{40},{41},{42},{43},{44},{45},{46},{47},{48},{49},{50},{51},{52},{53},{54},{55},{56},{57},{58},{59},{60},{61},{62},{63},{64},{65},{66},{67},{68},{69},{70},{71}"
 Will use up to   72 processors via shared memory.
 %gpucpu=0,1,2,3=0,1,2,3
 Will use    4 GPUs:
 Thread  CPU   GPU
      0    0     0
      1    1     1
      2    2     2
      3    3     3
      4    4    -1
      5    5    -1
      6    6    -1
      7    7    -1
      8    8    -1
      9    9    -1
     10   10    -1
     11   11    -1
     12   12    -1
     13   13    -1
     14   14    -1
     15   15    -1
     16   16    -1
     17   17    -1
     18   18    -1
     19   19    -1
     20   20    -1
     21   21    -1
     22   22    -1
     23   23    -1
     24   24    -1
     25   25    -1
     26   26    -1
     27   27    -1
     28   28    -1
     29   29    -1
     30   30    -1
     31   31    -1
     32   32    -1
     33   33    -1
     34   34    -1
     35   35    -1
     36   36    -1
     37   37    -1
     38   38    -1
     39   39    -1
     40   40    -1
     41   41    -1
     42   42    -1
     43   43    -1
     44   44    -1
     45   45    -1
     46   46    -1
     47   47    -1
     48   48    -1
     49   49    -1
     50   50    -1
     51   51    -1
     52   52    -1
     53   53    -1
     54   54    -1
     55   55    -1
     56   56    -1
     57   57    -1
     58   58    -1
     59   59    -1
     60   60    -1
     61   61    -1
     62   62    -1
     63   63    -1
     64   64    -1
     65   65    -1
     66   66    -1
     67   67    -1
     68   68    -1
     69   69    -1
     70   70    -1
     71   71    -1
 SetGPE:  set environment variable "OMP_PROC_BIND" = "true"
 SetGPE:  set environment variable "OMP_PLACES" = "{0},{1},{2},{3},{4},{5},{6},{7},{8},{9},{10},{11},{12},{13},{14},{15},{16},{17},{18},{19},{20},{21},{22},{23},{24},{25},{26},{27},{28},{29},{30},{31},{32},{33},{34},{35},{36},{37},{38},{39},{40},{41},{42},{43},{44},{45},{46},{47},{48},{49},{50},{51},{52},{53},{54},{55},{56},{57},{58},{59},{60},{61},{62},{63},{64},{65},{66},{67},{68},{69},{70},{71}"
 %chk=5ibj_II_O.chk
 Properties for Device   0
 Minimum vector length:                              32
 Maximum vector length:                            1024
 Number of SMPs:                                    108
 Maximum number of threads per SMP:                2048
 Number of ASync Engines:                             5
 Memory:                                           9207742464
 Properties for Device   1
 Minimum vector length:                              32
 Maximum vector length:                            1024
 Number of SMPs:                                    108
 Maximum number of threads per SMP:                2048
 Number of ASync Engines:                             5
 Memory:                                           9207742464
 Properties for Device   2
 Minimum vector length:                              32
 Maximum vector length:                            1024
 Number of SMPs:                                    108
 Maximum number of threads per SMP:                2048
 Number of ASync Engines:                             5
 Memory:                                           9207742464
 Properties for Device   3
 Minimum vector length:                              32
 Maximum vector length:                            1024
 Number of SMPs:                                    108
 Maximum number of threads per SMP:                2048
 Number of ASync Engines:                             5
 Memory:                                           9207742464
   8286968217 words of memory will be used on each GPU.
 ------------------------------------------
 # polar def2tzvp apfd int=(grid=ultrafine)
 ------------------------------------------
 1/38=1,172=1/1;
 2/12=2,17=6,18=5,40=1/2;
 3/5=44,7=101,11=2,25=1,30=1,74=-44,75=-5/1,2,3;
 4//1;
 5/5=2,38=5,98=1/2;
 8/6=4,10=90,11=11/1;
 10/6=1,13=10/2;
 6/7=2,8=2,9=2,10=2,28=1/1;
 99/5=1,9=1/99;
 ---------
 5ibj_II_S
 ---------
 Symbolic Z-matrix:
 Charge =  0 Multiplicity = 1
 Fe                   -6.14792   24.57397   7.62552 
 N                    -4.42385   23.53412   7.38002 
 N                    -5.76952   24.63962   9.59418 
 N                    -7.93744   25.38666   7.92177 
 N                    -6.54014   24.30794   5.70128 
 C                    -3.8338    23.23809   6.19232 
 C                    -2.49481   22.73038   6.39513 
 C                    -2.28982   22.72298   7.73902 
 C                    -3.50281   23.23801   8.33512 
 C                    -4.73301   24.07971   10.27771 
 C                    -4.81835   24.38728   11.68061 
 C                    -5.93963   25.15949   11.83971 
 C                    -6.52102   25.29862   10.51991 
 C                    -8.31177   26.08696   9.02809 
 C                    -9.49303   26.86604   8.76615 
 C                    -9.83265   26.61909   7.4612 
 C                    -8.83203   25.70217   6.95386 
 C                    -7.73223   24.54799   5.09204 
 C                    -7.69852   24.11277   3.71185 
 C                    -6.45131   23.61699   3.50009 
 C                    -5.74766   23.73804   4.75907 
 C                    -4.44663   23.31934   4.95688 
 H                    -3.89153   22.9772   4.09737 
 C                    -3.67575   23.40056   9.69553 
 H                    -2.88719   23.05294   10.34454 
 C                    -7.67754   26.01067   10.25676 
 H                    -8.1212    26.55292   11.07757 
 C                    -8.80411   25.20876   5.66111 
 H                    -9.65371   25.41367   5.02818 
 C                    -1.0884    22.29817   8.511 
 H                    -0.29431   21.97513   7.84265 
 H                    -1.33331   21.47003   9.17659 
 H                    -0.71233   23.12098   9.11943 
 C                    -1.5777    22.31799   5.29591 
 H                    -1.44324   23.13173   4.58345 
 H                    -1.98596   21.46205   4.75771 
 H                    -0.60279   22.04039   5.68898 
 C                    -3.88977   23.87325   12.72435 
 H                    -2.99157   24.49016   12.78664 
 H                    -3.58306   22.85327   12.49745 
 H                    -4.37944   23.88276   13.69604 
 C                    -6.49775   25.72149   13.04989 
 H                    -7.57889   25.79209   13.07676 
 C                    -5.79781   26.14903   14.09546 
 H                    -4.72186   26.14714   14.10567 
 H                    -6.28219   26.54412   14.97284 
 C                    -10.13185   27.80286   9.73052 
 H                    -9.38118   28.28747   10.35306 
 H                    -10.82536   27.2744   10.38691 
 H                    -10.68663   28.56882   9.19248 
 C                    -10.92543   27.15546   6.68066 
 H                    -10.72417   27.28163   5.62357 
 C                    -12.12287   27.48468   7.15395 
 H                    -12.3925   27.33852   8.18529 
 H                    -12.88831   27.89166   6.51439 
 C                    -8.84355   24.22991   2.76616 
 H                    -9.08125   25.27847   2.58408 
 H                    -9.73125   23.74836   3.1759 
 H                    -8.60738   23.76336   1.813 
 C                    -5.85928   23.03854   2.26131 
 H                    -4.99901   23.62574   1.9393 
 H                    -6.58696   23.02755   1.45384 
 H                    -5.52408   22.01629   2.43722 
 O                    -7.131     22.62     8.07 
 H                    -7.345     22.632    9.003 
 H                    -7.286     21.952    7.504 
 C                    -3.49859   26.63433   7.96224 
 H                    -3.14437   27.65119   8.10049 
 H                    -2.88351   26.11817   7.23235 
 H                    -3.49817   26.08432   8.89736 
 S                    -5.19281   26.67762   7.27709 
 H                    -5.72698   27.31082   8.32845 
 
 Stoichiometry    C31H34FeN4OS
 Framework group  C1[X(C31H34FeN4OS)]
 Deg. of freedom   210
 Full point group                 C1      NOp   1
 Largest Abelian subgroup         C1      NOp   1
 Largest concise Abelian subgroup C1      NOp   1
                         Standard orientation:                         
 ---------------------------------------------------------------------
 Center     Atomic      Atomic             Coordinates (Angstroms)
 Number     Number       Type             X           Y           Z
 ---------------------------------------------------------------------
      1         26           0        0.042486   -0.190017   -0.115194
      2          7           0       -1.418695   -1.592563   -0.223724
      3          7           0       -1.368839    1.222896   -0.302196
      4          7           0        1.468494    1.188517   -0.244668
      5          7           0        1.388790   -1.644234   -0.118928
      6          6           0       -1.268465   -2.920702    0.021043
      7          6           0       -2.554654   -3.575068    0.117561
      8          6           0       -3.489658   -2.608001   -0.079043
      9          6           0       -2.759589   -1.375763   -0.280387
     10          6           0       -2.709374    1.063881   -0.483118
     11          6           0       -3.373453    2.338823   -0.542649
     12          6           0       -2.398777    3.290129   -0.387936
     13          6           0       -1.151663    2.566609   -0.244941
     14          6           0        1.298470    2.521596   -0.024485
     15          6           0        2.563912    3.169882    0.197661
     16          6           0        3.517570    2.189510    0.104778
     17          6           0        2.801029    0.957637   -0.156822
     18          6           0        2.727527   -1.488133   -0.301358
     19          6           0        3.386734   -2.774446   -0.380836
     20          6           0        2.413623   -3.710254   -0.227645
     21          6           0        1.171529   -2.982740   -0.076867
     22          6           0       -0.059939   -3.587177    0.082112
     23          1           0       -0.082968   -4.659005    0.203027
     24          6           0       -3.367355   -0.154668   -0.496249
     25          1           0       -4.441839   -0.141300   -0.592096
     26          6           0        0.078422    3.175093   -0.070478
     27          1           0        0.087127    4.248512    0.040453
     28          6           0        3.399830   -0.280924   -0.307968
     29          1           0        4.476817   -0.312870   -0.367034
     30          6           0       -4.975629   -2.715860   -0.088201
     31          1           0       -5.289939   -3.736659    0.113807
     32          1           0       -5.375606   -2.420492   -1.058557
     33          1           0       -5.412444   -2.065179    0.669713
     34          6           0       -2.739089   -5.029090    0.384513
     35          1           0       -2.229761   -5.317533    1.303890
     36          1           0       -2.325938   -5.623356   -0.431043
     37          1           0       -3.793751   -5.273467    0.484390
     38          6           0       -4.825837    2.532393   -0.805314
     39          1           0       -5.406275    2.430202    0.113307
     40          1           0       -5.189494    1.793440   -1.517781
     41          1           0       -5.001639    3.526108   -1.212357
     42          6           0       -2.520175    4.731360   -0.390540
     43          1           0       -1.676415    5.270443   -0.805291
     44          6           0       -3.559748    5.418241    0.071407
     45          1           0       -4.403603    4.939179    0.536371
     46          1           0       -3.588781    6.494082    0.023953
     47          6           0        2.740740    4.607857    0.539275
     48          1           0        1.919489    4.960815    1.161265
     49          1           0        2.770316    5.222377   -0.362148
     50          1           0        3.674179    4.749186    1.080264
     51          6           0        4.951853    2.287524    0.260740
     52          1           0        5.435308    1.412635    0.678717
     53          6           0        5.693959    3.338938   -0.071013
     54          1           0        5.273543    4.216117   -0.530936
     55          1           0        6.759878    3.347090    0.084923
     56          6           0        4.851727   -2.956404   -0.580442
     57          1           0        5.404260   -2.560290    0.272163
     58          1           0        5.186195   -2.429808   -1.474090
     59          1           0        5.099685   -4.009454   -0.687952
     60          6           0        2.520958   -5.196215   -0.218731
     61          1           0        2.183814   -5.597444    0.737256
     62          1           0        3.549429   -5.510391   -0.377471
     63          1           0        1.902683   -5.630436   -1.004533
     64          8           0        0.062306   -0.200390   -2.347120
     65          1           0       -0.305181    0.639138   -2.623842
     66          1           0        0.341408   -0.853569   -2.881970
     67          6           0       -1.697346   -0.271149    2.773377
     68          1           0       -1.797886    0.097655    3.789476
     69          1           0       -1.885278   -1.339375    2.741066
     70          1           0       -2.373754    0.241235    2.097439
     71         16           0        0.026651   -0.029282    2.215670
     72          1           0       -0.004129    1.304901    2.318875
 ---------------------------------------------------------------------
 Rotational constants (GHZ):           0.1094625           0.1073652           0.0599132
 Standard basis: def2TZVP (5D, 7F)
 There are  1594 symmetry adapted cartesian basis functions of A   symmetry.
 There are  1402 symmetry adapted basis functions of A   symmetry.
  1402 basis functions,  2279 primitive gaussians,  1594 cartesian basis functions
   149 alpha electrons      149 beta electrons
       nuclear repulsion energy      5421.5299364658 Hartrees.
 NAtoms=   72 NActive=   72 NUniq=   72 SFac= 1.00D+00 NAtFMM=   60 NAOKFM=T Big=T
 Integral buffers will be    131072 words long.
 Raffenetti 2 integral format.
 Two-electron integral symmetry is turned on.
 R6APFD:  NTU= -4 IXU= 1 FactS= 1.050
 Nuclear repulsion after empirical dispersion term =     5421.3768707524 Hartrees.
 One-electron integrals computed using PRISM.
   1 Symmetry operations used in ECPInt.
 ECPInt:  NShTT=  157080 NPrTT=  488567 LenC2=  124814 LenP2D=  259037.
 LDataN:  DoStor=T MaxTD1= 6 Len=  172
 Number of processors reduced to  25 by ecpmxn.
 NBasis=  1402 RedAO= T EigKep=  3.47D-06  NBF=  1402
 NBsUse=  1402 1.00D-06 EigRej= -1.00D+00 NBFU=  1402
 ExpMin= 4.20D-02 ExpMax= 3.01D+05 ExpMxC= 2.91D+03 IAcc=3 IRadAn=         5 AccDes= 0.00D+00
 Harris functional with IExCor= 3731 and IRadAn=       5 diagonalized for initial guess.
 HarFok:  IExCor= 3731 AccDes= 0.00D+00 IRadAn=         5 IDoV= 1 UseB2=F ITyADJ=14
 ICtDFT=  3500011 ScaDFX=  1.000000  1.000000  1.000000  1.000000
 FoFCou: FMM=F IPFlag=           0 FMFlag=      100000 FMFlg1=        2001
         NFxFlg=           0 DoJE=T BraDBF=F KetDBF=T FulRan=T
         wScrn=  0.000000 ICntrl=       500 IOpCl=  0 I1Cent=   200000004 NGrid=           0
         NMat0=    1 NMatS0=      1 NMatT0=    0 NMatD0=    1 NMtDS0=    0 NMtDT0=    0
 Petite list used in FoFCou.
 Requested convergence on RMS density matrix=1.00D-08 within 128 cycles.
 Requested convergence on MAX density matrix=1.00D-06.
 Requested convergence on             energy=1.00D-06.
 No special actions if energy rises.
 EnCoef did     2 forward-backward iterations
 EnCoef did   100 forward-backward iterations
 EnCoef did   100 forward-backward iterations
 EnCoef did   100 forward-backward iterations
 EnCoef did   100 forward-backward iterations
 EnCoef did     1 forward-backward iterations
 Restarting incremental Fock formation.
 SCF Done:  E(RAPFD) =  -3157.19271995     A.U. after   27 cycles
            NFock= 27  Conv=0.38D-08     -V/T= 2.0031
 DoSCS=F DFT=T ScalE2(SS,OS)=  1.000000  1.000000
 Range of M.O.s used for correlation:     1  1402
 NBasis=  1402 NAE=   149 NBE=   149 NFC=     0 NFV=     0
 NROrb=   1402 NOA=   149 NOB=   149 NVA=  1253 NVB=  1253

 **** Warning!!: The largest alpha MO coefficient is  0.57960006D+02

          Differentiating once with respect to electric field.
                with respect to dipole field.
          Electric field/nuclear overlap derivatives assumed to be zero.
          There are     3 degrees of freedom in the 1st order CPHF.  IDoFFX=0 NUNeed=     3.
      3 vectors produced by pass  0 Test12= 6.22D-12 3.33D-08 XBig12= 1.84D+03 2.92D+01.
 AX will form     3 AO Fock derivatives at one time.
      3 vectors produced by pass  1 Test12= 6.22D-12 3.33D-08 XBig12= 1.18D+03 8.52D+00.
      3 vectors produced by pass  2 Test12= 6.22D-12 3.33D-08 XBig12= 4.65D+02 3.85D+00.
      3 vectors produced by pass  3 Test12= 6.22D-12 3.33D-08 XBig12= 2.74D+02 3.85D+00.
      3 vectors produced by pass  4 Test12= 6.22D-12 3.33D-08 XBig12= 1.60D+02 3.10D+00.
      3 vectors produced by pass  5 Test12= 6.22D-12 3.33D-08 XBig12= 8.28D+01 2.35D+00.
      3 vectors produced by pass  6 Test12= 6.22D-12 3.33D-08 XBig12= 6.17D+01 2.55D+00.
      3 vectors produced by pass  7 Test12= 6.22D-12 3.33D-08 XBig12= 4.46D+01 2.14D+00.
      3 vectors produced by pass  8 Test12= 6.22D-12 3.33D-08 XBig12= 2.09D+01 1.46D+00.
      3 vectors produced by pass  9 Test12= 6.22D-12 3.33D-08 XBig12= 1.38D+01 9.93D-01.
      3 vectors produced by pass 10 Test12= 6.22D-12 3.33D-08 XBig12= 5.73D+00 5.29D-01.
      3 vectors produced by pass 11 Test12= 6.22D-12 3.33D-08 XBig12= 1.91D+00 2.44D-01.
      3 vectors produced by pass 12 Test12= 6.22D-12 3.33D-08 XBig12= 4.74D-01 1.06D-01.
      3 vectors produced by pass 13 Test12= 6.22D-12 3.33D-08 XBig12= 1.17D-01 9.05D-02.
      3 vectors produced by pass 14 Test12= 6.22D-12 3.33D-08 XBig12= 2.60D-02 3.35D-02.
      3 vectors produced by pass 15 Test12= 6.22D-12 3.33D-08 XBig12= 9.02D-03 2.06D-02.
      3 vectors produced by pass 16 Test12= 6.22D-12 3.33D-08 XBig12= 2.85D-03 1.23D-02.
      3 vectors produced by pass 17 Test12= 6.22D-12 3.33D-08 XBig12= 7.27D-04 4.29D-03.
      3 vectors produced by pass 18 Test12= 6.22D-12 3.33D-08 XBig12= 1.70D-04 1.95D-03.
      3 vectors produced by pass 19 Test12= 6.22D-12 3.33D-08 XBig12= 3.95D-05 1.18D-03.
      3 vectors produced by pass 20 Test12= 6.22D-12 3.33D-08 XBig12= 1.06D-05 7.25D-04.
      3 vectors produced by pass 21 Test12= 6.22D-12 3.33D-08 XBig12= 1.92D-06 2.93D-04.
      3 vectors produced by pass 22 Test12= 6.22D-12 3.33D-08 XBig12= 3.00D-07 1.46D-04.
      3 vectors produced by pass 23 Test12= 6.22D-12 3.33D-08 XBig12= 5.25D-08 6.05D-05.
      3 vectors produced by pass 24 Test12= 6.22D-12 3.33D-08 XBig12= 9.04D-09 2.08D-05.
      3 vectors produced by pass 25 Test12= 6.22D-12 3.33D-08 XBig12= 1.47D-09 6.79D-06.
      3 vectors produced by pass 26 Test12= 6.22D-12 3.33D-08 XBig12= 1.82D-10 2.36D-06.
      3 vectors produced by pass 27 Test12= 6.22D-12 3.33D-08 XBig12= 2.64D-11 4.76D-07.
      3 vectors produced by pass 28 Test12= 6.22D-12 3.33D-08 XBig12= 4.59D-12 2.64D-07.
      3 vectors produced by pass 29 Test12= 6.22D-12 3.33D-08 XBig12= 6.48D-13 1.38D-07.
      1 vectors produced by pass 30 Test12= 6.22D-12 3.33D-08 XBig12= 1.09D-13 7.03D-08.
      1 vectors produced by pass 31 Test12= 6.22D-12 3.33D-08 XBig12= 1.93D-14 3.96D-08.
 InvSVY:  IOpt=1 It=  1 EMax= 2.13D-14
 Solved reduced A of dimension    92 with     3 vectors.
 Isotropic polarizability for W=    0.000000      549.21 Bohr**3.
 End of Minotr F.D. properties file   721 does not exist.
 End of Minotr F.D. properties file   722 does not exist.
 End of Minotr F.D. properties file   788 does not exist.

 **********************************************************************

            Population analysis using the SCF Density.

 **********************************************************************

 Orbital symmetries:
       Occupied  (A) (A) (A) (A) (A) (A) (A) (A) (A) (A) (A) (A)
                 (A) (A) (A) (A) (A) (A) (A) (A) (A) (A) (A) (A)
                 (A) (A) (A) (A) (A) (A) (A) (A) (A) (A) (A) (A)
                 (A) (A) (A) (A) (A) (A) (A) (A) (A) (A) (A) (A)
                 (A) (A) (A) (A) (A) (A) (A) (A) (A) (A) (A) (A)
                 (A) (A) (A) (A) (A) (A) (A) (A) (A) (A) (A) (A)
                 (A) (A) (A) (A) (A) (A) (A) (A) (A) (A) (A) (A)
                 (A) (A) (A) (A) (A) (A) (A) (A) (A) (A) (A) (A)
                 (A) (A) (A) (A) (A) (A) (A) (A) (A) (A) (A) (A)
                 (A) (A) (A) (A) (A) (A) (A) (A) (A) (A) (A) (A)
                 (A) (A) (A) (A) (A) (A) (A) (A) (A) (A) (A) (A)
                 (A) (A) (A) (A) (A) (A) (A) (A) (A) (A) (A) (A)
                 (A) (A) (A) (A) (A)
       Virtual   (A) (A) (A) (A) (A) (A) (A) (A) (A) (A) (A) (A)
                 (A) (A) (A) (A) (A) (A) (A) (A) (A) (A) (A) (A)
                 (A) (A) (A) (A) (A) (A) (A) (A) (A) (A) (A) (A)
                 (A) (A) (A) (A) (A) (A) (A) (A) (A) (A) (A) (A)
                 (A) (A) (A) (A) (A) (A) (A) (A) (A) (A) (A) (A)
                 (A) (A) (A) (A) (A) (A) (A) (A) (A) (A) (A) (A)
                 (A) (A) (A) (A) (A) (A) (A) (A) (A) (A) (A) (A)
                 (A) (A) (A) (A) (A) (A) (A) (A) (A) (A) (A) (A)
                 (A) (A) (A) (A) (A) (A) (A) (A) (A) (A) (A) (A)
                 (A) (A) (A) (A) (A) (A) (A) (A) (A) (A) (A) (A)
                 (A) (A) (A) (A) (A) (A) (A) (A) (A) (A) (A) (A)
                 (A) (A) (A) (A) (A) (A) (A) (A) (A) (A) (A) (A)
                 (A) (A) (A) (A) (A) (A) (A) (A) (A) (A) (A) (A)
                 (A) (A) (A) (A) (A) (A) (A) (A) (A) (A) (A) (A)
                 (A) (A) (A) (A) (A) (A) (A) (A) (A) (A) (A) (A)
                 (A) (A) (A) (A) (A) (A) (A) (A) (A) (A) (A) (A)
                 (A) (A) (A) (A) (A) (A) (A) (A) (A) (A) (A) (A)
                 (A) (A) (A) (A) (A) (A) (A) (A) (A) (A) (A) (A)
                 (A) (A) (A) (A) (A) (A) (A) (A) (A) (A) (A) (A)
                 (A) (A) (A) (A) (A) (A) (A) (A) (A) (A) (A) (A)
                 (A) (A) (A) (A) (A) (A) (A) (A) (A) (A) (A) (A)
                 (A) (A) (A) (A) (A) (A) (A) (A) (A) (A) (A) (A)
                 (A) (A) (A) (A) (A) (A) (A) (A) (A) (A) (A) (A)
                 (A) (A) (A) (A) (A) (A) (A) (A) (A) (A) (A) (A)
                 (A) (A) (A) (A) (A) (A) (A) (A) (A) (A) (A) (A)
                 (A) (A) (A) (A) (A) (A) (A) (A) (A) (A) (A) (A)
                 (A) (A) (A) (A) (A) (A) (A) (A) (A) (A) (A) (A)
                 (A) (A) (A) (A) (A) (A) (A) (A) (A) (A) (A) (A)
                 (A) (A) (A) (A) (A) (A) (A) (A) (A) (A) (A) (A)
                 (A) (A) (A) (A) (A) (A) (A) (A) (A) (A) (A) (A)
                 (A) (A) (A) (A) (A) (A) (A) (A) (A) (A) (A) (A)
                 (A) (A) (A) (A) (A) (A) (A) (A) (A) (A) (A) (A)
                 (A) (A) (A) (A) (A) (A) (A) (A) (A) (A) (A) (A)
                 (A) (A) (A) (A) (A) (A) (A) (A) (A) (A) (A) (A)
                 (A) (A) (A) (A) (A) (A) (A) (A) (A) (A) (A) (A)
                 (A) (A) (A) (A) (A) (A) (A) (A) (A) (A) (A) (A)
                 (A) (A) (A) (A) (A) (A) (A) (A) (A) (A) (A) (A)
                 (A) (A) (A) (A) (A) (A) (A) (A) (A) (A) (A) (A)
                 (A) (A) (A) (A) (A) (A) (A) (A) (A) (A) (A) (A)
                 (A) (A) (A) (A) (A) (A) (A) (A) (A) (A) (A) (A)
                 (A) (A) (A) (A) (A) (A) (A) (A) (A) (A) (A) (A)
                 (A) (A) (A) (A) (A) (A) (A) (A) (A) (A) (A) (A)
                 (A) (A) (A) (A) (A) (A) (A) (A) (A) (A) (A) (A)
                 (A) (A) (A) (A) (A) (A) (A) (A) (A) (A) (A) (A)
                 (A) (A) (A) (A) (A) (A) (A) (A) (A) (A) (A) (A)
                 (A) (A) (A) (A) (A) (A) (A) (A) (A) (A) (A) (A)
                 (A) (A) (A) (A) (A) (A) (A) (A) (A) (A) (A) (A)
                 (A) (A) (A) (A) (A) (A) (A) (A) (A) (A) (A) (A)
                 (A) (A) (A) (A) (A) (A) (A) (A) (A) (A) (A) (A)
                 (A) (A) (A) (A) (A) (A) (A) (A) (A) (A) (A) (A)
                 (A) (A) (A) (A) (A) (A) (A) (A) (A) (A) (A) (A)
                 (A) (A) (A) (A) (A) (A) (A) (A) (A) (A) (A) (A)
                 (A) (A) (A) (A) (A) (A) (A) (A) (A) (A) (A) (A)
                 (A) (A) (A) (A) (A) (A) (A) (A) (A) (A) (A) (A)
                 (A) (A) (A) (A) (A) (A) (A) (A) (A) (A) (A) (A)
                 (A) (A) (A) (A) (A) (A) (A) (A) (A) (A) (A) (A)
                 (A) (A) (A) (A) (A) (A) (A) (A) (A) (A) (A) (A)
                 (A) (A) (A) (A) (A) (A) (A) (A) (A) (A) (A) (A)
                 (A) (A) (A) (A) (A) (A) (A) (A) (A) (A) (A) (A)
                 (A) (A) (A) (A) (A) (A) (A) (A) (A) (A) (A) (A)
                 (A) (A) (A) (A) (A) (A) (A) (A) (A) (A) (A) (A)
                 (A) (A) (A) (A) (A) (A) (A) (A) (A) (A) (A) (A)
                 (A) (A) (A) (A) (A) (A) (A) (A) (A) (A) (A) (A)
                 (A) (A) (A) (A) (A) (A) (A) (A) (A) (A) (A) (A)
                 (A) (A) (A) (A) (A) (A) (A) (A) (A) (A) (A) (A)
                 (A) (A) (A) (A) (A) (A) (A) (A) (A) (A) (A) (A)
                 (A) (A) (A) (A) (A) (A) (A) (A) (A) (A) (A) (A)
                 (A) (A) (A) (A) (A) (A) (A) (A) (A) (A) (A) (A)
                 (A) (A) (A) (A) (A) (A) (A) (A) (A) (A) (A) (A)
                 (A) (A) (A) (A) (A) (A) (A) (A) (A) (A) (A) (A)
                 (A) (A) (A) (A) (A) (A) (A) (A) (A) (A) (A) (A)
                 (A) (A) (A) (A) (A) (A) (A) (A) (A) (A) (A) (A)
                 (A) (A) (A) (A) (A) (A) (A) (A) (A) (A) (A) (A)
                 (A) (A) (A) (A) (A) (A) (A) (A) (A) (A) (A) (A)
                 (A) (A) (A) (A) (A) (A) (A) (A) (A) (A) (A) (A)
                 (A) (A) (A) (A) (A) (A) (A) (A) (A) (A) (A) (A)
                 (A) (A) (A) (A) (A) (A) (A) (A) (A) (A) (A) (A)
                 (A) (A) (A) (A) (A) (A) (A) (A) (A) (A) (A) (A)
                 (A) (A) (A) (A) (A) (A) (A) (A) (A) (A) (A) (A)
                 (A) (A) (A) (A) (A) (A) (A) (A) (A) (A) (A) (A)
                 (A) (A) (A) (A) (A) (A) (A) (A) (A) (A) (A) (A)
                 (A) (A) (A) (A) (A) (A) (A) (A) (A) (A) (A) (A)
                 (A) (A) (A) (A) (A) (A) (A) (A) (A) (A) (A) (A)
                 (A) (A) (A) (A) (A) (A) (A) (A) (A) (A) (A) (A)
                 (A) (A) (A) (A) (A) (A) (A) (A) (A) (A) (A) (A)
                 (A) (A) (A) (A) (A) (A) (A) (A) (A) (A) (A) (A)
                 (A) (A) (A) (A) (A) (A) (A) (A) (A) (A) (A) (A)
                 (A) (A) (A) (A) (A) (A) (A) (A) (A) (A) (A) (A)
                 (A) (A) (A) (A) (A) (A) (A) (A) (A) (A) (A) (A)
                 (A) (A) (A) (A) (A) (A) (A) (A) (A) (A) (A) (A)
                 (A) (A) (A) (A) (A) (A) (A) (A) (A) (A) (A) (A)
                 (A) (A) (A) (A) (A) (A) (A) (A) (A) (A) (A) (A)
                 (A) (A) (A) (A) (A) (A) (A) (A) (A) (A) (A) (A)
                 (A) (A) (A) (A) (A) (A) (A) (A) (A) (A) (A) (A)
                 (A) (A) (A) (A) (A) (A) (A) (A) (A) (A) (A) (A)
                 (A) (A) (A) (A) (A) (A) (A) (A) (A) (A) (A) (A)
                 (A) (A) (A) (A) (A) (A) (A) (A) (A) (A) (A) (A)
                 (A) (A) (A) (A) (A) (A) (A) (A) (A) (A) (A) (A)
                 (A) (A) (A) (A) (A) (A) (A) (A) (A) (A) (A) (A)
                 (A) (A) (A) (A) (A) (A) (A) (A) (A) (A) (A) (A)
                 (A) (A) (A) (A) (A) (A) (A) (A) (A) (A) (A) (A)
                 (A) (A) (A) (A) (A) (A) (A) (A) (A) (A) (A) (A)
                 (A) (A) (A) (A) (A) (A) (A) (A) (A) (A) (A) (A)
                 (A) (A) (A) (A) (A) (A) (A) (A) (A) (A) (A) (A)
                 (A) (A) (A) (A) (A)
 The electronic state is 1-A.
 Alpha  occ. eigenvalues -- -256.18739 -88.96339 -30.03683 -25.87866 -25.87455
 Alpha  occ. eigenvalues --  -25.87411 -19.17791 -14.34227 -14.33827 -14.33764
 Alpha  occ. eigenvalues --  -14.33615 -10.21956 -10.21741 -10.21589 -10.21392
 Alpha  occ. eigenvalues --  -10.21378 -10.21274 -10.21252 -10.21250 -10.21184
 Alpha  occ. eigenvalues --  -10.20094 -10.19804 -10.19660 -10.19442 -10.19203
 Alpha  occ. eigenvalues --  -10.19152 -10.19143 -10.19096 -10.19073 -10.19048
 Alpha  occ. eigenvalues --  -10.18988 -10.18971 -10.18943 -10.18940 -10.18919
 Alpha  occ. eigenvalues --  -10.18894 -10.18835 -10.18769 -10.18745 -10.18707
 Alpha  occ. eigenvalues --  -10.18684 -10.18441  -7.99095  -5.93663  -5.93380
 Alpha  occ. eigenvalues --   -5.92886  -3.41321  -2.18044  -2.17141  -2.17088
 Alpha  occ. eigenvalues --   -1.05635  -0.97541  -0.96610  -0.96510  -0.95562
 Alpha  occ. eigenvalues --   -0.82805  -0.82415  -0.82007  -0.81163  -0.80815
 Alpha  occ. eigenvalues --   -0.80307  -0.80090  -0.80032  -0.77195  -0.76185
 Alpha  occ. eigenvalues --   -0.74704  -0.74476  -0.73530  -0.71483  -0.70606
 Alpha  occ. eigenvalues --   -0.68634  -0.68343  -0.68267  -0.66404  -0.64643
 Alpha  occ. eigenvalues --   -0.64573  -0.61235  -0.61091  -0.60414  -0.58309
 Alpha  occ. eigenvalues --   -0.57149  -0.54914  -0.54143  -0.53807  -0.53091
 Alpha  occ. eigenvalues --   -0.51579  -0.51541  -0.51065  -0.49222  -0.48316
 Alpha  occ. eigenvalues --   -0.47781  -0.46676  -0.45776  -0.45397  -0.45180
 Alpha  occ. eigenvalues --   -0.44952  -0.44645  -0.44100  -0.43876  -0.43828
 Alpha  occ. eigenvalues --   -0.43594  -0.43363  -0.43199  -0.42833  -0.42289
 Alpha  occ. eigenvalues --   -0.41952  -0.41845  -0.41631  -0.40991  -0.40649
 Alpha  occ. eigenvalues --   -0.40522  -0.40372  -0.39967  -0.39871  -0.39707
 Alpha  occ. eigenvalues --   -0.39408  -0.39093  -0.38778  -0.38235  -0.37995
 Alpha  occ. eigenvalues --   -0.37618  -0.37448  -0.36751  -0.36443  -0.36376
 Alpha  occ. eigenvalues --   -0.35701  -0.35026  -0.34867  -0.34741  -0.34339
 Alpha  occ. eigenvalues --   -0.34120  -0.32361  -0.31856  -0.30687  -0.30179
 Alpha  occ. eigenvalues --   -0.29948  -0.29312  -0.28432  -0.27282  -0.26936
 Alpha  occ. eigenvalues --   -0.24639  -0.24294  -0.23165  -0.22662  -0.20330
 Alpha  occ. eigenvalues --   -0.19026  -0.18947  -0.18741  -0.18357
 Alpha virt. eigenvalues --   -0.07119  -0.07058  -0.02493  -0.00844   0.00109
 Alpha virt. eigenvalues --    0.01257   0.01762   0.03047   0.03931   0.04068
 Alpha virt. eigenvalues --    0.04594   0.05227   0.05506   0.05812   0.06134
 Alpha virt. eigenvalues --    0.06709   0.07488   0.07704   0.08107   0.08153
 Alpha virt. eigenvalues --    0.08572   0.09147   0.09525   0.09983   0.10138
 Alpha virt. eigenvalues --    0.10489   0.10661   0.11076   0.11162   0.11602
 Alpha virt. eigenvalues --    0.11795   0.11877   0.12109   0.12766   0.12830
 Alpha virt. eigenvalues --    0.12967   0.13284   0.13578   0.13614   0.14024
 Alpha virt. eigenvalues --    0.14190   0.14684   0.14720   0.14958   0.15065
 Alpha virt. eigenvalues --    0.15210   0.15641   0.15820   0.15846   0.16240
 Alpha virt. eigenvalues --    0.16517   0.16704   0.16833   0.17110   0.17255
 Alpha virt. eigenvalues --    0.17614   0.18305   0.18375   0.18825   0.19153
 Alpha virt. eigenvalues --    0.19383   0.19613   0.20022   0.20207   0.20386
 Alpha virt. eigenvalues --    0.20726   0.21003   0.21526   0.21907   0.22008
 Alpha virt. eigenvalues --    0.22162   0.22426   0.22809   0.22976   0.23606
 Alpha virt. eigenvalues --    0.23866   0.24265   0.24662   0.24919   0.25359
 Alpha virt. eigenvalues --    0.25675   0.25820   0.26167   0.26370   0.26735
 Alpha virt. eigenvalues --    0.26831   0.26992   0.27701   0.28099   0.28237
 Alpha virt. eigenvalues --    0.28605   0.28822   0.28941   0.29092   0.29241
 Alpha virt. eigenvalues --    0.29424   0.29668   0.29973   0.30235   0.30609
 Alpha virt. eigenvalues --    0.30830   0.31200   0.31388   0.32292   0.32339
 Alpha virt. eigenvalues --    0.32522   0.32689   0.32938   0.33177   0.33449
 Alpha virt. eigenvalues --    0.33907   0.34048   0.34642   0.34919   0.35827
 Alpha virt. eigenvalues --    0.35936   0.36167   0.36482   0.36656   0.37016
 Alpha virt. eigenvalues --    0.37405   0.37648   0.38170   0.38290   0.38326
 Alpha virt. eigenvalues --    0.38979   0.39111   0.39342   0.39441   0.39749
 Alpha virt. eigenvalues --    0.40010   0.40161   0.40329   0.40402   0.40672
 Alpha virt. eigenvalues --    0.40937   0.41157   0.41298   0.41691   0.41803
 Alpha virt. eigenvalues --    0.41973   0.42304   0.42323   0.42867   0.43104
 Alpha virt. eigenvalues --    0.43314   0.43556   0.43755   0.44169   0.44253
 Alpha virt. eigenvalues --    0.44509   0.44948   0.45081   0.45269   0.45647
 Alpha virt. eigenvalues --    0.46045   0.46320   0.46410   0.46533   0.46706
 Alpha virt. eigenvalues --    0.46925   0.47200   0.47343   0.47617   0.47835
 Alpha virt. eigenvalues --    0.48151   0.48277   0.48451   0.48755   0.49076
 Alpha virt. eigenvalues --    0.49466   0.49535   0.49844   0.50201   0.50432
 Alpha virt. eigenvalues --    0.50859   0.51040   0.51094   0.51389   0.51479
 Alpha virt. eigenvalues --    0.51676   0.52049   0.52254   0.52487   0.52579
 Alpha virt. eigenvalues --    0.52760   0.52923   0.53410   0.53613   0.54072
 Alpha virt. eigenvalues --    0.54209   0.54400   0.54551   0.54946   0.55651
 Alpha virt. eigenvalues --    0.55828   0.55976   0.56401   0.56911   0.57220
 Alpha virt. eigenvalues --    0.57441   0.57848   0.58064   0.58133   0.58604
 Alpha virt. eigenvalues --    0.58952   0.59108   0.59504   0.59661   0.60272
 Alpha virt. eigenvalues --    0.60535   0.60893   0.61432   0.61672   0.62200
 Alpha virt. eigenvalues --    0.62287   0.62594   0.62725   0.63339   0.63481
 Alpha virt. eigenvalues --    0.63808   0.64325   0.64573   0.65244   0.65481
 Alpha virt. eigenvalues --    0.65888   0.65902   0.66112   0.66574   0.66796
 Alpha virt. eigenvalues --    0.67129   0.67286   0.67676   0.68130   0.68685
 Alpha virt. eigenvalues --    0.68785   0.69066   0.69523   0.70018   0.70498
 Alpha virt. eigenvalues --    0.70718   0.71102   0.71735   0.71854   0.71959
 Alpha virt. eigenvalues --    0.72455   0.72503   0.73013   0.73197   0.73434
 Alpha virt. eigenvalues --    0.73776   0.74098   0.74436   0.74689   0.75206
 Alpha virt. eigenvalues --    0.75578   0.75743   0.76166   0.76680   0.76858
 Alpha virt. eigenvalues --    0.77142   0.77499   0.77788   0.78347   0.78624
 Alpha virt. eigenvalues --    0.78991   0.79406   0.79565   0.79708   0.79801
 Alpha virt. eigenvalues --    0.80378   0.80810   0.81064   0.81705   0.82155
 Alpha virt. eigenvalues --    0.82366   0.82561   0.83015   0.83701   0.84785
 Alpha virt. eigenvalues --    0.85258   0.85676   0.85995   0.86658   0.86812
 Alpha virt. eigenvalues --    0.87198   0.87972   0.88374   0.88414   0.89001
 Alpha virt. eigenvalues --    0.89294   0.89439   0.90051   0.90334   0.90595
 Alpha virt. eigenvalues --    0.91026   0.91586   0.92085   0.92212   0.92474
 Alpha virt. eigenvalues --    0.93287   0.93533   0.93983   0.94328   0.95035
 Alpha virt. eigenvalues --    0.95304   0.95624   0.95906   0.96493   0.96862
 Alpha virt. eigenvalues --    0.97049   0.97884   0.98115   0.98315   0.98955
 Alpha virt. eigenvalues --    0.99145   0.99531   0.99904   1.00081   1.00696
 Alpha virt. eigenvalues --    1.01068   1.01377   1.01659   1.01863   1.02259
 Alpha virt. eigenvalues --    1.02435   1.02675   1.02920   1.03164   1.03690
 Alpha virt. eigenvalues --    1.04059   1.04327   1.04811   1.05055   1.05384
 Alpha virt. eigenvalues --    1.05817   1.06485   1.06758   1.07146   1.07486
 Alpha virt. eigenvalues --    1.07797   1.08596   1.08782   1.09451   1.10065
 Alpha virt. eigenvalues --    1.10155   1.10520   1.11242   1.11795   1.12006
 Alpha virt. eigenvalues --    1.13115   1.13476   1.13972   1.14322   1.15065
 Alpha virt. eigenvalues --    1.15742   1.16072   1.16231   1.16634   1.17382
 Alpha virt. eigenvalues --    1.17716   1.18099   1.18824   1.19134   1.19251
 Alpha virt. eigenvalues --    1.20151   1.20425   1.20669   1.21263   1.21562
 Alpha virt. eigenvalues --    1.21908   1.22430   1.22609   1.23721   1.24170
 Alpha virt. eigenvalues --    1.25154   1.25622   1.25779   1.26010   1.26433
 Alpha virt. eigenvalues --    1.26903   1.27231   1.27910   1.28152   1.28355
 Alpha virt. eigenvalues --    1.28443   1.28839   1.29112   1.29501   1.29906
 Alpha virt. eigenvalues --    1.30328   1.30937   1.32033   1.32227   1.32840
 Alpha virt. eigenvalues --    1.33340   1.34305   1.34770   1.35888   1.36768
 Alpha virt. eigenvalues --    1.36994   1.37819   1.38521   1.38834   1.40203
 Alpha virt. eigenvalues --    1.40702   1.41214   1.41432   1.41884   1.42305
 Alpha virt. eigenvalues --    1.42551   1.42969   1.43720   1.44250   1.45307
 Alpha virt. eigenvalues --    1.45488   1.45918   1.46495   1.46596   1.46767
 Alpha virt. eigenvalues --    1.47254   1.48004   1.48222   1.48407   1.48745
 Alpha virt. eigenvalues --    1.48971   1.49496   1.49728   1.50332   1.50483
 Alpha virt. eigenvalues --    1.50745   1.51248   1.51769   1.51921   1.52391
 Alpha virt. eigenvalues --    1.52725   1.52849   1.53265   1.53620   1.53912
 Alpha virt. eigenvalues --    1.54138   1.54629   1.55000   1.55247   1.55479
 Alpha virt. eigenvalues --    1.55713   1.55807   1.56121   1.56221   1.56541
 Alpha virt. eigenvalues --    1.56891   1.56976   1.57145   1.57311   1.57437
 Alpha virt. eigenvalues --    1.58477   1.58842   1.59245   1.59291   1.59864
 Alpha virt. eigenvalues --    1.60128   1.60496   1.60884   1.61244   1.61967
 Alpha virt. eigenvalues --    1.62256   1.62285   1.62503   1.62700   1.63197
 Alpha virt. eigenvalues --    1.63396   1.63712   1.64253   1.64580   1.64855
 Alpha virt. eigenvalues --    1.64929   1.65400   1.65862   1.66241   1.66356
 Alpha virt. eigenvalues --    1.66681   1.66956   1.67538   1.67883   1.68334
 Alpha virt. eigenvalues --    1.68475   1.68712   1.69181   1.69395   1.69654
 Alpha virt. eigenvalues --    1.69893   1.70292   1.70844   1.71069   1.71790
 Alpha virt. eigenvalues --    1.72126   1.72320   1.72774   1.73330   1.73597
 Alpha virt. eigenvalues --    1.73621   1.74363   1.74628   1.75905   1.76108
 Alpha virt. eigenvalues --    1.76839   1.77312   1.77720   1.78383   1.79110
 Alpha virt. eigenvalues --    1.79358   1.80474   1.80592   1.80969   1.81465
 Alpha virt. eigenvalues --    1.82194   1.82664   1.82774   1.83267   1.83797
 Alpha virt. eigenvalues --    1.84067   1.84800   1.85286   1.85402   1.86147
 Alpha virt. eigenvalues --    1.86638   1.86924   1.87217   1.87495   1.88143
 Alpha virt. eigenvalues --    1.88464   1.89341   1.89372   1.90176   1.90646
 Alpha virt. eigenvalues --    1.90740   1.91832   1.92084   1.92402   1.93443
 Alpha virt. eigenvalues --    1.93697   1.94294   1.94712   1.95320   1.95890
 Alpha virt. eigenvalues --    1.96510   1.96998   1.97407   1.97556   1.98359
 Alpha virt. eigenvalues --    1.98774   1.99193   1.99831   1.99929   2.00783
 Alpha virt. eigenvalues --    2.00979   2.01168   2.01593   2.01707   2.02359
 Alpha virt. eigenvalues --    2.02712   2.03140   2.03913   2.04567   2.05730
 Alpha virt. eigenvalues --    2.06054   2.06628   2.07280   2.08176   2.08504
 Alpha virt. eigenvalues --    2.08749   2.08962   2.09324   2.09810   2.09979
 Alpha virt. eigenvalues --    2.10404   2.11400   2.11540   2.12087   2.12474
 Alpha virt. eigenvalues --    2.13471   2.13574   2.13997   2.14308   2.14878
 Alpha virt. eigenvalues --    2.15282   2.15720   2.16541   2.17016   2.17599
 Alpha virt. eigenvalues --    2.18132   2.19039   2.19538   2.19759   2.20424
 Alpha virt. eigenvalues --    2.20851   2.20918   2.21668   2.22227   2.23073
 Alpha virt. eigenvalues --    2.23681   2.24213   2.24640   2.24912   2.25523
 Alpha virt. eigenvalues --    2.25830   2.26149   2.27044   2.27305   2.27690
 Alpha virt. eigenvalues --    2.28244   2.28865   2.29233   2.29277   2.29555
 Alpha virt. eigenvalues --    2.30743   2.31046   2.31477   2.31988   2.32462
 Alpha virt. eigenvalues --    2.32978   2.33561   2.33940   2.34600   2.35222
 Alpha virt. eigenvalues --    2.35932   2.36034   2.36475   2.36945   2.37196
 Alpha virt. eigenvalues --    2.37308   2.37618   2.38264   2.38372   2.38803
 Alpha virt. eigenvalues --    2.38943   2.39535   2.39812   2.40581   2.40886
 Alpha virt. eigenvalues --    2.41224   2.41578   2.42676   2.43574   2.43640
 Alpha virt. eigenvalues --    2.44015   2.44733   2.45068   2.45283   2.46141
 Alpha virt. eigenvalues --    2.46425   2.46938   2.46995   2.47563   2.47951
 Alpha virt. eigenvalues --    2.48283   2.48853   2.49565   2.50180   2.50570
 Alpha virt. eigenvalues --    2.51501   2.52432   2.52927   2.53016   2.53409
 Alpha virt. eigenvalues --    2.53767   2.54008   2.54645   2.54957   2.55367
 Alpha virt. eigenvalues --    2.55933   2.56176   2.56425   2.56893   2.57322
 Alpha virt. eigenvalues --    2.57652   2.57961   2.58288   2.58983   2.59298
 Alpha virt. eigenvalues --    2.59711   2.59905   2.60259   2.60650   2.61419
 Alpha virt. eigenvalues --    2.61597   2.61793   2.62197   2.62747   2.63019
 Alpha virt. eigenvalues --    2.63524   2.64561   2.64838   2.65111   2.65513
 Alpha virt. eigenvalues --    2.65928   2.66193   2.66599   2.66734   2.67308
 Alpha virt. eigenvalues --    2.67629   2.67979   2.68706   2.69117   2.69604
 Alpha virt. eigenvalues --    2.70082   2.70510   2.70751   2.70893   2.71536
 Alpha virt. eigenvalues --    2.72118   2.72480   2.73065   2.73284   2.74344
 Alpha virt. eigenvalues --    2.74900   2.75149   2.75447   2.75745   2.76569
 Alpha virt. eigenvalues --    2.77087   2.77373   2.77878   2.78240   2.78888
 Alpha virt. eigenvalues --    2.79222   2.79425   2.79866   2.81193   2.81602
 Alpha virt. eigenvalues --    2.81967   2.82338   2.82373   2.82776   2.82904
 Alpha virt. eigenvalues --    2.83796   2.84054   2.84565   2.85199   2.85519
 Alpha virt. eigenvalues --    2.86030   2.86278   2.86543   2.87367   2.87591
 Alpha virt. eigenvalues --    2.88301   2.88442   2.89202   2.89472   2.89846
 Alpha virt. eigenvalues --    2.90284   2.90938   2.91016   2.91917   2.92064
 Alpha virt. eigenvalues --    2.92548   2.92750   2.92993   2.93948   2.94062
 Alpha virt. eigenvalues --    2.94492   2.94863   2.95040   2.96064   2.96564
 Alpha virt. eigenvalues --    2.97045   2.97211   2.97633   2.98086   2.98284
 Alpha virt. eigenvalues --    2.98882   2.99431   2.99575   2.99976   3.00168
 Alpha virt. eigenvalues --    3.00488   3.01457   3.02184   3.02885   3.03412
 Alpha virt. eigenvalues --    3.03785   3.03955   3.04857   3.05047   3.05537
 Alpha virt. eigenvalues --    3.05729   3.06244   3.06570   3.07274   3.07648
 Alpha virt. eigenvalues --    3.07733   3.08243   3.08914   3.08932   3.09155
 Alpha virt. eigenvalues --    3.09769   3.10086   3.10902   3.11436   3.11600
 Alpha virt. eigenvalues --    3.11879   3.12230   3.12506   3.12723   3.12975
 Alpha virt. eigenvalues --    3.13417   3.14074   3.14224   3.14643   3.14958
 Alpha virt. eigenvalues --    3.15732   3.16010   3.16098   3.16483   3.16954
 Alpha virt. eigenvalues --    3.17186   3.17390   3.18115   3.18542   3.19080
 Alpha virt. eigenvalues --    3.19243   3.19472   3.19895   3.20615   3.20688
 Alpha virt. eigenvalues --    3.20851   3.21075   3.21407   3.21763   3.22348
 Alpha virt. eigenvalues --    3.22602   3.22984   3.23545   3.23866   3.24226
 Alpha virt. eigenvalues --    3.24607   3.24680   3.25292   3.25640   3.25764
 Alpha virt. eigenvalues --    3.26245   3.26317   3.26396   3.26817   3.27240
 Alpha virt. eigenvalues --    3.27350   3.27567   3.27864   3.28074   3.29170
 Alpha virt. eigenvalues --    3.29512   3.29747   3.29961   3.30184   3.30380
 Alpha virt. eigenvalues --    3.30634   3.31000   3.31307   3.31727   3.32012
 Alpha virt. eigenvalues --    3.32460   3.32784   3.33178   3.33516   3.33774
 Alpha virt. eigenvalues --    3.33845   3.34252   3.34546   3.34665   3.35224
 Alpha virt. eigenvalues --    3.35373   3.35813   3.36057   3.36205   3.36704
 Alpha virt. eigenvalues --    3.37088   3.37134   3.37430   3.38082   3.38349
 Alpha virt. eigenvalues --    3.38525   3.38885   3.39109   3.39473   3.39902
 Alpha virt. eigenvalues --    3.40399   3.40758   3.40854   3.41235   3.41666
 Alpha virt. eigenvalues --    3.42068   3.42402   3.43125   3.43205   3.43508
 Alpha virt. eigenvalues --    3.44094   3.44622   3.45094   3.45302   3.45610
 Alpha virt. eigenvalues --    3.46077   3.46381   3.46953   3.47241   3.47916
 Alpha virt. eigenvalues --    3.48422   3.48824   3.49392   3.49655   3.50135
 Alpha virt. eigenvalues --    3.50980   3.51520   3.51738   3.52409   3.52886
 Alpha virt. eigenvalues --    3.53835   3.54276   3.55366   3.55999   3.56176
 Alpha virt. eigenvalues --    3.57073   3.57608   3.57712   3.58078   3.58613
 Alpha virt. eigenvalues --    3.58863   3.59205   3.60059   3.60513   3.60693
 Alpha virt. eigenvalues --    3.61350   3.61602   3.61977   3.62245   3.62900
 Alpha virt. eigenvalues --    3.64202   3.64468   3.65728   3.65810   3.66218
 Alpha virt. eigenvalues --    3.66504   3.67102   3.67875   3.68473   3.69167
 Alpha virt. eigenvalues --    3.69189   3.69674   3.70449   3.70773   3.71277
 Alpha virt. eigenvalues --    3.71854   3.72510   3.72638   3.72887   3.73302
 Alpha virt. eigenvalues --    3.74070   3.74185   3.74449   3.74820   3.75199
 Alpha virt. eigenvalues --    3.75558   3.76084   3.77109   3.77350   3.78794
 Alpha virt. eigenvalues --    3.78865   3.79295   3.80286   3.80896   3.81353
 Alpha virt. eigenvalues --    3.81943   3.82295   3.82917   3.84509   3.84680
 Alpha virt. eigenvalues --    3.85034   3.85307   3.86594   3.86829   3.86903
 Alpha virt. eigenvalues --    3.88467   3.88827   3.89475   3.89725   3.90369
 Alpha virt. eigenvalues --    3.91309   3.92503   3.93312   3.93634   3.94042
 Alpha virt. eigenvalues --    3.95554   3.96444   3.96591   3.97291   3.98166
 Alpha virt. eigenvalues --    3.98874   3.99544   4.00122   4.00222   4.00649
 Alpha virt. eigenvalues --    4.00744   4.02011   4.02262   4.03164   4.03898
 Alpha virt. eigenvalues --    4.04433   4.05380   4.05469   4.05623   4.07051
 Alpha virt. eigenvalues --    4.07423   4.08764   4.09332   4.09474   4.10443
 Alpha virt. eigenvalues --    4.11827   4.12405   4.13228   4.13807   4.14884
 Alpha virt. eigenvalues --    4.15122   4.15820   4.16162   4.16808   4.17114
 Alpha virt. eigenvalues --    4.18029   4.18755   4.19005   4.19203   4.19803
 Alpha virt. eigenvalues --    4.20138   4.20833   4.21644   4.22212   4.22834
 Alpha virt. eigenvalues --    4.23110   4.24189   4.24466   4.24854   4.25797
 Alpha virt. eigenvalues --    4.26390   4.27805   4.28325   4.28805   4.29701
 Alpha virt. eigenvalues --    4.29980   4.30465   4.31433   4.32085   4.32447
 Alpha virt. eigenvalues --    4.32828   4.33146   4.33908   4.34512   4.34731
 Alpha virt. eigenvalues --    4.35471   4.35918   4.37037   4.37755   4.38216
 Alpha virt. eigenvalues --    4.39215   4.39662   4.40644   4.40890   4.41586
 Alpha virt. eigenvalues --    4.41739   4.42393   4.43012   4.43802   4.44169
 Alpha virt. eigenvalues --    4.45002   4.45289   4.45926   4.46252   4.46799
 Alpha virt. eigenvalues --    4.47439   4.47860   4.48660   4.49522   4.50988
 Alpha virt. eigenvalues --    4.51521   4.52750   4.53574   4.53830   4.54758
 Alpha virt. eigenvalues --    4.55214   4.56116   4.56612   4.57741   4.58088
 Alpha virt. eigenvalues --    4.59614   4.61549   4.62841   4.64556   4.65133
 Alpha virt. eigenvalues --    4.66659   4.67536   4.68192   4.68431   4.68813
 Alpha virt. eigenvalues --    4.69526   4.71796   4.72266   4.73856   4.74179
 Alpha virt. eigenvalues --    4.75003   4.75794   4.77471   4.79944   4.80672
 Alpha virt. eigenvalues --    4.82030   4.82619   4.83341   4.83878   4.83961
 Alpha virt. eigenvalues --    4.84365   4.85274   4.86058   4.86573   4.88615
 Alpha virt. eigenvalues --    4.89190   4.89998   4.90438   4.92391   4.93854
 Alpha virt. eigenvalues --    4.95232   4.95802   4.96719   4.97414   4.98960
 Alpha virt. eigenvalues --    5.00123   5.01523   5.03019   5.03294   5.03808
 Alpha virt. eigenvalues --    5.04402   5.05150   5.05643   5.06877   5.07890
 Alpha virt. eigenvalues --    5.09026   5.09959   5.12556   5.13464   5.16102
 Alpha virt. eigenvalues --    5.16352   5.17734   5.19254   5.20136   5.21423
 Alpha virt. eigenvalues --    5.22277   5.23325   5.24166   5.25793   5.26794
 Alpha virt. eigenvalues --    5.27336   5.28250   5.30002   5.34816   5.36981
 Alpha virt. eigenvalues --    5.37290   5.37722   5.37875   5.39297   5.39362
 Alpha virt. eigenvalues --    5.39887   5.40620   5.42555   5.47803   5.48348
 Alpha virt. eigenvalues --    5.49730   5.50435   5.51127   5.52034   5.52542
 Alpha virt. eigenvalues --    5.55394   5.57806   5.60139   5.61015   5.61406
 Alpha virt. eigenvalues --    5.62727   5.63914   5.66770   5.66872   5.68087
 Alpha virt. eigenvalues --    5.72425   5.75325   5.75867   5.77646   5.78046
 Alpha virt. eigenvalues --    5.87936   5.88857   5.90068   5.91606   6.00248
 Alpha virt. eigenvalues --    6.00607   6.01846   6.10594   6.11008   6.12133
 Alpha virt. eigenvalues --    6.14000   6.18410   6.23385   6.25886   6.33520
 Alpha virt. eigenvalues --    6.33845   6.40823   6.47648   6.50617   6.52584
 Alpha virt. eigenvalues --    6.65469   6.96264   7.27541   9.07777   9.24244
 Alpha virt. eigenvalues --    9.40975  19.61677  22.33886  22.35451  22.36174
 Alpha virt. eigenvalues --   22.45794  22.46561  22.52471  22.53207  22.62239
 Alpha virt. eigenvalues --   22.62372  22.84224  22.86570  22.90982  22.93708
 Alpha virt. eigenvalues --   22.94616  22.95773  22.96606  23.02854  23.03858
 Alpha virt. eigenvalues --   23.13974  23.26879  23.30617  23.31433  23.40173
 Alpha virt. eigenvalues --   23.42034  23.50611  23.50702  23.55101  23.74280
 Alpha virt. eigenvalues --   23.78981  23.79864  23.88734  32.87180  32.91721
 Alpha virt. eigenvalues --   32.92188  33.03979  43.93818
          Condensed to atoms (all electrons):
 Mulliken charges:
               1
     1  Fe  -0.231258
     2  N   -0.016776
     3  N   -0.043796
     4  N   -0.024917
     5  N   -0.010080
     6  C    0.219888
     7  C   -0.051327
     8  C   -0.009376
     9  C    0.141760
    10  C    0.169034
    11  C    0.011501
    12  C    0.003336
    13  C    0.221385
    14  C    0.211785
    15  C   -0.052688
    16  C    0.053922
    17  C    0.237941
    18  C    0.224421
    19  C   -0.026773
    20  C   -0.055964
    21  C    0.231088
    22  C   -0.426939
    23  H    0.141104
    24  C   -0.415022
    25  H    0.134652
    26  C   -0.436469
    27  H    0.116157
    28  C   -0.448987
    29  H    0.124755
    30  C   -0.414781
    31  H    0.120764
    32  H    0.136356
    33  H    0.136570
    34  C   -0.413891
    35  H    0.135481
    36  H    0.136736
    37  H    0.120731
    38  C   -0.453032
    39  H    0.142568
    40  H    0.132342
    41  H    0.158474
    42  C   -0.206458
    43  H    0.113504
    44  C   -0.286625
    45  H    0.139354
    46  H    0.124126
    47  C   -0.454662
    48  H    0.130584
    49  H    0.142994
    50  H    0.158766
    51  C   -0.210714
    52  H    0.113209
    53  C   -0.285295
    54  H    0.139430
    55  H    0.123190
    56  C   -0.413868
    57  H    0.137454
    58  H    0.137350
    59  H    0.120389
    60  C   -0.414309
    61  H    0.134775
    62  H    0.120664
    63  H    0.137201
    64  O   -0.568766
    65  H    0.361399
    66  H    0.325640
    67  C   -0.340121
    68  H    0.154746
    69  H    0.146510
    70  H    0.161149
    71  S   -0.041569
    72  H    0.169279
 Sum of Mulliken charges =  -0.00000
 Mulliken charges with hydrogens summed into heavy atoms:
               1
     1  Fe  -0.231258
     2  N   -0.016776
     3  N   -0.043796
     4  N   -0.024917
     5  N   -0.010080
     6  C    0.219888
     7  C   -0.051327
     8  C   -0.009376
     9  C    0.141760
    10  C    0.169034
    11  C    0.011501
    12  C    0.003336
    13  C    0.221385
    14  C    0.211785
    15  C   -0.052688
    16  C    0.053922
    17  C    0.237941
    18  C    0.224421
    19  C   -0.026773
    20  C   -0.055964
    21  C    0.231088
    22  C   -0.285836
    24  C   -0.280370
    26  C   -0.320312
    28  C   -0.324232
    30  C   -0.021090
    34  C   -0.020944
    38  C   -0.019649
    42  C   -0.092953
    44  C   -0.023145
    47  C   -0.022318
    51  C   -0.097505
    53  C   -0.022675
    56  C   -0.018675
    60  C   -0.021669
    64  O    0.118273
    67  C    0.122284
    71  S    0.127710
 Electronic spatial extent (au):  <R**2>=          18261.1165
 Charge=             -0.0000 electrons
 Dipole moment (field-independent basis, Debye):
    X=             -1.4218    Y=             -0.9782    Z=             -0.3091  Tot=              1.7533
 Quadrupole moment (field-independent basis, Debye-Ang):
   XX=           -224.2649   YY=           -222.4159   ZZ=           -231.0676
   XY=             -0.3119   XZ=             -4.3207   YZ=              0.8678
 Traceless Quadrupole moment (field-independent basis, Debye-Ang):
   XX=              1.6512   YY=              3.5002   ZZ=             -5.1514
   XY=             -0.3119   XZ=             -4.3207   YZ=              0.8678
 Octapole moment (field-independent basis, Debye-Ang**2):
  XXX=            -12.2914  YYY=            -34.3162  ZZZ=            -26.2071  XYY=              9.8806
  XXY=            -27.7416  XXZ=              6.2494  XZZ=            -16.9701  YZZ=            -11.8206
  YYZ=             -6.3186  XYZ=              2.8734
 Hexadecapole moment (field-independent basis, Debye-Ang**3):
 XXXX=         -11644.8756 YYYY=         -11367.8863 ZZZZ=          -1278.5792 XXXY=            -27.4753
 XXXZ=              7.8981 YYYX=             34.8447 YYYZ=            -41.2118 ZZZX=            -56.8038
 ZZZY=             28.1300 XXYY=          -3868.9440 XXZZ=          -2342.8841 YYZZ=          -2282.8464
 XXYZ=             24.7064 YYXZ=            -58.1423 ZZXY=             -5.9213
 N-N= 5.421376870752D+03 E-N=-1.827836017421D+04  KE= 3.147470704718D+03
  Exact polarizability:     698.709       0.892     688.154      -3.499      -0.247     260.771
 Approx polarizability:    1287.836       3.944    1276.262       4.132      -7.503     443.872

 ----------------------------------------------------------------------

 Electric dipole moment (input orientation):
 (Debye = 10**-18 statcoulomb cm , SI units = C m)
                  (au)            (Debye)         (10**-30 SI)
   Tot        0.689798D+00      0.175329D+01      0.584835D+01
   x          0.556406D+00      0.141424D+01      0.471741D+01
   y         -0.405449D+00     -0.103055D+01     -0.343754D+01
   z          0.429430D-01      0.109150D+00      0.364086D+00

 Dipole polarizability, Alpha (input orientation).
 (esu units = cm**3 , SI units = C**2 m**2 J**-1)
 Alpha(0;0):
               (au)            (10**-24 esu)      (10**-40 SI)
   iso        0.549212D+03      0.813848D+02      0.905527D+02
   aniso      0.432802D+03      0.641347D+02      0.713595D+02
   xx         0.616534D+03      0.913609D+02      0.101653D+03
   yx        -0.163448D+03     -0.242205D+02     -0.269490D+02
   yy         0.359496D+03      0.532718D+02      0.592729D+02
   zx         0.433301D+02      0.642086D+01      0.714417D+01
   zy         0.780663D+02      0.115682D+02      0.128714D+02
   zz         0.671604D+03      0.995215D+02      0.110733D+03

 First dipole hyperpolarizability, Beta (input orientation).
 ||, _|_  parallel and perpendicular components, (z) with respect to z axis,
 vector components x,y,z.  Values do not include the 1/n! factor of 1/2.
 (esu units = statvolt**-1 cm**4 , SI units = C**3 m**3 J**-2)
 Beta(0;0,0):
               (au)            (10**-30 esu)      (10**-50 SI)
   || (z)     0.794076D+03      0.686020D+01      0.254609D+01
   _|_(z)     0.264692D+03      0.228673D+01      0.848698D+00
   x         -0.267746D+04     -0.231312D+02     -0.858492D+01
   y          0.234815D+04      0.202862D+02      0.752900D+01
   z          0.397038D+04      0.343010D+02      0.127305D+02
   ||         0.106671D+04      0.921550D+01      0.342024D+01
   xxx       -0.866768D+03     -0.748820D+01     -0.277917D+01
   xxy        0.578340D+03      0.499641D+01      0.185437D+01
   yxy       -0.323247D+03     -0.279260D+01     -0.103645D+01
   yyy        0.223395D+03      0.192996D+01      0.716287D+00
   xxz       -0.150933D+03     -0.130395D+01     -0.483947D+00
   yxz        0.105833D+03      0.914317D+00      0.339340D+00
   yyz       -0.463884D+02     -0.400760D+00     -0.148738D+00
   zxz        0.297528D+03      0.257041D+01      0.953982D+00
   zyz       -0.190201D+02     -0.164319D+00     -0.609853D-01
   zzz        0.152078D+04      0.131384D+02      0.487617D+01

 ----------------------------------------------------------------------

 Dipole orientation:
    26          4.60132291         34.61925507        -35.76949643
     7          5.36093783         34.47478933        -32.01538519
     7          1.93296215         37.20880834        -35.03401526
     7          3.52483332         34.47523032        -39.36509562
     7          7.02285050         31.81189673        -36.29824039
     6          7.35373374         33.27576246        -30.92688292
     6          7.59683465         33.98299852        -28.29807235
     6          5.69223389         35.63918582        -27.81928566
     6          4.32977722         35.93493414        -30.17018791
     6          1.17780775         38.12831268        -32.75174468
     6         -0.76370982         40.00678472        -33.05840897
     6         -1.17596099         40.22242167        -35.60659752
     6          0.52742459         38.44351360        -36.80260220
     6          2.15502600         36.28131268        -40.58337258
     6          2.34643066         35.98746071        -43.28014456
     6          3.87858549         33.93666113        -43.67704484
     6          4.61125682         33.04791774        -41.19302804
     6          7.28106630         30.43581538        -38.45363174
     6          9.04248319         28.37625988        -38.08120124
     6          9.86037981         28.56081849        -35.65433057
     6          8.55867746         30.70706628        -34.56810301
     6          8.85668954         31.49023859        -32.09660129
     1         10.28474607         30.56745849        -30.97155256
     6          2.26657194         37.50740440        -30.45429655
     1          1.56151823         38.45014080        -28.78983030
     6          0.68224101         38.08369936        -39.38733897
     1         -0.43643667         39.31264106        -40.56935392
     6          6.18607096         31.00639593        -40.75449607
     1          6.70155686         29.84806950        -42.35159758
     6          5.03694445         36.96830349        -25.42529559
     1          6.36472017         36.48378578        -23.93468097
     1          3.14455441         36.44506036        -24.80046703
     1          5.07889170         39.01047791        -25.69440904
     6          9.59611429         33.00973913        -26.57137498
     1         11.46692547         33.36940623        -27.35409771
     1          9.39561011         30.97616338        -26.30627132
     1          9.47669962         33.91465169        -24.73074985
     6         -2.10827608         41.29386273        -30.94923204
     1         -1.02519224         42.90726434        -30.25802419
     1         -2.39811033         39.99992609        -29.37548415
     1         -3.93996607         41.97228128        -31.59189490
     6         -2.95531812         41.81249773        -36.93919597
     1         -3.72838377         41.02049045        -38.66242743
     6         -3.67592925         44.10937116        -36.22415612
     1         -2.90522013         45.02581532        -34.58078961
     1         -5.03478170         45.17915210        -37.29812633
     6          1.19882097         37.71437772        -45.18101423
     1          1.20831204         39.65693649        -44.50180880
     1         -0.75526071         37.18467390        -45.57391937
     1          2.25875904         37.62551384        -46.94073021
     6          4.72056064         32.83191391        -46.03035313
     1          6.58566536         31.98838582        -45.98808716
     6          3.39998125         32.76744413        -48.16561061
     1          1.50719662         33.49919482        -48.29292503
     1          4.15761739         31.93039603        -49.85965754
     6          9.74434622         26.50943804        -40.06793421
     1         10.73223909         27.44374162        -41.61635833
     1          8.06361174         25.60179762        -40.83797294
     1         10.97666959         25.05501080        -39.30186655
     6         11.69427436         26.94660742        -34.25512254
     1         13.31032243         28.06327325        -33.63392854
     1         12.38298758         25.42193977        -35.44711094
     1         10.80939077         26.12122033        -32.58802874
     8          1.55588603         31.79225090        -35.04535312
     1         -0.01286246         32.66337830        -35.27511948
     1          1.74171904         30.18105932        -34.60622955
     6          7.76584580         39.85501985        -33.98004217
     1          8.67214100         41.60395576        -34.55331999
     1          8.89344732         38.90492393        -32.55503222
     1          5.87685439         40.19273065        -33.25847853
    16          7.60613537         37.72022183        -36.69123554
     1          6.14645432         39.24487315        -38.08509335

 Electric dipole moment (dipole orientation):
 (Debye = 10**-18 statcoulomb cm , SI units = C m)
                  (au)            (Debye)         (10**-30 SI)
   Tot        0.689798D+00      0.175329D+01      0.584835D+01
   x          0.000000D+00      0.000000D+00      0.000000D+00
   y          0.000000D+00      0.000000D+00      0.000000D+00
   z          0.689798D+00      0.175329D+01      0.584835D+01

 Dipole polarizability, Alpha (dipole orientation).
 (esu units = cm**3 , SI units = C**2 m**2 J**-1)
 Alpha(0;0):
               (au)            (10**-24 esu)      (10**-40 SI)
   iso        0.549212D+03      0.813848D+02      0.905527D+02
   aniso      0.432802D+03      0.641347D+02      0.713595D+02
   xx         0.461327D+03      0.683615D+02      0.760625D+02
   yx        -0.206558D+03     -0.306087D+02     -0.340568D+02
   yy         0.504738D+03      0.747944D+02      0.832200D+02
   zx         0.550838D+02      0.816257D+01      0.908209D+01
   zy         0.559336D+02      0.828851D+01      0.922221D+01
   zz         0.681570D+03      0.100998D+03      0.112376D+03

 First dipole hyperpolarizability, Beta (dipole orientation).
 ||, _|_  parallel and perpendicular components, (z) with respect to z axis,
 vector components x,y,z.  Values do not include the 1/n! factor of 1/2.
 (esu units = statvolt**-1 cm**4 , SI units = C**3 m**3 J**-2)
 Beta(0;0,0):
               (au)            (10**-30 esu)      (10**-50 SI)
   || (z)    -0.658544D+03     -0.568931D+01     -0.211153D+01
   _|_(z)    -0.219515D+03     -0.189644D+01     -0.703843D+00
   x         -0.319204D+04     -0.275768D+02     -0.102348D+02
   y          0.272312D+04      0.235256D+02      0.873129D+01
   z         -0.329272D+04     -0.284465D+02     -0.105577D+02
   ||         0.106671D+04      0.921550D+01      0.342024D+01
   xxx       -0.590204D+03     -0.509890D+01     -0.189241D+01
   xxy        0.562774D+03      0.486193D+01      0.180446D+01
   yxy       -0.479619D+03     -0.414354D+01     -0.153783D+01
   yyy        0.483021D+03      0.417293D+01      0.154874D+01
   xxz        0.241444D+03      0.208589D+01      0.774157D+00
   yxz       -0.168321D+03     -0.145416D+01     -0.539698D+00
   yyz        0.131806D+03      0.113870D+01      0.422618D+00
   zxz        0.580838D+01      0.501799D-01      0.186238D-01
   zyz       -0.138090D+03     -0.119299D+01     -0.442767D+00
   zzz       -0.147082D+04     -0.127068D+02     -0.471599D+01

 ----------------------------------------------------------------------
 Unable to Open any file for archive entry.
 1\1\GINC-BGN1007\SP\RAPFD\def2TZVP\C31H34Fe1N4O1S1\BECSLEIP\03-Oct-202
 4\0\\# polar def2tzvp apfd int=(grid=ultrafine)\\5ibj_II_S\\0,1\Fe,0,-
 6.1479219942,24.5739676352,7.6255209234\N,0,-4.423854567,23.5341181954
 ,7.3800217643\N,0,-5.7695161889,24.6396193994,9.5941833246\N,0,-7.9374
 427727,25.3866606417,7.9217668576\N,0,-6.5401392649,24.3079420258,5.70
 12830223\C,0,-3.8338005579,23.2380894261,6.1923189465\C,0,-2.494814074
 5,22.7303750738,6.3951332089\C,0,-2.2898165313,22.722983534,7.73901742
 62\C,0,-3.5028122406,23.2380140896,8.3351189745\C,0,-4.7330078532,24.0
 797115016,10.2777065856\C,0,-4.8183460051,24.3872779521,11.6806123182\
 C,0,-5.9396326113,25.1594938829,11.8397051438\C,0,-6.5210165824,25.298
 6242022,10.5199100711\C,0,-8.3117666649,26.0869574454,9.0280923536\C,0
 ,-9.4930298483,26.8660420227,8.7661509279\C,0,-9.8326477479,26.6190926
 685,7.4612014674\C,0,-8.8320293363,25.7021704816,6.9538617808\C,0,-7.7
 322256977,24.547985164,5.0920424854\C,0,-7.6985151378,24.1127659552,3.
 7118545124\C,0,-6.4513130215,23.6169905955,3.5000934461\C,0,-5.7476600
 15,23.738043581,4.759072268\C,0,-4.4466253728,23.3193423213,4.95688475
 58\H,0,-3.8915263763,22.977200853,4.0973664206\C,0,-3.6757487365,23.40
 0559929,9.6955310676\H,0,-2.8871874521,23.0529421951,10.3445424035\C,0
 ,-7.6775399215,26.0106666278,10.2567601741\H,0,-8.1212044533,26.552919
 1588,11.0775729975\C,0,-8.8041075055,25.2087571087,5.6611112899\H,0,-9
 .6537053307,25.4136676299,5.0281784776\C,0,-1.0883980405,22.2981735887
 ,8.5110000877\H,0,-0.2943092171,21.9751315418,7.8426462225\H,0,-1.3333
 13881,21.4700340641,9.1765944136\H,0,-0.7123302851,23.1209832724,9.119
 4263938\C,0,-1.5776959217,22.3179883834,5.2959099181\H,0,-1.4432360352
 ,23.1317346277,4.5834462319\H,0,-1.9859567223,21.4620470294,4.75770546
 \H,0,-0.6027890954,22.0403932792,5.6889820718\C,0,-3.8897656033,23.873
 2463898,12.7243513802\H,0,-2.9915723116,24.4901603404,12.7866437112\H,
 0,-3.5830602466,22.8532685831,12.4974456188\H,0,-4.3794409795,23.88275
 95912,13.6960445741\C,0,-6.497751137,25.7214893936,13.0498927536\H,0,-
 7.578886767,25.7920925492,13.0767577998\C,0,-5.7978084852,26.149026765
 8,14.0954572475\H,0,-4.7218556588,26.1471407446,14.1056718188\H,0,-6.2
 821945979,26.5441154073,14.9728418642\C,0,-10.1318516951,27.8028649661
 ,9.7305215713\H,0,-9.3811808273,28.2874745951,10.3530583539\H,0,-10.82
 53592002,27.2744031,10.3869113412\H,0,-10.6866261199,28.5688199163,9.1
 924794061\C,0,-10.9254276024,27.1554575855,6.6806610037\H,0,-10.724174
 4406,27.2816281653,5.6235700094\C,0,-12.1228682354,27.4846822511,7.153
 9494613\H,0,-12.3925002628,27.3385151885,8.1852865275\H,0,-12.88831152
 07,27.8916580898,6.5143922549\C,0,-8.843546596,24.2299054257,2.7661613
 91\H,0,-9.0812453354,25.2784655402,2.584077664\H,0,-9.7312457722,23.74
 83587727,3.1758965888\H,0,-8.6073812363,23.7633567329,1.8130016017\C,0
 ,-5.8592798481,23.0385400783,2.2613141677\H,0,-4.9990093122,23.6257416
 984,1.9393017914\H,0,-6.5869613992,23.0275494543,1.4538392481\H,0,-5.5
 240804345,22.0162892431,2.4372155171\O,0,-7.131,22.62,8.07\H,0,-7.345,
 22.632,9.003\H,0,-7.286,21.952,7.504\C,0,-3.4985860659,26.6343277278,7
 .9622372056\H,0,-3.1443729496,27.6511864734,8.1004908437\H,0,-2.883510
 2591,26.1181690627,7.2323524675\H,0,-3.4981672938,26.0843225157,8.8973
 583241\S,0,-5.1928105222,26.6776239535,7.2770858857\H,0,-5.7269797426,
 27.310815951,8.3284531974\\Version=ES64L-G16RevC.02\State=1-A\HF=-3157
 .19272\RMSD=3.837e-09\Dipole=0.5564063,-0.405449,0.042943\Polar=616.53
 40098,-163.4482068,359.4962174,43.3300809,78.0663081,671.6043606\Hyper
 Polar=-866.7684295,578.3398727,-323.2472166,223.3954708,-150.9332995,1
 05.8332186,-46.3884266,297.5278519,-19.0200832,1520.7813605\Quadrupole
 =2.3099772,-3.4086104,1.0986332,-0.3855287,0.6177265,3.5569956\PG=C01 
 [X(C31H34Fe1N4O1S1)]\\@
 The archive entry for this job was punched.


 IF MATHEMATICALLY YOU END UP WITH THE INCORRECT ANSWER,
 TRY MULTIPLYING BY THE PAGE NUMBER.
 Job cpu time:       1 days 17 hours 41 minutes 44.4 seconds.
 Elapsed time:       0 days  0 hours 36 minutes 11.6 seconds.
 File lengths (MBytes):  RWF=   1013 Int=      0 D2E=      0 Chk=    130 Scr=      1
 Normal termination of Gaussian 16 at Thu Oct  3 15:08:39 2024.
 Initial command:
 /sw/chem/gaussian/g16_C02/a100/g16/l1.exe "/local/becsleip_8034756/Gau-61204.inp" -scrdir="/local/becsleip_8034756/"
 Entering Link 1 = /sw/chem/gaussian/g16_C02/a100/g16/l1.exe PID=     62790.
  
 Copyright (c) 1988-2021, Gaussian, Inc.  All Rights Reserved.
  
 This is part of the Gaussian(R) 16 program.  It is based on
 the Gaussian(R) 09 system (copyright 2009, Gaussian, Inc.),
 the Gaussian(R) 03 system (copyright 2003, Gaussian, Inc.),
 the Gaussian(R) 98 system (copyright 1998, Gaussian, Inc.),
 the Gaussian(R) 94 system (copyright 1995, Gaussian, Inc.),
 the Gaussian 92(TM) system (copyright 1992, Gaussian, Inc.),
 the Gaussian 90(TM) system (copyright 1990, Gaussian, Inc.),
 the Gaussian 88(TM) system (copyright 1988, Gaussian, Inc.),
 the Gaussian 86(TM) system (copyright 1986, Carnegie Mellon
 University), and the Gaussian 82(TM) system (copyright 1983,
 Carnegie Mellon University). Gaussian is a federally registered
 trademark of Gaussian, Inc.
  
 This software contains proprietary and confidential information,
 including trade secrets, belonging to Gaussian, Inc.
  
 This software is provided under written license and may be
 used, copied, transmitted, or stored only in accord with that
 written license.
  
 The following legend is applicable only to US Government
 contracts under FAR:
  
                    RESTRICTED RIGHTS LEGEND
  
 Use, reproduction and disclosure by the US Government is
 subject to restrictions as set forth in subparagraphs (a)
 and (c) of the Commercial Computer Software - Restricted
 Rights clause in FAR 52.227-19.
  
 Gaussian, Inc.
 340 Quinnipiac St., Bldg. 40, Wallingford CT 06492
  
  
 ---------------------------------------------------------------
 Warning -- This program may not be used in any manner that
 competes with the business of Gaussian, Inc. or will provide
 assistance to any competitor of Gaussian, Inc.  The licensee
 of this program is prohibited from giving any competitor of
 Gaussian, Inc. access to this program.  By using this program,
 the user acknowledges that Gaussian, Inc. is engaged in the
 business of creating and licensing software in the field of
 computational chemistry and represents and warrants to the
 licensee that it is not a competitor of Gaussian, Inc. and that
 it will not use this program in any manner prohibited above.
 ---------------------------------------------------------------
  

 Cite this work as:
 Gaussian 16, Revision C.02,
 M. J. Frisch, G. W. Trucks, H. B. Schlegel, G. E. Scuseria, 
 M. A. Robb, J. R. Cheeseman, G. Scalmani, V. Barone, 
 G. A. Petersson, H. Nakatsuji, X. Li, M. Caricato, A. V. Marenich, 
 J. Bloino, B. G. Janesko, R. Gomperts, B. Mennucci, H. P. Hratchian, 
 J. V. Ortiz, A. F. Izmaylov, J. L. Sonnenberg, D. Williams-Young, 
 F. Ding, F. Lipparini, F. Egidi, J. Goings, B. Peng, A. Petrone, 
 T. Henderson, D. Ranasinghe, V. G. Zakrzewski, J. Gao, N. Rega, 
 G. Zheng, W. Liang, M. Hada, M. Ehara, K. Toyota, R. Fukuda, 
 J. Hasegawa, M. Ishida, T. Nakajima, Y. Honda, O. Kitao, H. Nakai, 
 T. Vreven, K. Throssell, J. A. Montgomery, Jr., J. E. Peralta, 
 F. Ogliaro, M. J. Bearpark, J. J. Heyd, E. N. Brothers, K. N. Kudin, 
 V. N. Staroverov, T. A. Keith, R. Kobayashi, J. Normand, 
 K. Raghavachari, A. P. Rendell, J. C. Burant, S. S. Iyengar, 
 J. Tomasi, M. Cossi, J. M. Millam, M. Klene, C. Adamo, R. Cammi, 
 J. W. Ochterski, R. L. Martin, K. Morokuma, O. Farkas, 
 J. B. Foresman, and D. J. Fox, Gaussian, Inc., Wallingford CT, 2019.
 
 ******************************************
 Gaussian 16:  ES64L-G16RevC.02  7-Dec-2021
                 3-Oct-2024 
 ******************************************
 %mem=16GB
 %CPU=0-71
 SetSPE:  set environment variable "OMP_PROC_BIND" = "true"
 SetSPE:  set environment variable "OMP_PLACES" = "{0},{1},{2},{3},{4},{5},{6},{7},{8},{9},{10},{11},{12},{13},{14},{15},{16},{17},{18},{19},{20},{21},{22},{23},{24},{25},{26},{27},{28},{29},{30},{31},{32},{33},{34},{35},{36},{37},{38},{39},{40},{41},{42},{43},{44},{45},{46},{47},{48},{49},{50},{51},{52},{53},{54},{55},{56},{57},{58},{59},{60},{61},{62},{63},{64},{65},{66},{67},{68},{69},{70},{71}"
 Will use up to   72 processors via shared memory.
 %gpucpu=0,1,2,3=0,1,2,3
 Will use    4 GPUs:
 Thread  CPU   GPU
      0    0     0
      1    1     1
      2    2     2
      3    3     3
      4    4    -1
      5    5    -1
      6    6    -1
      7    7    -1
      8    8    -1
      9    9    -1
     10   10    -1
     11   11    -1
     12   12    -1
     13   13    -1
     14   14    -1
     15   15    -1
     16   16    -1
     17   17    -1
     18   18    -1
     19   19    -1
     20   20    -1
     21   21    -1
     22   22    -1
     23   23    -1
     24   24    -1
     25   25    -1
     26   26    -1
     27   27    -1
     28   28    -1
     29   29    -1
     30   30    -1
     31   31    -1
     32   32    -1
     33   33    -1
     34   34    -1
     35   35    -1
     36   36    -1
     37   37    -1
     38   38    -1
     39   39    -1
     40   40    -1
     41   41    -1
     42   42    -1
     43   43    -1
     44   44    -1
     45   45    -1
     46   46    -1
     47   47    -1
     48   48    -1
     49   49    -1
     50   50    -1
     51   51    -1
     52   52    -1
     53   53    -1
     54   54    -1
     55   55    -1
     56   56    -1
     57   57    -1
     58   58    -1
     59   59    -1
     60   60    -1
     61   61    -1
     62   62    -1
     63   63    -1
     64   64    -1
     65   65    -1
     66   66    -1
     67   67    -1
     68   68    -1
     69   69    -1
     70   70    -1
     71   71    -1
 SetGPE:  set environment variable "OMP_PROC_BIND" = "true"
 SetGPE:  set environment variable "OMP_PLACES" = "{0},{1},{2},{3},{4},{5},{6},{7},{8},{9},{10},{11},{12},{13},{14},{15},{16},{17},{18},{19},{20},{21},{22},{23},{24},{25},{26},{27},{28},{29},{30},{31},{32},{33},{34},{35},{36},{37},{38},{39},{40},{41},{42},{43},{44},{45},{46},{47},{48},{49},{50},{51},{52},{53},{54},{55},{56},{57},{58},{59},{60},{61},{62},{63},{64},{65},{66},{67},{68},{69},{70},{71}"
 %oldchk=5ibj_II_O.chk
 %chk=5ibj_II_Sn.chk
 Properties for Device   0
 Minimum vector length:                              32
 Maximum vector length:                            1024
 Number of SMPs:                                    108
 Maximum number of threads per SMP:                2048
 Number of ASync Engines:                             5
 Memory:                                           9207742464
 Properties for Device   1
 Minimum vector length:                              32
 Maximum vector length:                            1024
 Number of SMPs:                                    108
 Maximum number of threads per SMP:                2048
 Number of ASync Engines:                             5
 Memory:                                           9207742464
 Properties for Device   2
 Minimum vector length:                              32
 Maximum vector length:                            1024
 Number of SMPs:                                    108
 Maximum number of threads per SMP:                2048
 Number of ASync Engines:                             5
 Memory:                                           9207742464
 Properties for Device   3
[...]
  1139. RY*(  16) C  56                  0.00001     2.07928   
  1140. RY*(  17) C  56                  0.00000     2.87425   
  1141. RY*(  18) C  56                  0.00000     3.38292   
  1142. RY*(  19) C  56                  0.00000     2.96618   
  1143. RY*(  20) C  56                  0.00000     3.27708   
  1144. RY*(  21) C  56                  0.00000     3.79815   
  1145. RY*(  22) C  56                  0.00000     3.62772   
  1146. RY*(  23) C  56                  0.00000     3.35153   
  1147. RY*(  24) C  56                  0.00000     3.44487   
  1148. RY*(  25) C  56                  0.00000     3.71337   
  1149. RY*(  26) C  56                  0.00000     3.92920   
  1150. RY*(   1) H  57                  0.00095     0.92837   
  1151. RY*(   2) H  57                  0.00017     1.81830   
  1152. RY*(   3) H  57                  0.00006     2.09310   
  1153. RY*(   4) H  57                  0.00006     2.04406   
  1154. RY*(   5) H  57                  0.00001     2.97207   
  1155. RY*(   1) H  58                  0.00084     0.90351   
  1156. RY*(   2) H  58                  0.00018     1.85606   
  1157. RY*(   3) H  58                  0.00007     2.15293   
  1158. RY*(   4) H  58                  0.00005     1.98078   
  1159. RY*(   5) H  58                  0.00001     2.96881   
  1160. RY*(   1) H  59                  0.00073     0.86461   
  1161. RY*(   2) H  59                  0.00013     1.69908   
  1162. RY*(   3) H  59                  0.00011     2.15449   
  1163. RY*(   4) H  59                  0.00007     2.08624   
  1164. RY*(   5) H  59                  0.00001     2.99540   
  1165. RY*(   1) C  60                  0.00146     1.31822   
  1166. RY*(   2) C  60                  0.00140     1.22049   
  1167. RY*(   3) C  60                  0.00074     1.38026   
  1168. RY*(   4) C  60                  0.00014     1.07921   
  1169. RY*(   5) C  60                  0.00004     1.93342   
  1170. RY*(   6) C  60                  0.00005     1.49411   
  1171. RY*(   7) C  60                  0.00001     1.23871   
  1172. RY*(   8) C  60                  0.00001     2.03128   
  1173. RY*(   9) C  60                  0.00002     2.60858   
  1174. RY*(  10) C  60                  0.00002     2.74498   
  1175. RY*(  11) C  60                  0.00001     1.73526   
  1176. RY*(  12) C  60                  0.00000     2.92009   
  1177. RY*(  13) C  60                  0.00000     2.43877   
  1178. RY*(  14) C  60                  0.00001     2.28762   
  1179. RY*(  15) C  60                  0.00000     2.60243   
  1180. RY*(  16) C  60                  0.00000    21.02767   
  1181. RY*(  17) C  60                  0.00000     2.86943   
  1182. RY*(  18) C  60                  0.00000     3.59940   
  1183. RY*(  19) C  60                  0.00000     3.02387   
  1184. RY*(  20) C  60                  0.00000     3.28678   
  1185. RY*(  21) C  60                  0.00000     3.54946   
  1186. RY*(  22) C  60                  0.00000     3.81388   
  1187. RY*(  23) C  60                  0.00000     3.33956   
  1188. RY*(  24) C  60                  0.00000     3.47597   
  1189. RY*(  25) C  60                  0.00000     3.90660   
  1190. RY*(  26) C  60                  0.00000     3.69593   
  1191. RY*(   1) H  61                  0.00091     0.90929   
  1192. RY*(   2) H  61                  0.00018     1.82339   
  1193. RY*(   3) H  61                  0.00006     2.04059   
  1194. RY*(   4) H  61                  0.00006     2.10743   
  1195. RY*(   5) H  61                  0.00001     2.96744   
  1196. RY*(   1) H  62                  0.00073     0.85910   
  1197. RY*(   2) H  62                  0.00013     1.70217   
  1198. RY*(   3) H  62                  0.00011     2.16093   
  1199. RY*(   4) H  62                  0.00007     2.08177   
  1200. RY*(   5) H  62                  0.00001     2.99631   
  1201. RY*(   1) H  63                  0.00090     0.90676   
  1202. RY*(   2) H  63                  0.00018     1.84839   
  1203. RY*(   3) H  63                  0.00006     2.06003   
  1204. RY*(   4) H  63                  0.00006     2.06268   
  1205. RY*(   5) H  63                  0.00001     2.97335   
  1317. BD*(   1) N   2 - C   6          0.02557     0.51514   
  1318. BD*(   1) N   2 - C   9          0.02614     0.51410   
  1319. BD*(   2) N   2 - C   9          0.62451     0.01228  1339(v),1330(v),1324(r)
                                                    1332(v),366(g),182(g),142(r)
                                                    733(v),141(r),145(r),144(r)
                                                    1316(r),143(r)
  1320. BD*(   1) N   3 - C  10          0.02721     0.50167   
  1321. BD*(   1) N   3 - C  13          0.02656     0.50093   
  1322. BD*(   1) N   4 - C  14          0.02686     0.50806   
  1323. BD*(   1) N   4 - C  17          0.02594     0.51880   
  1324. BD*(   2) N   4 - C  17          0.60605     0.01231  1357(v),1350(v),1319(r)
                                                    151(v),141(r),574(g),142(r)
                                                    234(g),573(g),795(v),144(r)
                                                    145(r),143(r),1316(r)
  1325. BD*(   1) N   5 - C  18          0.02662     0.51324   
  1326. BD*(   1) N   5 - C  21          0.02617     0.51789   
  1327. BD*(   2) N   5 - C  21          0.60942     0.01462  1330(v),1357(v),1359(v)
                                                    678(g),260(g),145(r),702(v)
                                                    1316(r),141(r)
  1328. BD*(   1) C   6 - C   7          0.03571     0.49192   
  1329. BD*(   1) C   6 - C  22          0.02117     0.57938   
  1330. BD*(   2) C   6 - C  22          0.41581     0.04828  1327(v),1332(v),1319(v)
                                                    702(g),1357(r),1339(r)
                                                    290(g)
  1331. BD*(   1) C   7 - C   8          0.02268     0.60845   
  1332. BD*(   2) C   7 - C   8          0.24836     0.06925  1330(v),1319(v),1372(v)
                                                    1369(v),1370(v),1371(v)
  1333. BD*(   1) C   7 - C  34          0.01739     0.41503   
  1334. BD*(   1) C   8 - C   9          0.03595     0.49236   
  1335. BD*(   1) C   8 - C  30          0.01741     0.41450   
  1336. BD*(   1) C   9 - C  24          0.02118     0.57810   
  1337. BD*(   1) C  10 - C  11          0.03428     0.49880   
  1338. BD*(   1) C  10 - C  24          0.02155     0.57004   
  1339. BD*(   2) C  10 - C  24          0.43689     0.04317  1319(v),1341(v),1346(r)
                                                    148(v),733(g),1330(r),392(g)
                                                    394(g)
  1340. BD*(   1) C  11 - C  12          0.02498     0.58863   
  1341. BD*(   2) C  11 - C  12          0.29356     0.06241  1379(v),1339(v),1346(v)
                                                    1374(v),1375(v)
  1342. BD*(   1) C  11 - C  38          0.01643     0.41500   
  1343. BD*(   1) C  12 - C  13          0.03444     0.48709   
  1344. BD*(   1) C  12 - C  42          0.02673     0.49509   
  1345. BD*(   1) C  13 - C  26          0.02092     0.57297   
  1346. BD*(   2) C  13 - C  26          0.41941     0.04349  1341(v),1339(r),151(v)
                                                    148(v),764(g),1379(r),470(g)
                                                    472(g)
  1347. BD*(   1) C  14 - C  15          0.03451     0.50029   
  1348. BD*(   1) C  14 - C  26          0.02160     0.57218   
  1349. BD*(   1) C  15 - C  16          0.02482     0.59117   
  1350. BD*(   2) C  15 - C  16          0.29032     0.06545  1387(v),1324(v),151(v)
                                                    1383(v),1382(v)
  1351. BD*(   1) C  15 - C  47          0.01643     0.41745   
  1352. BD*(   1) C  16 - C  17          0.03465     0.48993   
  1353. BD*(   1) C  16 - C  51          0.02659     0.49846   
  1354. BD*(   1) C  17 - C  28          0.02098     0.57714   
  1355. BD*(   1) C  18 - C  19          0.03487     0.49154   
  1356. BD*(   1) C  18 - C  28          0.02075     0.57888   
  1357. BD*(   2) C  18 - C  28          0.39933     0.05073  1324(v),1359(v),1327(v)
                                                    795(g),1330(r),602(g)
  1358. BD*(   1) C  19 - C  20          0.02248     0.61109   
  1359. BD*(   2) C  19 - C  20          0.24364     0.07151  1357(v),1327(v),1390(v)
                                                    1393(v),1395(v),1391(v)
  1360. BD*(   1) C  19 - C  56          0.01718     0.41693   
  1361. BD*(   1) C  20 - C  21          0.03517     0.49137   
  1362. BD*(   1) C  20 - C  60          0.01721     0.41625   
  1363. BD*(   1) C  21 - C  22          0.02090     0.58062   
  1364. BD*(   1) C  22 - H  23          0.01280     0.43409   
  1365. BD*(   1) C  24 - H  25          0.01282     0.43435   
  1366. BD*(   1) C  26 - H  27          0.01323     0.43459   
  1367. BD*(   1) C  28 - H  29          0.01299     0.43496   
  1368. BD*(   1) C  30 - H  31          0.00673     0.38975   
  1369. BD*(   1) C  30 - H  32          0.01107     0.37822   
  1370. BD*(   1) C  30 - H  33          0.01074     0.37835   
  1371. BD*(   1) C  34 - H  35          0.01036     0.37959   
  1372. BD*(   1) C  34 - H  36          0.01138     0.37817   
  1373. BD*(   1) C  34 - H  37          0.00674     0.38959   
  1374. BD*(   1) C  38 - H  39          0.01264     0.37544   
  1375. BD*(   1) C  38 - H  40          0.00983     0.38442   
  1376. BD*(   1) C  38 - H  41          0.00821     0.39149   
  1377. BD*(   1) C  42 - H  43          0.02119     0.42212   
  1378. BD*(   1) C  42 - C  44          0.00780     0.63071   
  1379. BD*(   2) C  42 - C  44          0.07715     0.05678   
  1380. BD*(   1) C  44 - H  45          0.01104     0.43367   
  1381. BD*(   1) C  44 - H  46          0.00855     0.43433   
  1382. BD*(   1) C  47 - H  48          0.00984     0.38709   
  1383. BD*(   1) C  47 - H  49          0.01281     0.37802   
  1384. BD*(   1) C  47 - H  50          0.00812     0.39338   
  1385. BD*(   1) C  51 - H  52          0.02107     0.42551   
  1386. BD*(   1) C  51 - C  53          0.00777     0.63412   
  1387. BD*(   2) C  51 - C  53          0.07671     0.05857   
  1388. BD*(   1) C  53 - H  54          0.01105     0.43646   
  1389. BD*(   1) C  53 - H  55          0.00857     0.43664   
  1390. BD*(   1) C  56 - H  57          0.01138     0.38033   
  1391. BD*(   1) C  56 - H  58          0.01021     0.38246   
  1392. BD*(   1) C  56 - H  59          0.00670     0.39173   
  1393. BD*(   1) C  60 - H  61          0.01102     0.38017   
  1394. BD*(   1) C  60 - H  62          0.00669     0.39155   
  1395. BD*(   1) C  60 - H  63          0.01077     0.38061   
       -------------------------------
              Total Lewis  230.19645  ( 97.2620%)
        Valence non-Lewis    5.97529  (  2.5247%)
        Rydberg non-Lewis    0.50482  (  0.2133%)
       -------------------------------
            Total unit  2  236.67655  (100.0000%)
           Charge unit  2   -0.67655
 
 Molecular unit  3  (H2O)
    81. BD (   1) O  64 - H  65          1.99176    -0.81506  145(r),156(r),1238(v)
                                                    1316(r),148(r),158(r),159(r)
                                                    142(r),163(r),143(r),263(r)
                                                    264(r),235(r),183(r),212(r)
                                                    262(r),268(r)
    82. BD (   1) O  64 - H  66          1.99436    -0.87789  145(r),156(r),1234(v),142(r)
                                                    1316(r),212(r),211(r),161(r)
                                                    235(r),158(r),159(r),183(r)
                                                    157(r),238(r),163(r)
   131. CR (   1) O  64                  1.99980   -18.97116  145(r),1234(v),1238(v)
                                                    1239(v),142(r),1316(r)
                                                    158(r)
   152. LP (   1) O  64                  1.99198    -0.33707  144(r),1237(v),1233(v)
                                                    148(r),162(r),143(r),157(r)
                                                    1324(r),186(r),238(r),242(r)
   153. LP (   2) O  64                  1.83249    -0.50193  145(r),1238(v),1396(g)
                                                    1234(v),1397(g),160(r)
                                                    163(r),1232(v),1316(r)
                                                    142(r),234(r),182(r),159(r)
                                                    211(r),184(r),236(r),208(r)
                                                    237(r),185(r),1290(r),210(r)
                                                    260(r),263(r),144(r),148(r)
                                                    262(r),1322(r),1317(r)
                                                    1326(r)
  1206. RY*(   1) O  64                  0.00263     0.61050   
  1207. RY*(   2) O  64                  0.00238     1.19282   
  1208. RY*(   3) O  64                  0.00037     1.24739   
  1209. RY*(   4) O  64                  0.00022     1.11930   
  1210. RY*(   5) O  64                  0.00009     2.71042   
  1211. RY*(   6) O  64                  0.00003     2.16298   
  1212. RY*(   7) O  64                  0.00004     3.50328   
  1213. RY*(   8) O  64                  0.00002     3.49369   
  1214. RY*(   9) O  64                  0.00001     3.69218   
  1215. RY*(  10) O  64                  0.00000    41.76815   
  1216. RY*(  11) O  64                  0.00000     6.41197   
  1217. RY*(  12) O  64                  0.00000     3.47144   
  1218. RY*(  13) O  64                  0.00000     6.43391   
  1219. RY*(  14) O  64                  0.00000     2.83161   
  1220. RY*(  15) O  64                  0.00000     6.55800   
  1221. RY*(  16) O  64                  0.00001     2.47960   
  1222. RY*(  17) O  64                  0.00000     6.26425   
  1223. RY*(  18) O  64                  0.00000     2.62429   
  1224. RY*(  19) O  64                  0.00000     6.52444   
  1225. RY*(  20) O  64                  0.00000     5.38545   
  1226. RY*(  21) O  64                  0.00000     5.18237   
  1227. RY*(  22) O  64                  0.00000     5.49631   
  1228. RY*(  23) O  64                  0.00000     5.50939   
  1229. RY*(  24) O  64                  0.00000     5.63500   
  1230. RY*(  25) O  64                  0.00000     5.62523   
  1231. RY*(  26) O  64                  0.00000     5.38235   
  1232. RY*(   1) H  65                  0.00126     0.66666   
  1233. RY*(   2) H  65                  0.00081     1.99932   
  1234. RY*(   3) H  65                  0.00064     2.35288   
  1235. RY*(   4) H  65                  0.00020     2.07911   
  1236. RY*(   5) H  65                  0.00001     2.88540   
  1237. RY*(   1) H  66                  0.00096     2.01890   
  1238. RY*(   2) H  66                  0.00075     1.90522   
  1239. RY*(   3) H  66                  0.00051     1.76735   
  1240. RY*(   4) H  66                  0.00022     1.71042   
  1241. RY*(   5) H  66                  0.00001     3.01242   
  1396. BD*(   1) O  64 - H  65          0.00370     0.42686   
  1397. BD*(   1) O  64 - H  66          0.00238     0.60195   
       -------------------------------
              Total Lewis    9.81038  ( 99.8244%)
        Valence non-Lewis    0.00608  (  0.0619%)
        Rydberg non-Lewis    0.01117  (  0.1137%)
       -------------------------------
            Total unit  3    9.82763  (100.0000%)
           Charge unit  3    0.17237
 Unable to Open any file for archive entry.
 1\1\GINC-BGN1007\SP\RAPFD\def2TZVP\C31H34Fe1N4O1S1\BECSLEIP\03-Oct-202
 4\0\\# apfd/def2TZVP int=(grid=ultrafine) geom=check guess=read pop=nb
 o scf=qc\\5ibj_II_S_nbo\\0,1\Fe,0,-6.1479219942,24.5739676352,7.625520
 9234\N,0,-4.423854567,23.5341181954,7.3800217643\N,0,-5.7695161889,24.
 6396193994,9.5941833246\N,0,-7.9374427727,25.3866606417,7.9217668576\N
 ,0,-6.5401392649,24.3079420258,5.7012830223\C,0,-3.8338005579,23.23808
 94261,6.1923189465\C,0,-2.4948140745,22.7303750738,6.3951332089\C,0,-2
 .2898165313,22.722983534,7.7390174262\C,0,-3.5028122406,23.2380140896,
 8.3351189745\C,0,-4.7330078532,24.0797115016,10.2777065856\C,0,-4.8183
 460051,24.3872779521,11.6806123182\C,0,-5.9396326113,25.1594938829,11.
 8397051438\C,0,-6.5210165824,25.2986242022,10.5199100711\C,0,-8.311766
 6649,26.0869574454,9.0280923536\C,0,-9.4930298483,26.8660420227,8.7661
 509279\C,0,-9.8326477479,26.6190926685,7.4612014674\C,0,-8.8320293363,
 25.7021704816,6.9538617808\C,0,-7.7322256977,24.547985164,5.0920424854
 \C,0,-7.6985151378,24.1127659552,3.7118545124\C,0,-6.4513130215,23.616
 9905955,3.5000934461\C,0,-5.747660015,23.738043581,4.759072268\C,0,-4.
 4466253728,23.3193423213,4.9568847558\H,0,-3.8915263763,22.977200853,4
 .0973664206\C,0,-3.6757487365,23.400559929,9.6955310676\H,0,-2.8871874
 521,23.0529421951,10.3445424035\C,0,-7.6775399215,26.0106666278,10.256
 7601741\H,0,-8.1212044533,26.5529191588,11.0775729975\C,0,-8.804107505
 5,25.2087571087,5.6611112899\H,0,-9.6537053307,25.4136676299,5.0281784
 776\C,0,-1.0883980405,22.2981735887,8.5110000877\H,0,-0.2943092171,21.
 9751315418,7.8426462225\H,0,-1.333313881,21.4700340641,9.1765944136\H,
 0,-0.7123302851,23.1209832724,9.1194263938\C,0,-1.5776959217,22.317988
 3834,5.2959099181\H,0,-1.4432360352,23.1317346277,4.5834462319\H,0,-1.
 9859567223,21.4620470294,4.75770546\H,0,-0.6027890954,22.0403932792,5.
 6889820718\C,0,-3.8897656033,23.8732463898,12.7243513802\H,0,-2.991572
 3116,24.4901603404,12.7866437112\H,0,-3.5830602466,22.8532685831,12.49
 74456188\H,0,-4.3794409795,23.8827595912,13.6960445741\C,0,-6.49775113
 7,25.7214893936,13.0498927536\H,0,-7.578886767,25.7920925492,13.076757
 7998\C,0,-5.7978084852,26.1490267658,14.0954572475\H,0,-4.7218556588,2
 6.1471407446,14.1056718188\H,0,-6.2821945979,26.5441154073,14.97284186
 42\C,0,-10.1318516951,27.8028649661,9.7305215713\H,0,-9.3811808273,28.
 2874745951,10.3530583539\H,0,-10.8253592002,27.2744031,10.3869113412\H
 ,0,-10.6866261199,28.5688199163,9.1924794061\C,0,-10.9254276024,27.155
 4575855,6.6806610037\H,0,-10.7241744406,27.2816281653,5.6235700094\C,0
 ,-12.1228682354,27.4846822511,7.1539494613\H,0,-12.3925002628,27.33851
 51885,8.1852865275\H,0,-12.8883115207,27.8916580898,6.5143922549\C,0,-
 8.843546596,24.2299054257,2.766161391\H,0,-9.0812453354,25.2784655402,
 2.584077664\H,0,-9.7312457722,23.7483587727,3.1758965888\H,0,-8.607381
 2363,23.7633567329,1.8130016017\C,0,-5.8592798481,23.0385400783,2.2613
 141677\H,0,-4.9990093122,23.6257416984,1.9393017914\H,0,-6.5869613992,
 23.0275494543,1.4538392481\H,0,-5.5240804345,22.0162892431,2.437215517
 1\O,0,-7.131,22.62,8.07\H,0,-7.345,22.632,9.003\H,0,-7.286,21.952,7.50
 4\C,0,-3.4985860659,26.6343277278,7.9622372056\H,0,-3.1443729496,27.65
 11864734,8.1004908437\H,0,-2.8835102591,26.1181690627,7.2323524675\H,0
 ,-3.4981672938,26.0843225157,8.8973583241\S,0,-5.1928105222,26.6776239
 535,7.2770858857\H,0,-5.7269797426,27.310815951,8.3284531974\\Version=
 ES64L-G16RevC.02\State=1-A\HF=-3157.19272\RMSD=2.233e-09\Dipole=0.5564
 063,-0.405449,0.042943\Quadrupole=2.3099772,-3.4086104,1.0986332,-0.38
 55287,0.6177265,3.5569956\PG=C01 [X(C31H34Fe1N4O1S1)]\\@
 The archive entry for this job was punched.


 BLACK HOLES SUCK.
 Job cpu time:       0 days  0 hours 37 minutes  1.7 seconds.
 Elapsed time:       0 days  0 hours  0 minutes 46.0 seconds.
 File lengths (MBytes):  RWF=    664 Int=      0 D2E=      0 Chk=    156 Scr=      1
 Normal termination of Gaussian 16 at Thu Oct  3 15:09:28 2024.
