 Entering Gaussian System, Link 0=g16
 Input=5ik105.com
 Output=5ik105.log
 Initial command:
 /sw/chem/gaussian/g16_C02/a100/g16/l1.exe "/local/becsleip_8038676/Gau-99623.inp" -scrdir="/local/becsleip_8038676/"
 Entering Link 1 = /sw/chem/gaussian/g16_C02/a100/g16/l1.exe PID=     99624.
  
 Copyright (c) 1988-2021, Gaussian, Inc.  All Rights Reserved.
  
 This is part of the Gaussian(R) 16 program.  It is based on
 the Gaussian(R) 09 system (copyright 2009, Gaussian, Inc.),
 the Gaussian(R) 03 system (copyright 2003, Gaussian, Inc.),
 the Gaussian(R) 98 system (copyright 1998, Gaussian, Inc.),
 the Gaussian(R) 94 system (copyright 1995, Gaussian, Inc.),
 the Gaussian 92(TM) system (copyright 1992, Gaussian, Inc.),
 the Gaussian 90(TM) system (copyright 1990, Gaussian, Inc.),
 the Gaussian 88(TM) system (copyright 1988, Gaussian, Inc.),
 the Gaussian 86(TM) system (copyright 1986, Carnegie Mellon
 University), and the Gaussian 82(TM) system (copyright 1983,
 Carnegie Mellon University). Gaussian is a federally registered
 trademark of Gaussian, Inc.
  
 This software contains proprietary and confidential information,
 including trade secrets, belonging to Gaussian, Inc.
  
 This software is provided under written license and may be
 used, copied, transmitted, or stored only in accord with that
 written license.
  
 The following legend is applicable only to US Government
 contracts under FAR:
  
                    RESTRICTED RIGHTS LEGEND
  
 Use, reproduction and disclosure by the US Government is
 subject to restrictions as set forth in subparagraphs (a)
 and (c) of the Commercial Computer Software - Restricted
 Rights clause in FAR 52.227-19.
  
 Gaussian, Inc.
 340 Quinnipiac St., Bldg. 40, Wallingford CT 06492
  
  
 ---------------------------------------------------------------
 Warning -- This program may not be used in any manner that
 competes with the business of Gaussian, Inc. or will provide
 assistance to any competitor of Gaussian, Inc.  The licensee
 of this program is prohibited from giving any competitor of
 Gaussian, Inc. access to this program.  By using this program,
 the user acknowledges that Gaussian, Inc. is engaged in the
 business of creating and licensing software in the field of
 computational chemistry and represents and warrants to the
 licensee that it is not a competitor of Gaussian, Inc. and that
 it will not use this program in any manner prohibited above.
 ---------------------------------------------------------------
  

 Cite this work as:
 Gaussian 16, Revision C.02,
 M. J. Frisch, G. W. Trucks, H. B. Schlegel, G. E. Scuseria, 
 M. A. Robb, J. R. Cheeseman, G. Scalmani, V. Barone, 
 G. A. Petersson, H. Nakatsuji, X. Li, M. Caricato, A. V. Marenich, 
 J. Bloino, B. G. Janesko, R. Gomperts, B. Mennucci, H. P. Hratchian, 
 J. V. Ortiz, A. F. Izmaylov, J. L. Sonnenberg, D. Williams-Young, 
 F. Ding, F. Lipparini, F. Egidi, J. Goings, B. Peng, A. Petrone, 
 T. Henderson, D. Ranasinghe, V. G. Zakrzewski, J. Gao, N. Rega, 
 G. Zheng, W. Liang, M. Hada, M. Ehara, K. Toyota, R. Fukuda, 
 J. Hasegawa, M. Ishida, T. Nakajima, Y. Honda, O. Kitao, H. Nakai, 
 T. Vreven, K. Throssell, J. A. Montgomery, Jr., J. E. Peralta, 
 F. Ogliaro, M. J. Bearpark, J. J. Heyd, E. N. Brothers, K. N. Kudin, 
 V. N. Staroverov, T. A. Keith, R. Kobayashi, J. Normand, 
 K. Raghavachari, A. P. Rendell, J. C. Burant, S. S. Iyengar, 
 J. Tomasi, M. Cossi, J. M. Millam, M. Klene, C. Adamo, R. Cammi, 
 J. W. Ochterski, R. L. Martin, K. Morokuma, O. Farkas, 
 J. B. Foresman, and D. J. Fox, Gaussian, Inc., Wallingford CT, 2019.
 
 ******************************************
 Gaussian 16:  ES64L-G16RevC.02  7-Dec-2021
                 4-Oct-2024 
 ******************************************
 %mem=16GB
 %CPU=0-71
 SetSPE:  set environment variable "OMP_PROC_BIND" = "true"
 SetSPE:  set environment variable "OMP_PLACES" = "{0},{1},{2},{3},{4},{5},{6},{7},{8},{9},{10},{11},{12},{13},{14},{15},{16},{17},{18},{19},{20},{21},{22},{23},{24},{25},{26},{27},{28},{29},{30},{31},{32},{33},{34},{35},{36},{37},{38},{39},{40},{41},{42},{43},{44},{45},{46},{47},{48},{49},{50},{51},{52},{53},{54},{55},{56},{57},{58},{59},{60},{61},{62},{63},{64},{65},{66},{67},{68},{69},{70},{71}"
 Will use up to   72 processors via shared memory.
 %gpucpu=0,1,2,3=0,1,2,3
 Will use    4 GPUs:
 Thread  CPU   GPU
      0    0     0
      1    1     1
      2    2     2
      3    3     3
      4    4    -1
      5    5    -1
      6    6    -1
      7    7    -1
      8    8    -1
      9    9    -1
     10   10    -1
     11   11    -1
     12   12    -1
     13   13    -1
     14   14    -1
     15   15    -1
     16   16    -1
     17   17    -1
     18   18    -1
     19   19    -1
     20   20    -1
     21   21    -1
     22   22    -1
     23   23    -1
     24   24    -1
     25   25    -1
     26   26    -1
     27   27    -1
     28   28    -1
     29   29    -1
     30   30    -1
     31   31    -1
     32   32    -1
     33   33    -1
     34   34    -1
     35   35    -1
     36   36    -1
     37   37    -1
     38   38    -1
     39   39    -1
     40   40    -1
     41   41    -1
     42   42    -1
     43   43    -1
     44   44    -1
     45   45    -1
     46   46    -1
     47   47    -1
     48   48    -1
     49   49    -1
     50   50    -1
     51   51    -1
     52   52    -1
     53   53    -1
     54   54    -1
     55   55    -1
     56   56    -1
     57   57    -1
     58   58    -1
     59   59    -1
     60   60    -1
     61   61    -1
     62   62    -1
     63   63    -1
     64   64    -1
     65   65    -1
     66   66    -1
     67   67    -1
     68   68    -1
     69   69    -1
     70   70    -1
     71   71    -1
 SetGPE:  set environment variable "OMP_PROC_BIND" = "true"
 SetGPE:  set environment variable "OMP_PLACES" = "{0},{1},{2},{3},{4},{5},{6},{7},{8},{9},{10},{11},{12},{13},{14},{15},{16},{17},{18},{19},{20},{21},{22},{23},{24},{25},{26},{27},{28},{29},{30},{31},{32},{33},{34},{35},{36},{37},{38},{39},{40},{41},{42},{43},{44},{45},{46},{47},{48},{49},{50},{51},{52},{53},{54},{55},{56},{57},{58},{59},{60},{61},{62},{63},{64},{65},{66},{67},{68},{69},{70},{71}"
 %oldchk=5ik1_II_Sre.chk
 %chk=5ik1_II_Qn.chk
 Properties for Device   0
 Minimum vector length:                              32
 Maximum vector length:                            1024
 Number of SMPs:                                    108
 Maximum number of threads per SMP:                2048
 Number of ASync Engines:                             5
 Memory:                                           9207742464
 Properties for Device   1
 Minimum vector length:                              32
 Maximum vector length:                            1024
 Number of SMPs:                                    108
 Maximum number of threads per SMP:                2048
 Number of ASync Engines:                             5
 Memory:                                           9207742464
 Properties for Device   2
 Minimum vector length:                              32
 Maximum vector length:                            1024
 Number of SMPs:                                    108
 Maximum number of threads per SMP:                2048
 Number of ASync Engines:                             5
 Memory:                                           9207742464
 Properties for Device   3
 Minimum vector length:                              32
 Maximum vector length:                            1024
 Number of SMPs:                                    108
 Maximum number of threads per SMP:                2048
 Number of ASync Engines:                             5
 Memory:                                           9207742464
   8286968217 words of memory will be used on each GPU.
 Copying data from "5ik1_II_Sre.chk" to current chk file "5ik1_II_Qn.chk"
 IOpt=  2 FromEx=T IUOpen= 4 IOptOp= 5 NList=   0 IFRang= 0 IUIn= 4 IUOut= 2.
 --------------------------------------------------------------
 # apfd/def2TZVP guess=read scf=maxcycle=999 geom=check pop=nbo
 --------------------------------------------------------------
 1/29=2,38=1,172=1/1;
 2/12=2,40=1/2;
 3/5=44,7=101,11=2,14=-4,25=1,30=1,74=-44,116=-2/1,2,3;
 4/5=1/1;
 5/5=2,7=999,38=6/2;
 6/7=2,8=2,9=2,10=2,28=1,40=1/1,7;
 99/5=1,9=1/99;
 ---------
 5ik1_II_Q
 ---------
 Structure from the checkpoint file:  "5ik1_II_Qn.chk"
 Charge =  0 Multiplicity = 5
 Z-Matrix found in chk file.
 Fe,0,0.7766474327,22.019127184,-18.3313144924
 N,0,-0.9902536885,21.4542996136,-19.0425817423
 N,0,-0.0918089915,22.7461005821,-16.6819713421
 N,0,2.5699473587,22.653790944,-17.6559083934
 N,0,1.6509298885,21.4974230396,-20.0550510521
 C,0,-1.2328838712,20.815347377,-20.2156943719
 C,0,-2.6388137478,20.5014058666,-20.3450714904
 C,0,-3.2375466377,20.9612274501,-19.2143194751
 C,0,-2.1935182132,21.5768810211,-18.4233142955
 C,0,-1.4221396849,22.7233315046,-16.3926501443
 C,0,-1.6698326525,23.255460233,-15.0772748988
 C,0,-0.4542322125,23.656851532,-14.5908447296
 C,0,0.5137154489,23.3427301093,-15.6234023147
 C,0,2.8222342688,23.1878956274,-16.4304099762
 C,0,4.2409735499,23.3187571811,-16.2188981884
 C,0,4.8356478694,23.0192745725,-17.4143291099
 C,0,3.7627735774,22.6152869196,-18.3028785893
 C,0,2.9602157746,21.6278673068,-20.3965913282
 C,0,3.2004464628,21.0928546359,-21.7181035428
 C,0,1.9992057901,20.6472255848,-22.1742862706
 C,0,1.0426797359,20.9112506593,-21.1226877121
 C,0,-0.2857314324,20.5314848022,-21.1818423422
 H,0,-0.6198457903,20.026816834,-22.0751338562
 C,0,-2.4027275078,22.1543381966,-17.1874344836
 H,0,-3.4145067591,22.1664310689,-16.8127345256
 C,0,1.8777132671,23.486010262,-15.4665733876
 H,0,2.234610436,23.8984287423,-14.5357937977
 C,0,3.9573310289,22.1248680913,-19.5797605406
 H,0,4.9659204812,22.1125121643,-19.9601131458
 C,0,-4.6723292221,20.9082246353,-18.8166740961
 H,0,-5.2627808924,20.3894145566,-19.5677783391
 H,0,-5.0753074367,21.9143430636,-18.6982771353
 H,0,-4.7871208074,20.3844584758,-17.8674980518
 C,0,-3.2359533252,19.7933660136,-21.5121815547
 H,0,-2.7776455988,18.8126029953,-21.6426845418
 H,0,-3.0779948722,20.3644315404,-22.4273238513
 H,0,-4.3056625504,19.6562344566,-21.3755780293
 C,0,-3.0129611023,23.4103023184,-14.4546637555
 H,0,-3.3344544211,22.4767857914,-13.9904440389
 H,0,-3.7552341402,23.6886339556,-15.2013367301
 H,0,-2.9826943722,24.1820954457,-13.6881817491
 C,0,-0.1332477538,24.2963337496,-13.334286046
 H,0,0.6866270928,25.0047263417,-13.3681129795
 C,0,-0.7494599802,24.0777407857,-12.1773688059
 H,0,-1.5357806881,23.3505327292,-12.0756774519
 H,0,-0.4651710961,24.6025799093,-11.2804943335
 C,0,4.8797382578,23.8000946306,-14.9632701667
 H,0,4.5311617241,23.2187565551,-14.1099113159
 H,0,4.6334477163,24.8472218043,-14.7823781673
 H,0,5.9614793542,23.7135074636,-15.0282631349
 C,0,6.2503025767,23.0811782072,-17.7225977833
 H,0,6.9103767371,22.7356616201,-16.934102203
 C,0,6.7777261722,23.5572476621,-18.8442095395
 H,0,6.1693025859,23.9644862394,-19.6339806776
 H,0,7.8433018727,23.5814943738,-19.0009613498
 C,0,4.5314481203,21.0775570037,-22.3868919928
 H,0,5.2437947765,20.487344174,-21.8098510464
 H,0,4.927095346,22.0893246767,-22.4757595739
 H,0,4.4590317707,20.6485553545,-23.3832338423
 C,0,1.6612106496,20.0070116265,-23.4767070524
 H,0,1.2869093856,18.9942625972,-23.3227875626
 H,0,2.5368042534,19.9529686438,-24.1187151467
 H,0,0.8897843859,20.5768335886,-23.9947105876
 O,0,0.434,24.061,-19.167
 H,0,0.139,24.619,-18.4470000001
 H,0,0.5549999999,24.312,-20.011
 C,0,0.4824655551,18.6089005474,-18.3301802967
 H,0,0.6722322741,18.8054497933,-19.37959053
 H,0,-0.5855732747,18.6238801252,-18.1406374876
 H,0,0.9045783745,17.6574529528,-18.0218682284
 S,0,1.2110626083,19.9433036957,-17.3145528776
 H,0,2.4578744278,19.7693620033,-17.7678953514
 Recover connectivity data from disk.
 Stoichiometry    C31H34FeN4OS(5)
 Framework group  C1[X(C31H34FeN4OS)]
 Deg. of freedom   210
 Full point group                 C1      NOp   1
 Largest Abelian subgroup         C1      NOp   1
 Largest concise Abelian subgroup C1      NOp   1
                         Standard orientation:                         
 ---------------------------------------------------------------------
 Center     Atomic      Atomic             Coordinates (Angstroms)
 Number     Number       Type             X           Y           Z
 ---------------------------------------------------------------------
      1         26           0       -0.019176    0.129181   -0.107229
      2          7           0        0.481483    2.050013   -0.188573
      3          7           0        1.905472   -0.403339   -0.230479
      4          7           0       -0.548295   -1.818858   -0.098753
      5          7           0       -1.958363    0.618274   -0.197536
      6          6           0       -0.357301    3.116324   -0.136188
      7          6           0        0.389807    4.354753   -0.143837
      8          6           0        1.703242    4.007105   -0.194299
      9          6           0        1.739091    2.561212   -0.247412
     10          6           0        2.972510    0.438233   -0.315287
     11          6           0        4.209706   -0.299128   -0.296074
     12          6           0        3.865855   -1.624007   -0.252780
     13          6           0        2.416746   -1.661033   -0.230772
     14          6           0        0.300290   -2.880216   -0.034049
     15          6           0       -0.433926   -4.101899    0.173555
     16          6           0       -1.757965   -3.778191    0.053070
     17          6           0       -1.801539   -2.339806   -0.128409
     18          6           0       -3.027116   -0.220962   -0.234198
     19          6           0       -4.264599    0.526409   -0.254589
     20          6           0       -3.917294    1.841293   -0.243420
     21          6           0       -2.472291    1.878876   -0.210789
     22          6           0       -1.737865    3.046926   -0.117646
     23          1           0       -2.283892    3.977078   -0.086603
     24          6           0        2.902826    1.820881   -0.294906
     25          1           0        3.833935    2.365415   -0.322516
     26          6           0        1.680497   -2.817043   -0.065876
     27          1           0        2.219609   -3.748790    0.004983
     28          6           0       -2.967300   -1.600001   -0.178214
     29          1           0       -3.900545   -2.138984   -0.153216
     30          6           0        2.910720    4.879214   -0.225232
     31          1           0        2.631549    5.928289   -0.166421
     32          1           0        3.472300    4.724799   -1.146898
     33          1           0        3.568753    4.651355    0.613527
     34          6           0       -0.230146    5.708425   -0.086615
     35          1           0       -0.830958    5.818418    0.816657
     36          1           0       -0.881070    5.867312   -0.946618
     37          1           0        0.532173    6.483416   -0.087526
     38          6           0        5.567044    0.301845   -0.405987
     39          1           0        5.916083    0.650417    0.567143
     40          1           0        5.559086    1.152561   -1.085823
     41          1           0        6.273479   -0.436716   -0.779553
     42          6           0        4.715242   -2.794229   -0.258336
     43          1           0        4.311420   -3.660583   -0.769725
     44          6           0        5.914609   -2.880170    0.307429
     45          1           0        6.342454   -2.068411    0.869095
     46          1           0        6.499766   -3.783005    0.251387
     47          6           0        0.175676   -5.446836    0.362866
     48          1           0        0.902359   -5.426265    1.174771
     49          1           0        0.690498   -5.767755   -0.543680
     50          1           0       -0.589618   -6.183028    0.595744
     51          6           0       -2.885053   -4.687384    0.109200
     52          1           0       -2.807635   -5.473631    0.852588
     53          6           0       -3.946307   -4.654354   -0.687971
     54          1           0       -4.044896   -3.929776   -1.478557
     55          1           0       -4.744766   -5.371559   -0.594752
     56          6           0       -5.618200   -0.094505   -0.290761
     57          1           0       -5.781627   -0.709804    0.594374
     58          1           0       -5.723496   -0.732760   -1.168059
     59          1           0       -6.392767    0.667601   -0.325756
     60          6           0       -4.789442    3.049405   -0.258829
     61          1           0       -4.650492    3.636770    0.649548
     62          1           0       -5.837305    2.767886   -0.325835
     63          1           0       -4.548917    3.684466   -1.111454
     64          8           0        0.025058    0.047397   -2.338008
     65          1           0        0.862139   -0.340938   -2.593509
     66          1           0       -0.618043    0.319141   -2.888058
     67          6           0       -0.554736    1.669202    2.902373
     68          1           0       -1.404383    2.022597    2.328687
     69          1           0        0.277697    2.355201    2.786973
     70          1           0       -0.804405    1.556086    3.952782
     71         16           0        0.002706    0.057330    2.243499
     72          1           0       -1.172427   -0.556626    2.423599
 ---------------------------------------------------------------------
 Rotational constants (GHZ):           0.1115907           0.1060533           0.0600936
 Standard basis: def2TZVP (5D, 7F)
 There are  1594 symmetry adapted cartesian basis functions of A   symmetry.
 There are  1402 symmetry adapted basis functions of A   symmetry.
  1402 basis functions,  2279 primitive gaussians,  1594 cartesian basis functions
   151 alpha electrons      147 beta electrons
       nuclear repulsion energy      5418.5757545790 Hartrees.
 NAtoms=   72 NActive=   72 NUniq=   72 SFac= 1.00D+00 NAtFMM=   60 NAOKFM=T Big=T
 Integral buffers will be    131072 words long.
 Raffenetti 2 integral format.
 Two-electron integral symmetry is turned on.
 R6APFD:  NTU= -4 IXU= 1 FactS= 1.050
 Nuclear repulsion after empirical dispersion term =     5418.4238132113 Hartrees.
 One-electron integrals computed using PRISM.
   1 Symmetry operations used in ECPInt.
 ECPInt:  NShTT=  157080 NPrTT=  488567 LenC2=  124976 LenP2D=  259247.
 LDataN:  DoStor=T MaxTD1= 6 Len=  172
 Number of processors reduced to  25 by ecpmxn.
 NBasis=  1402 RedAO= T EigKep=  3.44D-06  NBF=  1402
 NBsUse=  1402 1.00D-06 EigRej= -1.00D+00 NBFU=  1402
 Initial guess from the checkpoint file:  "5ik1_II_Qn.chk"
 B after Tr=    -0.000000   -0.000000    0.000000
         Rot=    1.000000   -0.000000   -0.000000    0.000000 Ang=   0.00 deg.
 Initial guess <Sx>= 0.0000 <Sy>= 0.0000 <Sz>= 2.0000 <S**2>= 6.0295 S= 2.0059
 Requested convergence on RMS density matrix=1.00D-08 within 999 cycles.
 Requested convergence on MAX density matrix=1.00D-06.
 Requested convergence on             energy=1.00D-06.
 No special actions if energy rises.
 EnCoef did    11 forward-backward iterations
 EnCoef did     7 forward-backward iterations
 EnCoef did     9 forward-backward iterations
 EnCoef did     5 forward-backward iterations
 EnCoef did    14 forward-backward iterations
 EnCoef did     4 forward-backward iterations
 EnCoef did    23 forward-backward iterations
 EnCoef did   100 forward-backward iterations
 EnCoef did    11 forward-backward iterations
 EnCoef did     3 forward-backward iterations
 EnCoef did     2 forward-backward iterations
 Restarting incremental Fock formation.
 Rare condition: small coef for last iteration:  0.000D+00
 Rare condition: small coef for last iteration:  0.000D+00
 Rare condition: small coef for last iteration:  0.000D+00
 Rare condition: small coef for last iteration:  0.000D+00
 Rare condition: small coef for last iteration:  0.000D+00
 Restarting incremental Fock formation.
 Rare condition: small coef for last iteration:  0.000D+00
 Rare condition: small coef for last iteration:  0.000D+00
 Rare condition: small coef for last iteration:  0.000D+00
 Restarting incremental Fock formation.
 Restarting incremental Fock formation.
 Restarting incremental Fock formation.
 Restarting incremental Fock formation.
 Restarting incremental Fock formation.
 Restarting incremental Fock formation.
 Restarting incremental Fock formation.
 SCF Done:  E(UAPFD) =  -3157.18364447     A.U. after  200 cycles
            NFock=200  Conv=0.22D-08     -V/T= 2.0028
 <Sx>= 0.0000 <Sy>= 0.0000 <Sz>= 2.0000 <S**2>= 6.0959 S= 2.0191
 <L.S>=  0.00000000000    
 Annihilation of the first spin contaminant:
 S**2 before annihilation     6.0959,   after     6.0005

 **********************************************************************

            Population analysis using the SCF Density.

 **********************************************************************

 Orbital symmetries:
 Alpha Orbitals:
       Occupied  (A) (A) (A) (A) (A) (A) (A) (A) (A) (A) (A) (A)
                 (A) (A) (A) (A) (A) (A) (A) (A) (A) (A) (A) (A)
                 (A) (A) (A) (A) (A) (A) (A) (A) (A) (A) (A) (A)
                 (A) (A) (A) (A) (A) (A) (A) (A) (A) (A) (A) (A)
                 (A) (A) (A) (A) (A) (A) (A) (A) (A) (A) (A) (A)
                 (A) (A) (A) (A) (A) (A) (A) (A) (A) (A) (A) (A)
                 (A) (A) (A) (A) (A) (A) (A) (A) (A) (A) (A) (A)
                 (A) (A) (A) (A) (A) (A) (A) (A) (A) (A) (A) (A)
                 (A) (A) (A) (A) (A) (A) (A) (A) (A) (A) (A) (A)
                 (A) (A) (A) (A) (A) (A) (A) (A) (A) (A) (A) (A)
                 (A) (A) (A) (A) (A) (A) (A) (A) (A) (A) (A) (A)
                 (A) (A) (A) (A) (A) (A) (A) (A) (A) (A) (A) (A)
                 (A) (A) (A) (A) (A) (A) (A)
       Virtual   (A) (A) (A) (A) (A) (A) (A) (A) (A) (A) (A) (A)
                 (A) (A) (A) (A) (A) (A) (A) (A) (A) (A) (A) (A)
                 (A) (A) (A) (A) (A) (A) (A) (A) (A) (A) (A) (A)
                 (A) (A) (A) (A) (A) (A) (A) (A) (A) (A) (A) (A)
                 (A) (A) (A) (A) (A) (A) (A) (A) (A) (A) (A) (A)
                 (A) (A) (A) (A) (A) (A) (A) (A) (A) (A) (A) (A)
                 (A) (A) (A) (A) (A) (A) (A) (A) (A) (A) (A) (A)
                 (A) (A) (A) (A) (A) (A) (A) (A) (A) (A) (A) (A)
                 (A) (A) (A) (A) (A) (A) (A) (A) (A) (A) (A) (A)
                 (A) (A) (A) (A) (A) (A) (A) (A) (A) (A) (A) (A)
                 (A) (A) (A) (A) (A) (A) (A) (A) (A) (A) (A) (A)
                 (A) (A) (A) (A) (A) (A) (A) (A) (A) (A) (A) (A)
                 (A) (A) (A) (A) (A) (A) (A) (A) (A) (A) (A) (A)
                 (A) (A) (A) (A) (A) (A) (A) (A) (A) (A) (A) (A)
                 (A) (A) (A) (A) (A) (A) (A) (A) (A) (A) (A) (A)
                 (A) (A) (A) (A) (A) (A) (A) (A) (A) (A) (A) (A)
                 (A) (A) (A) (A) (A) (A) (A) (A) (A) (A) (A) (A)
                 (A) (A) (A) (A) (A) (A) (A) (A) (A) (A) (A) (A)
                 (A) (A) (A) (A) (A) (A) (A) (A) (A) (A) (A) (A)
                 (A) (A) (A) (A) (A) (A) (A) (A) (A) (A) (A) (A)
                 (A) (A) (A) (A) (A) (A) (A) (A) (A) (A) (A) (A)
                 (A) (A) (A) (A) (A) (A) (A) (A) (A) (A) (A) (A)
                 (A) (A) (A) (A) (A) (A) (A) (A) (A) (A) (A) (A)
                 (A) (A) (A) (A) (A) (A) (A) (A) (A) (A) (A) (A)
                 (A) (A) (A) (A) (A) (A) (A) (A) (A) (A) (A) (A)
                 (A) (A) (A) (A) (A) (A) (A) (A) (A) (A) (A) (A)
                 (A) (A) (A) (A) (A) (A) (A) (A) (A) (A) (A) (A)
                 (A) (A) (A) (A) (A) (A) (A) (A) (A) (A) (A) (A)
                 (A) (A) (A) (A) (A) (A) (A) (A) (A) (A) (A) (A)
                 (A) (A) (A) (A) (A) (A) (A) (A) (A) (A) (A) (A)
                 (A) (A) (A) (A) (A) (A) (A) (A) (A) (A) (A) (A)
                 (A) (A) (A) (A) (A) (A) (A) (A) (A) (A) (A) (A)
                 (A) (A) (A) (A) (A) (A) (A) (A) (A) (A) (A) (A)
                 (A) (A) (A) (A) (A) (A) (A) (A) (A) (A) (A) (A)
                 (A) (A) (A) (A) (A) (A) (A) (A) (A) (A) (A) (A)
                 (A) (A) (A) (A) (A) (A) (A) (A) (A) (A) (A) (A)
                 (A) (A) (A) (A) (A) (A) (A) (A) (A) (A) (A) (A)
                 (A) (A) (A) (A) (A) (A) (A) (A) (A) (A) (A) (A)
                 (A) (A) (A) (A) (A) (A) (A) (A) (A) (A) (A) (A)
                 (A) (A) (A) (A) (A) (A) (A) (A) (A) (A) (A) (A)
                 (A) (A) (A) (A) (A) (A) (A) (A) (A) (A) (A) (A)
                 (A) (A) (A) (A) (A) (A) (A) (A) (A) (A) (A) (A)
                 (A) (A) (A) (A) (A) (A) (A) (A) (A) (A) (A) (A)
                 (A) (A) (A) (A) (A) (A) (A) (A) (A) (A) (A) (A)
                 (A) (A) (A) (A) (A) (A) (A) (A) (A) (A) (A) (A)
                 (A) (A) (A) (A) (A) (A) (A) (A) (A) (A) (A) (A)
                 (A) (A) (A) (A) (A) (A) (A) (A) (A) (A) (A) (A)
                 (A) (A) (A) (A) (A) (A) (A) (A) (A) (A) (A) (A)
                 (A) (A) (A) (A) (A) (A) (A) (A) (A) (A) (A) (A)
                 (A) (A) (A) (A) (A) (A) (A) (A) (A) (A) (A) (A)
                 (A) (A) (A) (A) (A) (A) (A) (A) (A) (A) (A) (A)
                 (A) (A) (A) (A) (A) (A) (A) (A) (A) (A) (A) (A)
                 (A) (A) (A) (A) (A) (A) (A) (A) (A) (A) (A) (A)
                 (A) (A) (A) (A) (A) (A) (A) (A) (A) (A) (A) (A)
                 (A) (A) (A) (A) (A) (A) (A) (A) (A) (A) (A) (A)
                 (A) (A) (A) (A) (A) (A) (A) (A) (A) (A) (A) (A)
                 (A) (A) (A) (A) (A) (A) (A) (A) (A) (A) (A) (A)
                 (A) (A) (A) (A) (A) (A) (A) (A) (A) (A) (A) (A)
                 (A) (A) (A) (A) (A) (A) (A) (A) (A) (A) (A) (A)
                 (A) (A) (A) (A) (A) (A) (A) (A) (A) (A) (A) (A)
                 (A) (A) (A) (A) (A) (A) (A) (A) (A) (A) (A) (A)
                 (A) (A) (A) (A) (A) (A) (A) (A) (A) (A) (A) (A)
                 (A) (A) (A) (A) (A) (A) (A) (A) (A) (A) (A) (A)
                 (A) (A) (A) (A) (A) (A) (A) (A) (A) (A) (A) (A)
                 (A) (A) (A) (A) (A) (A) (A) (A) (A) (A) (A) (A)
                 (A) (A) (A) (A) (A) (A) (A) (A) (A) (A) (A) (A)
                 (A) (A) (A) (A) (A) (A) (A) (A) (A) (A) (A) (A)
                 (A) (A) (A) (A) (A) (A) (A) (A) (A) (A) (A) (A)
                 (A) (A) (A) (A) (A) (A) (A) (A) (A) (A) (A) (A)
                 (A) (A) (A) (A) (A) (A) (A) (A) (A) (A) (A) (A)
                 (A) (A) (A) (A) (A) (A) (A) (A) (A) (A) (A) (A)
                 (A) (A) (A) (A) (A) (A) (A) (A) (A) (A) (A) (A)
                 (A) (A) (A) (A) (A) (A) (A) (A) (A) (A) (A) (A)
                 (A) (A) (A) (A) (A) (A) (A) (A) (A) (A) (A) (A)
                 (A) (A) (A) (A) (A) (A) (A) (A) (A) (A) (A) (A)
                 (A) (A) (A) (A) (A) (A) (A) (A) (A) (A) (A) (A)
                 (A) (A) (A) (A) (A) (A) (A) (A) (A) (A) (A) (A)
                 (A) (A) (A) (A) (A) (A) (A) (A) (A) (A) (A) (A)
                 (A) (A) (A) (A) (A) (A) (A) (A) (A) (A) (A) (A)
                 (A) (A) (A) (A) (A) (A) (A) (A) (A) (A) (A) (A)
                 (A) (A) (A) (A) (A) (A) (A) (A) (A) (A) (A) (A)
                 (A) (A) (A) (A) (A) (A) (A) (A) (A) (A) (A) (A)
                 (A) (A) (A) (A) (A) (A) (A) (A) (A) (A) (A) (A)
                 (A) (A) (A) (A) (A) (A) (A) (A) (A) (A) (A) (A)
                 (A) (A) (A) (A) (A) (A) (A) (A) (A) (A) (A) (A)
                 (A) (A) (A) (A) (A) (A) (A) (A) (A) (A) (A) (A)
                 (A) (A) (A) (A) (A) (A) (A) (A) (A) (A) (A) (A)
                 (A) (A) (A) (A) (A) (A) (A) (A) (A) (A) (A) (A)
                 (A) (A) (A) (A) (A) (A) (A) (A) (A) (A) (A) (A)
                 (A) (A) (A) (A) (A) (A) (A) (A) (A) (A) (A) (A)
                 (A) (A) (A) (A) (A) (A) (A) (A) (A) (A) (A) (A)
                 (A) (A) (A) (A) (A) (A) (A) (A) (A) (A) (A) (A)
                 (A) (A) (A) (A) (A) (A) (A) (A) (A) (A) (A) (A)
                 (A) (A) (A) (A) (A) (A) (A) (A) (A) (A) (A) (A)
                 (A) (A) (A) (A) (A) (A) (A) (A) (A) (A) (A) (A)
                 (A) (A) (A) (A) (A) (A) (A) (A) (A) (A) (A) (A)
                 (A) (A) (A) (A) (A) (A) (A) (A) (A) (A) (A) (A)
                 (A) (A) (A) (A) (A) (A) (A) (A) (A) (A) (A) (A)
                 (A) (A) (A) (A) (A) (A) (A) (A) (A) (A) (A) (A)
                 (A) (A) (A) (A) (A) (A) (A) (A) (A) (A) (A) (A)
                 (A) (A) (A) (A) (A) (A) (A) (A) (A) (A) (A) (A)
                 (A) (A) (A) (A) (A) (A) (A) (A) (A) (A) (A) (A)
                 (A) (A) (A) (A) (A) (A) (A) (A) (A) (A) (A) (A)
                 (A) (A) (A) (A) (A) (A) (A) (A) (A) (A) (A) (A)
                 (A) (A) (A)
 Beta  Orbitals:
       Occupied  (A) (A) (A) (A) (A) (A) (A) (A) (A) (A) (A) (A)
                 (A) (A) (A) (A) (A) (A) (A) (A) (A) (A) (A) (A)
                 (A) (A) (A) (A) (A) (A) (A) (A) (A) (A) (A) (A)
                 (A) (A) (A) (A) (A) (A) (A) (A) (A) (A) (A) (A)
                 (A) (A) (A) (A) (A) (A) (A) (A) (A) (A) (A) (A)
                 (A) (A) (A) (A) (A) (A) (A) (A) (A) (A) (A) (A)
                 (A) (A) (A) (A) (A) (A) (A) (A) (A) (A) (A) (A)
                 (A) (A) (A) (A) (A) (A) (A) (A) (A) (A) (A) (A)
                 (A) (A) (A) (A) (A) (A) (A) (A) (A) (A) (A) (A)
                 (A) (A) (A) (A) (A) (A) (A) (A) (A) (A) (A) (A)
                 (A) (A) (A) (A) (A) (A) (A) (A) (A) (A) (A) (A)
                 (A) (A) (A) (A) (A) (A) (A) (A) (A) (A) (A) (A)
                 (A) (A) (A)
       Virtual   (A) (A) (A) (A) (A) (A) (A) (A) (A) (A) (A) (A)
                 (A) (A) (A) (A) (A) (A) (A) (A) (A) (A) (A) (A)
                 (A) (A) (A) (A) (A) (A) (A) (A) (A) (A) (A) (A)
                 (A) (A) (A) (A) (A) (A) (A) (A) (A) (A) (A) (A)
                 (A) (A) (A) (A) (A) (A) (A) (A) (A) (A) (A) (A)
                 (A) (A) (A) (A) (A) (A) (A) (A) (A) (A) (A) (A)
                 (A) (A) (A) (A) (A) (A) (A) (A) (A) (A) (A) (A)
                 (A) (A) (A) (A) (A) (A) (A) (A) (A) (A) (A) (A)
                 (A) (A) (A) (A) (A) (A) (A) (A) (A) (A) (A) (A)
                 (A) (A) (A) (A) (A) (A) (A) (A) (A) (A) (A) (A)
                 (A) (A) (A) (A) (A) (A) (A) (A) (A) (A) (A) (A)
                 (A) (A) (A) (A) (A) (A) (A) (A) (A) (A) (A) (A)
                 (A) (A) (A) (A) (A) (A) (A) (A) (A) (A) (A) (A)
                 (A) (A) (A) (A) (A) (A) (A) (A) (A) (A) (A) (A)
                 (A) (A) (A) (A) (A) (A) (A) (A) (A) (A) (A) (A)
                 (A) (A) (A) (A) (A) (A) (A) (A) (A) (A) (A) (A)
                 (A) (A) (A) (A) (A) (A) (A) (A) (A) (A) (A) (A)
                 (A) (A) (A) (A) (A) (A) (A) (A) (A) (A) (A) (A)
                 (A) (A) (A) (A) (A) (A) (A) (A) (A) (A) (A) (A)
                 (A) (A) (A) (A) (A) (A) (A) (A) (A) (A) (A) (A)
                 (A) (A) (A) (A) (A) (A) (A) (A) (A) (A) (A) (A)
                 (A) (A) (A) (A) (A) (A) (A) (A) (A) (A) (A) (A)
                 (A) (A) (A) (A) (A) (A) (A) (A) (A) (A) (A) (A)
                 (A) (A) (A) (A) (A) (A) (A) (A) (A) (A) (A) (A)
                 (A) (A) (A) (A) (A) (A) (A) (A) (A) (A) (A) (A)
                 (A) (A) (A) (A) (A) (A) (A) (A) (A) (A) (A) (A)
                 (A) (A) (A) (A) (A) (A) (A) (A) (A) (A) (A) (A)
                 (A) (A) (A) (A) (A) (A) (A) (A) (A) (A) (A) (A)
                 (A) (A) (A) (A) (A) (A) (A) (A) (A) (A) (A) (A)
                 (A) (A) (A) (A) (A) (A) (A) (A) (A) (A) (A) (A)
                 (A) (A) (A) (A) (A) (A) (A) (A) (A) (A) (A) (A)
                 (A) (A) (A) (A) (A) (A) (A) (A) (A) (A) (A) (A)
                 (A) (A) (A) (A) (A) (A) (A) (A) (A) (A) (A) (A)
                 (A) (A) (A) (A) (A) (A) (A) (A) (A) (A) (A) (A)
                 (A) (A) (A) (A) (A) (A) (A) (A) (A) (A) (A) (A)
                 (A) (A) (A) (A) (A) (A) (A) (A) (A) (A) (A) (A)
                 (A) (A) (A) (A) (A) (A) (A) (A) (A) (A) (A) (A)
                 (A) (A) (A) (A) (A) (A) (A) (A) (A) (A) (A) (A)
                 (A) (A) (A) (A) (A) (A) (A) (A) (A) (A) (A) (A)
                 (A) (A) (A) (A) (A) (A) (A) (A) (A) (A) (A) (A)
                 (A) (A) (A) (A) (A) (A) (A) (A) (A) (A) (A) (A)
                 (A) (A) (A) (A) (A) (A) (A) (A) (A) (A) (A) (A)
                 (A) (A) (A) (A) (A) (A) (A) (A) (A) (A) (A) (A)
                 (A) (A) (A) (A) (A) (A) (A) (A) (A) (A) (A) (A)
                 (A) (A) (A) (A) (A) (A) (A) (A) (A) (A) (A) (A)
                 (A) (A) (A) (A) (A) (A) (A) (A) (A) (A) (A) (A)
                 (A) (A) (A) (A) (A) (A) (A) (A) (A) (A) (A) (A)
                 (A) (A) (A) (A) (A) (A) (A) (A) (A) (A) (A) (A)
                 (A) (A) (A) (A) (A) (A) (A) (A) (A) (A) (A) (A)
                 (A) (A) (A) (A) (A) (A) (A) (A) (A) (A) (A) (A)
                 (A) (A) (A) (A) (A) (A) (A) (A) (A) (A) (A) (A)
                 (A) (A) (A) (A) (A) (A) (A) (A) (A) (A) (A) (A)
                 (A) (A) (A) (A) (A) (A) (A) (A) (A) (A) (A) (A)
                 (A) (A) (A) (A) (A) (A) (A) (A) (A) (A) (A) (A)
                 (A) (A) (A) (A) (A) (A) (A) (A) (A) (A) (A) (A)
                 (A) (A) (A) (A) (A) (A) (A) (A) (A) (A) (A) (A)
                 (A) (A) (A) (A) (A) (A) (A) (A) (A) (A) (A) (A)
                 (A) (A) (A) (A) (A) (A) (A) (A) (A) (A) (A) (A)
                 (A) (A) (A) (A) (A) (A) (A) (A) (A) (A) (A) (A)
                 (A) (A) (A) (A) (A) (A) (A) (A) (A) (A) (A) (A)
                 (A) (A) (A) (A) (A) (A) (A) (A) (A) (A) (A) (A)
                 (A) (A) (A) (A) (A) (A) (A) (A) (A) (A) (A) (A)
                 (A) (A) (A) (A) (A) (A) (A) (A) (A) (A) (A) (A)
                 (A) (A) (A) (A) (A) (A) (A) (A) (A) (A) (A) (A)
                 (A) (A) (A) (A) (A) (A) (A) (A) (A) (A) (A) (A)
                 (A) (A) (A) (A) (A) (A) (A) (A) (A) (A) (A) (A)
                 (A) (A) (A) (A) (A) (A) (A) (A) (A) (A) (A) (A)
                 (A) (A) (A) (A) (A) (A) (A) (A) (A) (A) (A) (A)
                 (A) (A) (A) (A) (A) (A) (A) (A) (A) (A) (A) (A)
                 (A) (A) (A) (A) (A) (A) (A) (A) (A) (A) (A) (A)
                 (A) (A) (A) (A) (A) (A) (A) (A) (A) (A) (A) (A)
                 (A) (A) (A) (A) (A) (A) (A) (A) (A) (A) (A) (A)
                 (A) (A) (A) (A) (A) (A) (A) (A) (A) (A) (A) (A)
                 (A) (A) (A) (A) (A) (A) (A) (A) (A) (A) (A) (A)
                 (A) (A) (A) (A) (A) (A) (A) (A) (A) (A) (A) (A)
                 (A) (A) (A) (A) (A) (A) (A) (A) (A) (A) (A) (A)
                 (A) (A) (A) (A) (A) (A) (A) (A) (A) (A) (A) (A)
                 (A) (A) (A) (A) (A) (A) (A) (A) (A) (A) (A) (A)
                 (A) (A) (A) (A) (A) (A) (A) (A) (A) (A) (A) (A)
                 (A) (A) (A) (A) (A) (A) (A) (A) (A) (A) (A) (A)
                 (A) (A) (A) (A) (A) (A) (A) (A) (A) (A) (A) (A)
                 (A) (A) (A) (A) (A) (A) (A) (A) (A) (A) (A) (A)
                 (A) (A) (A) (A) (A) (A) (A) (A) (A) (A) (A) (A)
                 (A) (A) (A) (A) (A) (A) (A) (A) (A) (A) (A) (A)
                 (A) (A) (A) (A) (A) (A) (A) (A) (A) (A) (A) (A)
                 (A) (A) (A) (A) (A) (A) (A) (A) (A) (A) (A) (A)
                 (A) (A) (A) (A) (A) (A) (A) (A) (A) (A) (A) (A)
                 (A) (A) (A) (A) (A) (A) (A) (A) (A) (A) (A) (A)
                 (A) (A) (A) (A) (A) (A) (A) (A) (A) (A) (A) (A)
                 (A) (A) (A) (A) (A) (A) (A) (A) (A) (A) (A) (A)
                 (A) (A) (A) (A) (A) (A) (A) (A) (A) (A) (A) (A)
                 (A) (A) (A) (A) (A) (A) (A) (A) (A) (A) (A) (A)
                 (A) (A) (A) (A) (A) (A) (A) (A) (A) (A) (A) (A)
                 (A) (A) (A) (A) (A) (A) (A) (A) (A) (A) (A) (A)
                 (A) (A) (A) (A) (A) (A) (A) (A) (A) (A) (A) (A)
                 (A) (A) (A) (A) (A) (A) (A) (A) (A) (A) (A) (A)
                 (A) (A) (A) (A) (A) (A) (A) (A) (A) (A) (A) (A)
                 (A) (A) (A) (A) (A) (A) (A) (A) (A) (A) (A) (A)
                 (A) (A) (A) (A) (A) (A) (A) (A) (A) (A) (A) (A)
                 (A) (A) (A) (A) (A) (A) (A) (A) (A) (A) (A) (A)
                 (A) (A) (A) (A) (A) (A) (A) (A) (A) (A) (A) (A)
                 (A) (A) (A) (A) (A) (A) (A) (A) (A) (A) (A) (A)
                 (A) (A) (A) (A) (A) (A) (A) (A) (A) (A) (A) (A)
                 (A) (A) (A) (A) (A) (A) (A) (A) (A) (A) (A) (A)
                 (A) (A) (A) (A) (A) (A) (A)
 The electronic state is 5-A.
 Alpha  occ. eigenvalues -- -256.19306 -88.94638 -30.08366 -25.93007 -25.90970
 Alpha  occ. eigenvalues --  -25.90635 -19.17407 -14.33251 -14.33025 -14.32983
 Alpha  occ. eigenvalues --  -14.32926 -10.21857 -10.21704 -10.21566 -10.21554
 Alpha  occ. eigenvalues --  -10.21450 -10.21385 -10.21368 -10.21301 -10.21299
 Alpha  occ. eigenvalues --  -10.20064 -10.19883 -10.19513 -10.19400 -10.19333
 Alpha  occ. eigenvalues --  -10.19230 -10.19182 -10.19129 -10.19102 -10.19091
 Alpha  occ. eigenvalues --  -10.19054 -10.18997 -10.18955 -10.18946 -10.18880
 Alpha  occ. eigenvalues --  -10.18875 -10.18864 -10.18844 -10.18699 -10.18600
 Alpha  occ. eigenvalues --  -10.18536 -10.18489  -7.97611  -5.92181  -5.91894
 Alpha  occ. eigenvalues --   -5.91374  -3.53991  -2.33919  -2.29420  -2.28980
 Alpha  occ. eigenvalues --   -1.05619  -0.97657  -0.96714  -0.96642  -0.95696
 Alpha  occ. eigenvalues --   -0.82850  -0.82356  -0.82030  -0.81349  -0.80970
 Alpha  occ. eigenvalues --   -0.80201  -0.80120  -0.79767  -0.77349  -0.76271
 Alpha  occ. eigenvalues --   -0.74714  -0.74519  -0.73629  -0.71412  -0.70459
 Alpha  occ. eigenvalues --   -0.68834  -0.68454  -0.68390  -0.66045  -0.64804
 Alpha  occ. eigenvalues --   -0.64584  -0.61449  -0.61147  -0.60423  -0.58162
 Alpha  occ. eigenvalues --   -0.57308  -0.55135  -0.54708  -0.53893  -0.52837
 Alpha  occ. eigenvalues --   -0.51699  -0.51361  -0.51026  -0.49513  -0.48369
 Alpha  occ. eigenvalues --   -0.48245  -0.46675  -0.46286  -0.45770  -0.45484
 Alpha  occ. eigenvalues --   -0.45213  -0.44445  -0.44371  -0.43990  -0.43802
 Alpha  occ. eigenvalues --   -0.43770  -0.43441  -0.43202  -0.42897  -0.42544
 Alpha  occ. eigenvalues --   -0.41910  -0.41886  -0.41761  -0.41461  -0.41189
 Alpha  occ. eigenvalues --   -0.40763  -0.40626  -0.40141  -0.39978  -0.39644
 Alpha  occ. eigenvalues --   -0.39410  -0.39332  -0.39203  -0.38947  -0.38723
 Alpha  occ. eigenvalues --   -0.38087  -0.37785  -0.37662  -0.36964  -0.36901
 Alpha  occ. eigenvalues --   -0.36580  -0.36272  -0.35302  -0.35058  -0.34749
 Alpha  occ. eigenvalues --   -0.34343  -0.33881  -0.32453  -0.32365  -0.31648
 Alpha  occ. eigenvalues --   -0.31221  -0.30986  -0.30902  -0.29978  -0.29416
 Alpha  occ. eigenvalues --   -0.28033  -0.27079  -0.26711  -0.23794  -0.22902
 Alpha  occ. eigenvalues --   -0.22312  -0.21791  -0.20746  -0.18451  -0.18326
 Alpha  occ. eigenvalues --   -0.16713
 Alpha virt. eigenvalues --   -0.07369  -0.07068  -0.02311   0.00206   0.01228
 Alpha virt. eigenvalues --    0.01671   0.02884   0.04101   0.04606   0.05077
 Alpha virt. eigenvalues --    0.05191   0.05580   0.06322   0.06743   0.07167
 Alpha virt. eigenvalues --    0.07689   0.07838   0.08410   0.08512   0.09036
 Alpha virt. eigenvalues --    0.09288   0.09730   0.10168   0.10218   0.10494
 Alpha virt. eigenvalues --    0.10729   0.11099   0.11171   0.11895   0.12327
 Alpha virt. eigenvalues --    0.12614   0.12685   0.12863   0.13132   0.13344
 Alpha virt. eigenvalues --    0.13509   0.13736   0.13967   0.14253   0.14584
 Alpha virt. eigenvalues --    0.14638   0.14913   0.15018   0.15299   0.15418
 Alpha virt. eigenvalues --    0.15705   0.15814   0.16367   0.16719   0.16761
 Alpha virt. eigenvalues --    0.17027   0.17289   0.17419   0.17766   0.18030
 Alpha virt. eigenvalues --    0.18527   0.18701   0.18918   0.19301   0.19458
 Alpha virt. eigenvalues --    0.19539   0.20104   0.20453   0.20748   0.20857
 Alpha virt. eigenvalues --    0.21427   0.21647   0.21801   0.22239   0.22350
 Alpha virt. eigenvalues --    0.22546   0.23212   0.23401   0.23832   0.23859
 Alpha virt. eigenvalues --    0.24407   0.24741   0.25179   0.25417   0.25460
 Alpha virt. eigenvalues --    0.25776   0.26311   0.26454   0.26973   0.27276
 Alpha virt. eigenvalues --    0.27686   0.27909   0.28074   0.28246   0.28542
 Alpha virt. eigenvalues --    0.28794   0.28954   0.29152   0.29484   0.29606
 Alpha virt. eigenvalues --    0.29627   0.30280   0.30453   0.30713   0.31023
 Alpha virt. eigenvalues --    0.31470   0.31749   0.31779   0.32486   0.32702
 Alpha virt. eigenvalues --    0.32772   0.33468   0.33540   0.33737   0.34154
 Alpha virt. eigenvalues --    0.34506   0.34915   0.35261   0.35311   0.35734
 Alpha virt. eigenvalues --    0.36220   0.36447   0.36484   0.36967   0.37033
 Alpha virt. eigenvalues --    0.37719   0.38031   0.38256   0.38392   0.38814
 Alpha virt. eigenvalues --    0.39001   0.39103   0.39765   0.39913   0.39976
 Alpha virt. eigenvalues --    0.40113   0.40497   0.40596   0.41144   0.41242
 Alpha virt. eigenvalues --    0.41487   0.41646   0.41902   0.41955   0.42268
 Alpha virt. eigenvalues --    0.42390   0.42875   0.42894   0.43309   0.43842
 Alpha virt. eigenvalues --    0.43985   0.44058   0.44391   0.44662   0.44820
 Alpha virt. eigenvalues --    0.44892   0.45142   0.45250   0.45852   0.45926
 Alpha virt. eigenvalues --    0.46203   0.46425   0.46554   0.46815   0.46954
 Alpha virt. eigenvalues --    0.47249   0.47601   0.47804   0.47874   0.48271
 Alpha virt. eigenvalues --    0.48390   0.48635   0.48978   0.49037   0.49388
 Alpha virt. eigenvalues --    0.49757   0.50047   0.50267   0.50483   0.50734
 Alpha virt. eigenvalues --    0.51026   0.51257   0.51551   0.51667   0.51991
 Alpha virt. eigenvalues --    0.52187   0.52396   0.52734   0.52867   0.53009
 Alpha virt. eigenvalues --    0.53088   0.53429   0.53696   0.54110   0.54253
 Alpha virt. eigenvalues --    0.54628   0.55054   0.55279   0.55474   0.55939
 Alpha virt. eigenvalues --    0.56334   0.56731   0.56983   0.57123   0.57633
 Alpha virt. eigenvalues --    0.57891   0.58517   0.58839   0.58908   0.59198
 Alpha virt. eigenvalues --    0.59667   0.59896   0.60254   0.60828   0.60864
 Alpha virt. eigenvalues --    0.61270   0.61678   0.62302   0.62433   0.63074
 Alpha virt. eigenvalues --    0.63238   0.63524   0.63810   0.64080   0.64407
 Alpha virt. eigenvalues --    0.64777   0.65070   0.65319   0.65684   0.66114
 Alpha virt. eigenvalues --    0.66287   0.66415   0.66883   0.67155   0.67221
 Alpha virt. eigenvalues --    0.67549   0.68087   0.68276   0.68459   0.69379
 Alpha virt. eigenvalues --    0.69498   0.69849   0.70377   0.70841   0.71057
 Alpha virt. eigenvalues --    0.71409   0.71525   0.71856   0.72221   0.72362
 Alpha virt. eigenvalues --    0.72835   0.72918   0.73412   0.73526   0.73694
 Alpha virt. eigenvalues --    0.73967   0.74564   0.74966   0.75029   0.75603
 Alpha virt. eigenvalues --    0.76263   0.76388   0.76813   0.76994   0.77365
 Alpha virt. eigenvalues --    0.77449   0.77902   0.78359   0.78740   0.79213
 Alpha virt. eigenvalues --    0.79656   0.80222   0.80714   0.80807   0.81068
 Alpha virt. eigenvalues --    0.81387   0.81834   0.82420   0.83854   0.84178
 Alpha virt. eigenvalues --    0.84285   0.84596   0.84761   0.85730   0.86108
 Alpha virt. eigenvalues --    0.86215   0.86422   0.86948   0.87151   0.87758
 Alpha virt. eigenvalues --    0.88062   0.88272   0.88917   0.89133   0.89356
 Alpha virt. eigenvalues --    0.89892   0.90337   0.91109   0.91465   0.91482
 Alpha virt. eigenvalues --    0.92431   0.92631   0.93148   0.93827   0.93871
 Alpha virt. eigenvalues --    0.94345   0.94600   0.94994   0.95416   0.95783
 Alpha virt. eigenvalues --    0.96189   0.96474   0.96937   0.97440   0.97946
 Alpha virt. eigenvalues --    0.98140   0.98524   0.99234   0.99387   0.99770
 Alpha virt. eigenvalues --    1.00079   1.00163   1.00518   1.00768   1.01428
 Alpha virt. eigenvalues --    1.01569   1.01734   1.01971   1.02234   1.02895
 Alpha virt. eigenvalues --    1.03348   1.03510   1.03579   1.03918   1.04166
 Alpha virt. eigenvalues --    1.04689   1.05063   1.05515   1.06086   1.06169
 Alpha virt. eigenvalues --    1.07013   1.07090   1.07763   1.07985   1.08091
 Alpha virt. eigenvalues --    1.08729   1.09376   1.09733   1.10021   1.10729
 Alpha virt. eigenvalues --    1.10912   1.11380   1.11451   1.12467   1.12669
 Alpha virt. eigenvalues --    1.13549   1.14279   1.14981   1.15819   1.16240
 Alpha virt. eigenvalues --    1.16679   1.17124   1.17400   1.18196   1.18277
 Alpha virt. eigenvalues --    1.18878   1.19302   1.19341   1.19847   1.20171
 Alpha virt. eigenvalues --    1.20437   1.21041   1.21570   1.22249   1.22899
 Alpha virt. eigenvalues --    1.23141   1.23470   1.24407   1.24673   1.25115
 Alpha virt. eigenvalues --    1.25278   1.26363   1.26535   1.27233   1.27337
 Alpha virt. eigenvalues --    1.27508   1.28187   1.28540   1.28677   1.28977
 Alpha virt. eigenvalues --    1.29275   1.29643   1.30130   1.30402   1.31259
 Alpha virt. eigenvalues --    1.31463   1.31878   1.32450   1.33028   1.33395
 Alpha virt. eigenvalues --    1.33776   1.35036   1.35946   1.36903   1.37666
 Alpha virt. eigenvalues --    1.38012   1.38435   1.39617   1.39804   1.40436
 Alpha virt. eigenvalues --    1.40814   1.41464   1.42164   1.42232   1.42634
 Alpha virt. eigenvalues --    1.43533   1.43970   1.45050   1.45479   1.45802
 Alpha virt. eigenvalues --    1.46152   1.46425   1.46804   1.47789   1.47957
 Alpha virt. eigenvalues --    1.48269   1.48768   1.49225   1.49404   1.49833
 Alpha virt. eigenvalues --    1.50206   1.50493   1.50767   1.51080   1.51531
 Alpha virt. eigenvalues --    1.51709   1.51934   1.52336   1.52528   1.52881
 Alpha virt. eigenvalues --    1.53213   1.53406   1.53840   1.54057   1.54309
 Alpha virt. eigenvalues --    1.54535   1.54778   1.55032   1.55244   1.55292
 Alpha virt. eigenvalues --    1.55621   1.55954   1.56040   1.56425   1.56467
 Alpha virt. eigenvalues --    1.56764   1.57143   1.57647   1.57976   1.58418
 Alpha virt. eigenvalues --    1.58449   1.59087   1.59571   1.59984   1.60270
 Alpha virt. eigenvalues --    1.60717   1.60752   1.60984   1.61395   1.61663
 Alpha virt. eigenvalues --    1.62289   1.62482   1.62865   1.63003   1.63458
 Alpha virt. eigenvalues --    1.63760   1.64232   1.64505   1.64557   1.65226
 Alpha virt. eigenvalues --    1.65449   1.65932   1.66272   1.66783   1.66855
 Alpha virt. eigenvalues --    1.67216   1.67647   1.68400   1.68474   1.68914
 Alpha virt. eigenvalues --    1.69159   1.69736   1.69972   1.70317   1.70546
 Alpha virt. eigenvalues --    1.71579   1.71673   1.71934   1.71992   1.72766
 Alpha virt. eigenvalues --    1.73090   1.73288   1.73727   1.73968   1.74564
 Alpha virt. eigenvalues --    1.74882   1.75172   1.76337   1.76806   1.77060
 Alpha virt. eigenvalues --    1.77372   1.78103   1.78260   1.78935   1.78988
 Alpha virt. eigenvalues --    1.79807   1.80156   1.81045   1.81594   1.81657
 Alpha virt. eigenvalues --    1.82393   1.82932   1.83484   1.84296   1.84963
 Alpha virt. eigenvalues --    1.85155   1.85321   1.85739   1.86309   1.86648
 Alpha virt. eigenvalues --    1.87589   1.88412   1.88647   1.88815   1.89075
 Alpha virt. eigenvalues --    1.89230   1.89764   1.90146   1.90674   1.91016
 Alpha virt. eigenvalues --    1.91484   1.91921   1.93094   1.93449   1.93868
 Alpha virt. eigenvalues --    1.93968   1.95043   1.95488   1.96439   1.96541
 Alpha virt. eigenvalues --    1.96985   1.97699   1.98073   1.98288   1.98590
 Alpha virt. eigenvalues --    1.99162   1.99537   2.00135   2.00616   2.01058
 Alpha virt. eigenvalues --    2.01497   2.01804   2.01968   2.02514   2.02935
 Alpha virt. eigenvalues --    2.03337   2.04514   2.04578   2.05447   2.06093
 Alpha virt. eigenvalues --    2.06657   2.07230   2.07583   2.08434   2.08724
 Alpha virt. eigenvalues --    2.09169   2.09683   2.10093   2.10512   2.10963
 Alpha virt. eigenvalues --    2.11315   2.11641   2.12597   2.13337   2.13663
 Alpha virt. eigenvalues --    2.14621   2.14948   2.15238   2.15549   2.15991
 Alpha virt. eigenvalues --    2.16774   2.17197   2.17737   2.18654   2.18740
 Alpha virt. eigenvalues --    2.19368   2.19575   2.20239   2.20543   2.21167
 Alpha virt. eigenvalues --    2.22002   2.22415   2.23038   2.23492   2.24468
 Alpha virt. eigenvalues --    2.24752   2.24957   2.25546   2.26578   2.26847
 Alpha virt. eigenvalues --    2.27045   2.27369   2.28030   2.28483   2.28931
 Alpha virt. eigenvalues --    2.29174   2.29427   2.29539   2.30238   2.30935
 Alpha virt. eigenvalues --    2.31204   2.31937   2.32464   2.32803   2.33204
 Alpha virt. eigenvalues --    2.33350   2.34596   2.35011   2.35711   2.35863
 Alpha virt. eigenvalues --    2.36118   2.36280   2.36764   2.36992   2.37380
 Alpha virt. eigenvalues --    2.37697   2.38711   2.38858   2.39217   2.39428
 Alpha virt. eigenvalues --    2.39720   2.40793   2.40989   2.41709   2.42489
 Alpha virt. eigenvalues --    2.42851   2.43156   2.44005   2.44251   2.44416
 Alpha virt. eigenvalues --    2.45233   2.45433   2.45714   2.46075   2.46543
 Alpha virt. eigenvalues --    2.47120   2.47843   2.47942   2.48384   2.49032
 Alpha virt. eigenvalues --    2.49502   2.50142   2.50850   2.51301   2.52389
 Alpha virt. eigenvalues --    2.52475   2.52842   2.53086   2.53738   2.54380
 Alpha virt. eigenvalues --    2.55106   2.55182   2.55386   2.56068   2.56129
 Alpha virt. eigenvalues --    2.56636   2.56844   2.57040   2.57218   2.57791
 Alpha virt. eigenvalues --    2.58061   2.58246   2.58844   2.59335   2.59735
 Alpha virt. eigenvalues --    2.60060   2.60725   2.60934   2.61286   2.61487
 Alpha virt. eigenvalues --    2.61931   2.62158   2.62640   2.62913   2.63815
 Alpha virt. eigenvalues --    2.64602   2.65048   2.65157   2.65283   2.65923
 Alpha virt. eigenvalues --    2.66428   2.66926   2.67265   2.68100   2.68171
 Alpha virt. eigenvalues --    2.68404   2.69207   2.69456   2.69877   2.70316
 Alpha virt. eigenvalues --    2.70758   2.71040   2.71881   2.72626   2.73021
 Alpha virt. eigenvalues --    2.73594   2.74107   2.74777   2.75538   2.75707
 Alpha virt. eigenvalues --    2.76153   2.76547   2.76935   2.76995   2.77967
 Alpha virt. eigenvalues --    2.78513   2.79021   2.79268   2.79758   2.79977
 Alpha virt. eigenvalues --    2.80514   2.81004   2.81303   2.81955   2.82118
 Alpha virt. eigenvalues --    2.82385   2.83560   2.83635   2.83829   2.84351
 Alpha virt. eigenvalues --    2.84560   2.84999   2.85701   2.86317   2.86338
 Alpha virt. eigenvalues --    2.86818   2.87196   2.87518   2.87818   2.88851
 Alpha virt. eigenvalues --    2.89114   2.89182   2.89808   2.90315   2.90834
 Alpha virt. eigenvalues --    2.91263   2.91596   2.92100   2.92299   2.92687
 Alpha virt. eigenvalues --    2.93162   2.93271   2.93544   2.94262   2.95023
 Alpha virt. eigenvalues --    2.95682   2.95771   2.96178   2.96612   2.96804
 Alpha virt. eigenvalues --    2.97231   2.97673   2.97945   2.98751   2.99250
 Alpha virt. eigenvalues --    2.99495   3.00439   3.00887   3.01219   3.01562
 Alpha virt. eigenvalues --    3.02026   3.02156   3.02908   3.03834   3.04280
 Alpha virt. eigenvalues --    3.04629   3.05070   3.05590   3.06089   3.06476
 Alpha virt. eigenvalues --    3.06706   3.07166   3.07644   3.07875   3.08001
 Alpha virt. eigenvalues --    3.08329   3.08478   3.09469   3.09718   3.10054
 Alpha virt. eigenvalues --    3.10579   3.10902   3.11212   3.11394   3.11787
 Alpha virt. eigenvalues --    3.12099   3.12412   3.12981   3.13283   3.13295
 Alpha virt. eigenvalues --    3.13584   3.14030   3.14442   3.14856   3.15404
 Alpha virt. eigenvalues --    3.15970   3.16277   3.16674   3.17221   3.17567
 Alpha virt. eigenvalues --    3.17932   3.18405   3.18767   3.19431   3.19800
 Alpha virt. eigenvalues --    3.20077   3.20531   3.20570   3.20896   3.21219
 Alpha virt. eigenvalues --    3.21317   3.21849   3.22544   3.22913   3.23029
 Alpha virt. eigenvalues --    3.23807   3.24153   3.24459   3.24720   3.24958
 Alpha virt. eigenvalues --    3.25154   3.25444   3.25755   3.25952   3.26078
 Alpha virt. eigenvalues --    3.26179   3.26588   3.27053   3.27509   3.28086
 Alpha virt. eigenvalues --    3.28437   3.28916   3.29142   3.29385   3.29848
 Alpha virt. eigenvalues --    3.29965   3.30287   3.30506   3.30615   3.30741
 Alpha virt. eigenvalues --    3.31134   3.31423   3.31799   3.32124   3.32479
 Alpha virt. eigenvalues --    3.32919   3.33238   3.33432   3.33775   3.33973
 Alpha virt. eigenvalues --    3.34727   3.34840   3.35207   3.35413   3.35737
 Alpha virt. eigenvalues --    3.35847   3.35958   3.36383   3.36617   3.36784
 Alpha virt. eigenvalues --    3.37318   3.37509   3.38087   3.38174   3.38241
 Alpha virt. eigenvalues --    3.39078   3.39181   3.39567   3.39919   3.40097
 Alpha virt. eigenvalues --    3.40720   3.41030   3.41303   3.41343   3.42256
 Alpha virt. eigenvalues --    3.42651   3.43274   3.43378   3.43732   3.44291
 Alpha virt. eigenvalues --    3.44394   3.44758   3.45327   3.45733   3.46666
 Alpha virt. eigenvalues --    3.46898   3.47477   3.47816   3.48198   3.48813
 Alpha virt. eigenvalues --    3.49150   3.49491   3.49955   3.50666   3.51048
 Alpha virt. eigenvalues --    3.51494   3.52777   3.53095   3.53997   3.54073
 Alpha virt. eigenvalues --    3.54857   3.55169   3.55709   3.56190   3.57377
 Alpha virt. eigenvalues --    3.57620   3.57834   3.58230   3.58979   3.59313
 Alpha virt. eigenvalues --    3.59602   3.60482   3.60721   3.60970   3.61593
 Alpha virt. eigenvalues --    3.61951   3.62862   3.63433   3.63821   3.64459
 Alpha virt. eigenvalues --    3.65179   3.65560   3.66257   3.66482   3.67316
 Alpha virt. eigenvalues --    3.67861   3.67927   3.68840   3.69467   3.69803
 Alpha virt. eigenvalues --    3.70492   3.70672   3.71327   3.71577   3.71963
 Alpha virt. eigenvalues --    3.72605   3.72752   3.72887   3.73623   3.74054
 Alpha virt. eigenvalues --    3.74554   3.74628   3.75178   3.75563   3.75979
 Alpha virt. eigenvalues --    3.76833   3.76957   3.78008   3.78110   3.79108
 Alpha virt. eigenvalues --    3.79652   3.80493   3.81256   3.81705   3.82429
 Alpha virt. eigenvalues --    3.83372   3.83831   3.84418   3.84964   3.85528
 Alpha virt. eigenvalues --    3.85731   3.86841   3.86896   3.87534   3.88196
 Alpha virt. eigenvalues --    3.89068   3.90175   3.90346   3.91126   3.91446
 Alpha virt. eigenvalues --    3.91676   3.92554   3.93403   3.94236   3.95787
 Alpha virt. eigenvalues --    3.96530   3.97892   3.98348   3.98900   3.99498
 Alpha virt. eigenvalues --    3.99752   4.00099   4.00397   4.00623   4.01423
 Alpha virt. eigenvalues --    4.02018   4.02510   4.03089   4.04024   4.04430
 Alpha virt. eigenvalues --    4.04771   4.05119   4.06079   4.07616   4.08072
 Alpha virt. eigenvalues --    4.08935   4.09704   4.10406   4.10517   4.10859
 Alpha virt. eigenvalues --    4.11772   4.12491   4.13329   4.13628   4.14592
 Alpha virt. eigenvalues --    4.15390   4.15733   4.16604   4.17149   4.17374
 Alpha virt. eigenvalues --    4.17739   4.18076   4.19077   4.19626   4.19798
 Alpha virt. eigenvalues --    4.20017   4.21743   4.22308   4.22843   4.23173
 Alpha virt. eigenvalues --    4.23684   4.24282   4.24669   4.24907   4.25607
 Alpha virt. eigenvalues --    4.26433   4.27898   4.28218   4.28899   4.29365
 Alpha virt. eigenvalues --    4.29633   4.30841   4.31101   4.32242   4.32622
 Alpha virt. eigenvalues --    4.33255   4.33782   4.34570   4.34892   4.35280
 Alpha virt. eigenvalues --    4.36380   4.37345   4.37991   4.38800   4.39262
 Alpha virt. eigenvalues --    4.39681   4.40256   4.40559   4.41678   4.41930
 Alpha virt. eigenvalues --    4.42443   4.43076   4.43318   4.43704   4.44268
 Alpha virt. eigenvalues --    4.45033   4.45769   4.46159   4.46489   4.46769
 Alpha virt. eigenvalues --    4.47690   4.48949   4.49533   4.50997   4.51752
 Alpha virt. eigenvalues --    4.53445   4.53740   4.54471   4.55256   4.55694
 Alpha virt. eigenvalues --    4.56369   4.57069   4.58530   4.60927   4.62218
 Alpha virt. eigenvalues --    4.63423   4.65161   4.65889   4.66905   4.67404
 Alpha virt. eigenvalues --    4.67967   4.68562   4.69214   4.69573   4.71446
 Alpha virt. eigenvalues --    4.72353   4.72973   4.74297   4.74683   4.75979
 Alpha virt. eigenvalues --    4.77632   4.78741   4.80246   4.81446   4.81552
 Alpha virt. eigenvalues --    4.82954   4.83413   4.84260   4.84851   4.85253
 Alpha virt. eigenvalues --    4.86118   4.86686   4.87811   4.89292   4.89508
 Alpha virt. eigenvalues --    4.91468   4.92636   4.93793   4.94456   4.94803
 Alpha virt. eigenvalues --    4.96569   4.97698   4.99396   4.99850   5.01450
 Alpha virt. eigenvalues --    5.02282   5.02644   5.03822   5.04441   5.05624
 Alpha virt. eigenvalues --    5.06360   5.07605   5.08469   5.08815   5.10463
 Alpha virt. eigenvalues --    5.10945   5.13206   5.16278   5.16939   5.18525
 Alpha virt. eigenvalues --    5.20154   5.20221   5.21047   5.22817   5.23743
 Alpha virt. eigenvalues --    5.24779   5.25094   5.26413   5.27104   5.27958
 Alpha virt. eigenvalues --    5.28804   5.35295   5.35871   5.37505   5.37912
 Alpha virt. eigenvalues --    5.38742   5.39163   5.39436   5.39643   5.39930
 Alpha virt. eigenvalues --    5.41250   5.47989   5.48448   5.49816   5.50624
 Alpha virt. eigenvalues --    5.51229   5.52131   5.52730   5.56060   5.60107
 Alpha virt. eigenvalues --    5.60579   5.61997   5.62256   5.63252   5.63482
 Alpha virt. eigenvalues --    5.66432   5.67608   5.67981   5.73197   5.76528
 Alpha virt. eigenvalues --    5.77031   5.77744   5.78990   5.86605   5.88082
 Alpha virt. eigenvalues --    5.88669   5.91961   6.00105   6.01184   6.02429
 Alpha virt. eigenvalues --    6.10563   6.11916   6.12183   6.12867   6.18239
 Alpha virt. eigenvalues --    6.23548   6.26056   6.33496   6.34280   6.40900
 Alpha virt. eigenvalues --    6.46735   6.51022   6.51452   6.65770   6.95996
 Alpha virt. eigenvalues --    7.27568   9.08889   9.24497   9.41885  19.63373
 Alpha virt. eigenvalues --   22.33118  22.33809  22.36048  22.45965  22.46765
 Alpha virt. eigenvalues --   22.52698  22.54354  22.62515  22.62965  22.84654
 Alpha virt. eigenvalues --   22.86401  22.90377  22.93549  22.94188  22.95521
 Alpha virt. eigenvalues --   22.96834  23.03969  23.04124  23.14869  23.26254
 Alpha virt. eigenvalues --   23.29483  23.30771  23.39643  23.42550  23.50974
 Alpha virt. eigenvalues --   23.52517  23.56726  23.74169  23.78468  23.79171
 Alpha virt. eigenvalues --   23.88605  32.89928  32.91848  32.93096  33.04287
 Alpha virt. eigenvalues --   43.91982
  Beta  occ. eigenvalues -- -256.19179 -88.94579 -30.00179 -25.85265 -25.84602
  Beta  occ. eigenvalues --  -25.84244 -19.17272 -14.33045 -14.32847 -14.32772
  Beta  occ. eigenvalues --  -14.32751 -10.21842 -10.21700 -10.21559 -10.21535
  Beta  occ. eigenvalues --  -10.21478 -10.21402 -10.21358 -10.21329 -10.21320
  Beta  occ. eigenvalues --  -10.20059 -10.19884 -10.19489 -10.19411 -10.19312
  Beta  occ. eigenvalues --  -10.19229 -10.19182 -10.19136 -10.19100 -10.19080
  Beta  occ. eigenvalues --  -10.19050 -10.18984 -10.18967 -10.18946 -10.18891
  Beta  occ. eigenvalues --  -10.18877 -10.18857 -10.18840 -10.18696 -10.18614
  Beta  occ. eigenvalues --  -10.18542 -10.18486  -7.97548  -5.92137  -5.91825
  Beta  occ. eigenvalues --   -5.91247  -3.34384  -2.10189  -2.09909  -2.09454
  Beta  occ. eigenvalues --   -1.05414  -0.97460  -0.96533  -0.96438  -0.95489
  Beta  occ. eigenvalues --   -0.82855  -0.82296  -0.81971  -0.81267  -0.80895
  Beta  occ. eigenvalues --   -0.80166  -0.80119  -0.79557  -0.77334  -0.76243
  Beta  occ. eigenvalues --   -0.74706  -0.74510  -0.73619  -0.71365  -0.70398
  Beta  occ. eigenvalues --   -0.68736  -0.68365  -0.68345  -0.65878  -0.64798
  Beta  occ. eigenvalues --   -0.64557  -0.61384  -0.61039  -0.60363  -0.58141
  Beta  occ. eigenvalues --   -0.57104  -0.55097  -0.54645  -0.53815  -0.52584
  Beta  occ. eigenvalues --   -0.51604  -0.51261  -0.50919  -0.49081  -0.48290
  Beta  occ. eigenvalues --   -0.47891  -0.46572  -0.46133  -0.45683  -0.45229
  Beta  occ. eigenvalues --   -0.45029  -0.44344  -0.44296  -0.43887  -0.43716
  Beta  occ. eigenvalues --   -0.43610  -0.43407  -0.43126  -0.42509  -0.41913
  Beta  occ. eigenvalues --   -0.41859  -0.41757  -0.41733  -0.41109  -0.40690
  Beta  occ. eigenvalues --   -0.40452  -0.40174  -0.39985  -0.39788  -0.39348
  Beta  occ. eigenvalues --   -0.39231  -0.39088  -0.38870  -0.38217  -0.37951
  Beta  occ. eigenvalues --   -0.37708  -0.37588  -0.36786  -0.36321  -0.36107
  Beta  occ. eigenvalues --   -0.35934  -0.35080  -0.34559  -0.34409  -0.34346
  Beta  occ. eigenvalues --   -0.34197  -0.32406  -0.31344  -0.30875  -0.30319
  Beta  occ. eigenvalues --   -0.29706  -0.29523  -0.27565  -0.27274  -0.27143
  Beta  occ. eigenvalues --   -0.23844  -0.23704  -0.22867  -0.22466  -0.18864
  Beta  occ. eigenvalues --   -0.18545  -0.15345
  Beta virt. eigenvalues --   -0.08011  -0.06539  -0.02593  -0.01362  -0.00604
  Beta virt. eigenvalues --    0.00241   0.01646   0.01949   0.02925   0.04149
  Beta virt. eigenvalues --    0.04575   0.04728   0.05119   0.05488   0.05808
  Beta virt. eigenvalues --    0.06469   0.06833   0.07243   0.07852   0.07927
  Beta virt. eigenvalues --    0.08452   0.08631   0.09019   0.09105   0.09363
  Beta virt. eigenvalues --    0.09808   0.10225   0.10344   0.10555   0.10737
  Beta virt. eigenvalues --    0.11114   0.11213   0.11915   0.12362   0.12623
  Beta virt. eigenvalues --    0.12694   0.12921   0.13140   0.13366   0.13547
  Beta virt. eigenvalues --    0.13754   0.14097   0.14326   0.14640   0.14689
  Beta virt. eigenvalues --    0.14953   0.15093   0.15327   0.15474   0.15731
  Beta virt. eigenvalues --    0.15910   0.16422   0.16787   0.16828   0.17065
  Beta virt. eigenvalues --    0.17334   0.17449   0.17812   0.18135   0.18613
  Beta virt. eigenvalues --    0.18812   0.19125   0.19318   0.19573   0.19858
  Beta virt. eigenvalues --    0.20245   0.20515   0.20847   0.21030   0.21639
  Beta virt. eigenvalues --    0.21685   0.21851   0.22309   0.22458   0.22665
  Beta virt. eigenvalues --    0.23268   0.23501   0.24005   0.24074   0.24499
  Beta virt. eigenvalues --    0.24902   0.25234   0.25557   0.25661   0.25863
  Beta virt. eigenvalues --    0.26490   0.26548   0.27044   0.27458   0.27887
  Beta virt. eigenvalues --    0.28152   0.28267   0.28579   0.28701   0.29005
  Beta virt. eigenvalues --    0.29100   0.29448   0.29531   0.29715   0.29917
  Beta virt. eigenvalues --    0.30460   0.30771   0.30843   0.31269   0.31659
  Beta virt. eigenvalues --    0.31822   0.31876   0.32580   0.32756   0.32922
  Beta virt. eigenvalues --    0.33532   0.33655   0.33847   0.34424   0.34577
  Beta virt. eigenvalues --    0.35059   0.35375   0.35709   0.36205   0.36326
  Beta virt. eigenvalues --    0.36573   0.36763   0.37069   0.37193   0.37789
  Beta virt. eigenvalues --    0.38280   0.38429   0.38547   0.38917   0.39042
  Beta virt. eigenvalues --    0.39295   0.39941   0.40035   0.40155   0.40254
  Beta virt. eigenvalues --    0.40535   0.40762   0.41260   0.41352   0.41507
  Beta virt. eigenvalues --    0.41711   0.41999   0.42052   0.42396   0.42649
  Beta virt. eigenvalues --    0.43024   0.43074   0.43410   0.43883   0.44010
  Beta virt. eigenvalues --    0.44206   0.44559   0.44705   0.44905   0.45037
  Beta virt. eigenvalues --    0.45203   0.45342   0.45954   0.45984   0.46238
  Beta virt. eigenvalues --    0.46476   0.46632   0.46916   0.47042   0.47289
  Beta virt. eigenvalues --    0.47686   0.47852   0.47958   0.48292   0.48438
  Beta virt. eigenvalues --    0.48695   0.49077   0.49110   0.49437   0.49830
  Beta virt. eigenvalues --    0.50129   0.50369   0.50562   0.50784   0.51126
  Beta virt. eigenvalues --    0.51285   0.51591   0.51733   0.52028   0.52230
  Beta virt. eigenvalues --    0.52474   0.52889   0.52925   0.53073   0.53107
  Beta virt. eigenvalues --    0.53509   0.53775   0.54311   0.54349   0.54703
  Beta virt. eigenvalues --    0.55163   0.55383   0.55580   0.56089   0.56384
  Beta virt. eigenvalues --    0.56898   0.57066   0.57237   0.57724   0.58030
  Beta virt. eigenvalues --    0.58691   0.58947   0.59052   0.59324   0.59796
  Beta virt. eigenvalues --    0.60037   0.60510   0.60915   0.61043   0.61368
  Beta virt. eigenvalues --    0.61786   0.62425   0.62488   0.63202   0.63378
  Beta virt. eigenvalues --    0.63591   0.63897   0.64182   0.64526   0.64872
  Beta virt. eigenvalues --    0.65232   0.65441   0.65746   0.66183   0.66378
  Beta virt. eigenvalues --    0.66498   0.67015   0.67198   0.67325   0.67752
  Beta virt. eigenvalues --    0.68152   0.68385   0.68536   0.69507   0.69662
  Beta virt. eigenvalues --    0.69938   0.70540   0.70974   0.71320   0.71499
  Beta virt. eigenvalues --    0.71624   0.72071   0.72265   0.72461   0.72877
  Beta virt. eigenvalues --    0.73037   0.73530   0.73679   0.73818   0.74191
  Beta virt. eigenvalues --    0.74811   0.75069   0.75209   0.75844   0.76377
  Beta virt. eigenvalues --    0.76633   0.76965   0.77204   0.77577   0.77600
  Beta virt. eigenvalues --    0.78096   0.78424   0.78844   0.79469   0.79763
  Beta virt. eigenvalues --    0.80307   0.80764   0.80939   0.81348   0.81607
  Beta virt. eigenvalues --    0.81873   0.82475   0.83927   0.84257   0.84372
  Beta virt. eigenvalues --    0.84743   0.84915   0.85805   0.86210   0.86315
  Beta virt. eigenvalues --    0.86521   0.87043   0.87289   0.87819   0.88154
  Beta virt. eigenvalues --    0.88459   0.89008   0.89231   0.89453   0.89946
  Beta virt. eigenvalues --    0.90463   0.91151   0.91589   0.91766   0.92504
  Beta virt. eigenvalues --    0.92680   0.93207   0.93853   0.94103   0.94471
  Beta virt. eigenvalues --    0.94885   0.95116   0.95480   0.95847   0.96224
  Beta virt. eigenvalues --    0.96528   0.97040   0.97630   0.98013   0.98174
  Beta virt. eigenvalues --    0.98664   0.99399   0.99457   0.99913   1.00143
  Beta virt. eigenvalues --    1.00323   1.00615   1.00867   1.01491   1.01660
  Beta virt. eigenvalues --    1.01847   1.02148   1.02509   1.02973   1.03402
  Beta virt. eigenvalues --    1.03539   1.03703   1.04050   1.04422   1.04765
  Beta virt. eigenvalues --    1.05379   1.05609   1.06198   1.06289   1.07060
  Beta virt. eigenvalues --    1.07334   1.07983   1.08266   1.08381   1.09127
  Beta virt. eigenvalues --    1.09834   1.10083   1.10230   1.11045   1.11142
  Beta virt. eigenvalues --    1.11477   1.11637   1.12537   1.12869   1.13989
  Beta virt. eigenvalues --    1.14456   1.15073   1.16054   1.16342   1.16926
  Beta virt. eigenvalues --    1.17303   1.17460   1.18335   1.18582   1.18961
  Beta virt. eigenvalues --    1.19416   1.19541   1.20053   1.20388   1.21175
  Beta virt. eigenvalues --    1.21383   1.21822   1.22492   1.23301   1.23463
  Beta virt. eigenvalues --    1.23619   1.24645   1.24830   1.25341   1.25500
  Beta virt. eigenvalues --    1.26532   1.26738   1.27381   1.27460   1.27982
  Beta virt. eigenvalues --    1.28395   1.28699   1.28826   1.29252   1.29533
  Beta virt. eigenvalues --    1.29904   1.30377   1.30808   1.31412   1.31633
  Beta virt. eigenvalues --    1.32011   1.32635   1.33174   1.33710   1.34023
  Beta virt. eigenvalues --    1.35430   1.36132   1.37031   1.37911   1.38217
  Beta virt. eigenvalues --    1.39012   1.39669   1.39980   1.40619   1.40854
  Beta virt. eigenvalues --    1.41647   1.42262   1.42318   1.42780   1.43689
  Beta virt. eigenvalues --    1.44251   1.45254   1.45775   1.45954   1.46285
  Beta virt. eigenvalues --    1.46525   1.46886   1.47881   1.48160   1.48454
  Beta virt. eigenvalues --    1.48852   1.49404   1.49496   1.50038   1.50343
  Beta virt. eigenvalues --    1.50681   1.50828   1.51184   1.51729   1.51787
  Beta virt. eigenvalues --    1.52183   1.52517   1.52882   1.53020   1.53469
  Beta virt. eigenvalues --    1.53594   1.54049   1.54221   1.54451   1.54620
  Beta virt. eigenvalues --    1.54874   1.55168   1.55308   1.55377   1.55671
  Beta virt. eigenvalues --    1.56084   1.56378   1.56481   1.56616   1.56910
  Beta virt. eigenvalues --    1.57238   1.57699   1.58100   1.58449   1.58574
  Beta virt. eigenvalues --    1.59187   1.59637   1.60037   1.60326   1.60789
  Beta virt. eigenvalues --    1.60818   1.61033   1.61459   1.61744   1.62387
  Beta virt. eigenvalues --    1.62558   1.62979   1.63088   1.63516   1.63823
  Beta virt. eigenvalues --    1.64295   1.64565   1.64621   1.65285   1.65516
  Beta virt. eigenvalues --    1.66058   1.66334   1.66834   1.66947   1.67275
  Beta virt. eigenvalues --    1.67667   1.68474   1.68529   1.69018   1.69278
  Beta virt. eigenvalues --    1.69817   1.70032   1.70458   1.70630   1.71682
  Beta virt. eigenvalues --    1.71737   1.72019   1.72068   1.72833   1.73237
  Beta virt. eigenvalues --    1.73344   1.73802   1.74049   1.74642   1.75005
  Beta virt. eigenvalues --    1.75262   1.76477   1.77014   1.77183   1.77465
  Beta virt. eigenvalues --    1.78200   1.78410   1.79077   1.79222   1.79883
  Beta virt. eigenvalues --    1.80268   1.81134   1.81641   1.81782   1.82456
  Beta virt. eigenvalues --    1.82973   1.83614   1.84321   1.85006   1.85238
  Beta virt. eigenvalues --    1.85411   1.85833   1.86369   1.86744   1.87696
  Beta virt. eigenvalues --    1.88471   1.88823   1.88968   1.89163   1.89392
  Beta virt. eigenvalues --    1.89839   1.90269   1.90733   1.91121   1.91604
  Beta virt. eigenvalues --    1.91978   1.93259   1.93588   1.93933   1.94163
  Beta virt. eigenvalues --    1.95292   1.95607   1.96621   1.96655   1.97214
  Beta virt. eigenvalues --    1.97877   1.98222   1.98370   1.98663   1.99276
  Beta virt. eigenvalues --    1.99651   2.00270   2.00685   2.01166   2.01570
  Beta virt. eigenvalues --    2.01900   2.02181   2.02566   2.03024   2.03462
  Beta virt. eigenvalues --    2.04696   2.04915   2.05551   2.06208   2.06990
  Beta virt. eigenvalues --    2.07303   2.07749   2.08542   2.08849   2.09284
  Beta virt. eigenvalues --    2.09853   2.10257   2.10698   2.11091   2.11555
  Beta virt. eigenvalues --    2.11851   2.12890   2.13487   2.13824   2.14784
  Beta virt. eigenvalues --    2.14998   2.15339   2.15677   2.16136   2.16884
  Beta virt. eigenvalues --    2.17250   2.17896   2.18736   2.18841   2.19429
  Beta virt. eigenvalues --    2.19677   2.20386   2.20805   2.21439   2.22224
  Beta virt. eigenvalues --    2.22622   2.23133   2.23593   2.24554   2.24790
  Beta virt. eigenvalues --    2.25123   2.25872   2.26649   2.26950   2.27103
  Beta virt. eigenvalues --    2.27413   2.28151   2.28528   2.28973   2.29350
  Beta virt. eigenvalues --    2.29485   2.29641   2.30326   2.30992   2.31613
  Beta virt. eigenvalues --    2.32123   2.32841   2.32912   2.33297   2.33600
  Beta virt. eigenvalues --    2.34691   2.35133   2.35786   2.35953   2.36181
  Beta virt. eigenvalues --    2.36479   2.37092   2.37247   2.37468   2.37742
  Beta virt. eigenvalues --    2.38842   2.39010   2.39438   2.39779   2.39840
  Beta virt. eigenvalues --    2.41021   2.41281   2.41804   2.43086   2.43265
  Beta virt. eigenvalues --    2.43432   2.44205   2.44504   2.44587   2.45529
  Beta virt. eigenvalues --    2.45692   2.45909   2.46284   2.46956   2.47423
  Beta virt. eigenvalues --    2.48060   2.48100   2.48537   2.49515   2.49683
  Beta virt. eigenvalues --    2.50482   2.50975   2.51463   2.52542   2.52690
  Beta virt. eigenvalues --    2.52876   2.53235   2.53857   2.54627   2.55209
  Beta virt. eigenvalues --    2.55355   2.55596   2.56178   2.56203   2.56689
  Beta virt. eigenvalues --    2.56895   2.57103   2.57284   2.57866   2.58123
  Beta virt. eigenvalues --    2.58328   2.58948   2.59414   2.59842   2.60174
  Beta virt. eigenvalues --    2.60806   2.60995   2.61435   2.61563   2.61977
  Beta virt. eigenvalues --    2.62233   2.62761   2.63171   2.63889   2.64869
  Beta virt. eigenvalues --    2.65136   2.65346   2.65375   2.66041   2.66605
  Beta virt. eigenvalues --    2.67004   2.67317   2.68156   2.68239   2.68490
  Beta virt. eigenvalues --    2.69282   2.69547   2.69994   2.70406   2.70887
  Beta virt. eigenvalues --    2.71134   2.72038   2.72901   2.73173   2.73788
  Beta virt. eigenvalues --    2.74339   2.74939   2.75621   2.75910   2.76226
  Beta virt. eigenvalues --    2.76792   2.77085   2.77271   2.78045   2.78788
  Beta virt. eigenvalues --    2.79077   2.79416   2.79892   2.80046   2.80622
  Beta virt. eigenvalues --    2.81341   2.81363   2.82095   2.82310   2.82529
  Beta virt. eigenvalues --    2.83597   2.83803   2.83964   2.84400   2.84632
  Beta virt. eigenvalues --    2.85122   2.85759   2.86410   2.86511   2.86955
  Beta virt. eigenvalues --    2.87278   2.87690   2.87964   2.88955   2.89292
  Beta virt. eigenvalues --    2.89438   2.89904   2.90403   2.90964   2.91434
  Beta virt. eigenvalues --    2.91959   2.92350   2.92541   2.92877   2.93318
  Beta virt. eigenvalues --    2.93691   2.94313   2.94460   2.95337   2.95892
  Beta virt. eigenvalues --    2.95982   2.96316   2.96841   2.97193   2.97635
  Beta virt. eigenvalues --    2.97967   2.98070   2.99173   2.99319   2.99615
  Beta virt. eigenvalues --    3.00713   3.01144   3.01292   3.01782   3.02130
  Beta virt. eigenvalues --    3.02243   3.02941   3.03902   3.04446   3.04675
  Beta virt. eigenvalues --    3.05108   3.05669   3.06144   3.06527   3.06753
  Beta virt. eigenvalues --    3.07263   3.07686   3.07898   3.08095   3.08386
  Beta virt. eigenvalues --    3.08525   3.09575   3.09778   3.10083   3.10642
  Beta virt. eigenvalues --    3.10961   3.11238   3.11466   3.11841   3.12140
  Beta virt. eigenvalues --    3.12439   3.13142   3.13318   3.13370   3.13648
  Beta virt. eigenvalues --    3.14064   3.14522   3.14912   3.15411   3.16004
  Beta virt. eigenvalues --    3.16328   3.16716   3.17256   3.17612   3.17992
  Beta virt. eigenvalues --    3.18495   3.18811   3.19503   3.19837   3.20133
  Beta virt. eigenvalues --    3.20560   3.20617   3.20967   3.21240   3.21343
  Beta virt. eigenvalues --    3.21890   3.22577   3.22966   3.23117   3.23866
  Beta virt. eigenvalues --    3.24200   3.24589   3.24825   3.24991   3.25204
  Beta virt. eigenvalues --    3.25512   3.25828   3.26056   3.26147   3.26240
  Beta virt. eigenvalues --    3.26654   3.27118   3.27661   3.28163   3.28490
  Beta virt. eigenvalues --    3.28960   3.29170   3.29436   3.29880   3.30037
  Beta virt. eigenvalues --    3.30317   3.30573   3.30677   3.30861   3.31171
  Beta virt. eigenvalues --    3.31463   3.31826   3.32185   3.32526   3.33015
  Beta virt. eigenvalues --    3.33268   3.33538   3.33799   3.34016   3.34784
  Beta virt. eigenvalues --    3.34912   3.35260   3.35487   3.35796   3.35905
  Beta virt. eigenvalues --    3.36015   3.36436   3.36671   3.36841   3.37371
  Beta virt. eigenvalues --    3.37582   3.38121   3.38212   3.38330   3.39154
  Beta virt. eigenvalues --    3.39275   3.39617   3.39975   3.40184   3.40897
  Beta virt. eigenvalues --    3.41106   3.41361   3.41379   3.42350   3.42713
  Beta virt. eigenvalues --    3.43341   3.43463   3.43811   3.44430   3.44483
  Beta virt. eigenvalues --    3.44851   3.45465   3.45904   3.46759   3.46951
  Beta virt. eigenvalues --    3.47599   3.47920   3.48295   3.48871   3.49407
  Beta virt. eigenvalues --    3.49854   3.50085   3.50808   3.51115   3.51671
  Beta virt. eigenvalues --    3.52995   3.53337   3.54093   3.54398   3.55004
  Beta virt. eigenvalues --    3.55291   3.55978   3.56418   3.57534   3.57703
  Beta virt. eigenvalues --    3.57954   3.58331   3.59103   3.59474   3.59763
  Beta virt. eigenvalues --    3.60566   3.60955   3.61138   3.61841   3.62137
  Beta virt. eigenvalues --    3.62997   3.63510   3.64012   3.64524   3.65425
  Beta virt. eigenvalues --    3.65753   3.66555   3.66750   3.67455   3.67945
  Beta virt. eigenvalues --    3.68180   3.68959   3.69607   3.69865   3.70573
  Beta virt. eigenvalues --    3.70881   3.71395   3.71904   3.72074   3.72727
  Beta virt. eigenvalues --    3.73029   3.73162   3.73899   3.74327   3.74745
  Beta virt. eigenvalues --    3.75000   3.75309   3.75884   3.76265   3.77170
  Beta virt. eigenvalues --    3.77423   3.78240   3.78480   3.79382   3.79909
  Beta virt. eigenvalues --    3.81172   3.81634   3.82279   3.83171   3.83810
  Beta virt. eigenvalues --    3.84041   3.85260   3.85835   3.86368   3.86927
  Beta virt. eigenvalues --    3.87189   3.87681   3.88787   3.89038   3.89540
  Beta virt. eigenvalues --    3.90510   3.91074   3.91494   3.92553   3.93338
  Beta virt. eigenvalues --    3.94083   3.94173   3.95799   3.96662   3.96758
  Beta virt. eigenvalues --    3.98675   3.99072   3.99133   4.00148   4.00241
  Beta virt. eigenvalues --    4.00676   4.01273   4.01534   4.02095   4.02606
  Beta virt. eigenvalues --    4.03463   4.03844   4.04653   4.05163   4.05476
  Beta virt. eigenvalues --    4.06627   4.07472   4.07926   4.09011   4.09489
  Beta virt. eigenvalues --    4.10573   4.10916   4.11941   4.12606   4.13888
  Beta virt. eigenvalues --    4.14970   4.15325   4.15757   4.16342   4.17059
  Beta virt. eigenvalues --    4.17452   4.17915   4.18462   4.18732   4.19544
  Beta virt. eigenvalues --    4.20237   4.20552   4.21252   4.21683   4.22084
  Beta virt. eigenvalues --    4.22899   4.23357   4.23805   4.23997   4.24468
  Beta virt. eigenvalues --    4.25742   4.26911   4.27180   4.27832   4.28288
  Beta virt. eigenvalues --    4.29089   4.29894   4.30523   4.31019   4.31205
  Beta virt. eigenvalues --    4.32218   4.32641   4.32753   4.33952   4.33987
  Beta virt. eigenvalues --    4.35120   4.35626   4.37327   4.37683   4.37771
  Beta virt. eigenvalues --    4.39208   4.39528   4.39772   4.40480   4.40627
  Beta virt. eigenvalues --    4.40838   4.41761   4.41900   4.42947   4.43648
  Beta virt. eigenvalues --    4.44423   4.44954   4.45290   4.45986   4.46528
  Beta virt. eigenvalues --    4.46840   4.47422   4.47500   4.47930   4.48725
  Beta virt. eigenvalues --    4.49529   4.50144   4.51242   4.52310   4.53611
  Beta virt. eigenvalues --    4.53933   4.54787   4.55492   4.55839   4.56699
  Beta virt. eigenvalues --    4.57307   4.58635   4.61066   4.62572   4.64341
  Beta virt. eigenvalues --    4.65947   4.66176   4.67567   4.67613   4.68133
  Beta virt. eigenvalues --    4.68714   4.69421   4.69806   4.71537   4.72489
  Beta virt. eigenvalues --    4.73335   4.74468   4.74861   4.76028   4.77667
  Beta virt. eigenvalues --    4.79061   4.80429   4.81603   4.82695   4.83343
  Beta virt. eigenvalues --    4.83886   4.84523   4.85290   4.85431   4.86270
  Beta virt. eigenvalues --    4.86813   4.88122   4.89399   4.89741   4.91639
  Beta virt. eigenvalues --    4.92948   4.94075   4.94670   4.95130   4.96807
  Beta virt. eigenvalues --    4.97914   4.99619   5.00150   5.01755   5.02531
  Beta virt. eigenvalues --    5.02837   5.04062   5.04749   5.05779   5.06636
  Beta virt. eigenvalues --    5.07757   5.08619   5.08992   5.10559   5.11068
  Beta virt. eigenvalues --    5.13306   5.16544   5.17119   5.18613   5.20328
  Beta virt. eigenvalues --    5.20562   5.21327   5.23176   5.24007   5.25173
  Beta virt. eigenvalues --    5.25705   5.26722   5.27647   5.28262   5.29510
  Beta virt. eigenvalues --    5.35433   5.36005   5.37739   5.38128   5.38954
  Beta virt. eigenvalues --    5.39430   5.39672   5.39825   5.40105   5.41369
  Beta virt. eigenvalues --    5.48399   5.48876   5.50068   5.50843   5.51492
  Beta virt. eigenvalues --    5.52317   5.52882   5.56677   5.60330   5.60733
  Beta virt. eigenvalues --    5.62032   5.62432   5.63482   5.63773   5.66657
  Beta virt. eigenvalues --    5.67884   5.68219   5.73345   5.76711   5.77210
  Beta virt. eigenvalues --    5.77869   5.79104   5.86880   5.88391   5.88918
  Beta virt. eigenvalues --    5.92434   6.00396   6.01474   6.02661   6.11311
  Beta virt. eigenvalues --    6.12444   6.12920   6.13636   6.18354   6.23738
[...]
  1141. RY*(  18) C  56                  0.00000     3.14648   
  1142. RY*(  19) C  56                  0.00000     2.65166   
  1143. RY*(  20) C  56                  0.00000     3.21512   
  1144. RY*(  21) C  56                  0.00000     3.54084   
  1145. RY*(  22) C  56                  0.00000     3.84172   
  1146. RY*(  23) C  56                  0.00000     3.40156   
  1147. RY*(  24) C  56                  0.00000     3.32873   
  1148. RY*(  25) C  56                  0.00000     3.59926   
  1149. RY*(  26) C  56                  0.00000     3.71584   
  1150. RY*(   1) H  57                  0.00048     0.90136   
  1151. RY*(   2) H  57                  0.00009     1.82962   
  1152. RY*(   3) H  57                  0.00003     2.09400   
  1153. RY*(   4) H  57                  0.00003     2.11864   
  1154. RY*(   5) H  57                  0.00000     2.97112   
  1155. RY*(   1) H  58                  0.00047     0.89612   
  1156. RY*(   2) H  58                  0.00009     1.84374   
  1157. RY*(   3) H  58                  0.00003     2.08884   
  1158. RY*(   4) H  58                  0.00003     2.12286   
  1159. RY*(   5) H  58                  0.00000     2.97060   
  1160. RY*(   1) H  59                  0.00036     0.91098   
  1161. RY*(   2) H  59                  0.00006     1.77512   
  1162. RY*(   3) H  59                  0.00004     2.10143   
  1163. RY*(   4) H  59                  0.00004     2.08097   
  1164. RY*(   5) H  59                  0.00000     3.00103   
  1165. RY*(   1) C  60                  0.00072     1.29026   
  1166. RY*(   2) C  60                  0.00069     1.26023   
  1167. RY*(   3) C  60                  0.00031     1.40887   
  1168. RY*(   4) C  60                  0.00006     0.92799   
  1169. RY*(   5) C  60                  0.00003     1.49363   
  1170. RY*(   6) C  60                  0.00001     2.80183   
  1171. RY*(   7) C  60                  0.00001     1.53812   
  1172. RY*(   8) C  60                  0.00000     1.75745   
  1173. RY*(   9) C  60                  0.00001     1.61562   
  1174. RY*(  10) C  60                  0.00001     3.42187   
  1175. RY*(  11) C  60                  0.00000     2.57475   
  1176. RY*(  12) C  60                  0.00000     2.13450   
  1177. RY*(  13) C  60                  0.00000     2.39960   
  1178. RY*(  14) C  60                  0.00000     2.94842   
  1179. RY*(  15) C  60                  0.00000     2.34292   
  1180. RY*(  16) C  60                  0.00000    21.65046   
  1181. RY*(  17) C  60                  0.00001     2.66205   
  1182. RY*(  18) C  60                  0.00000     3.18744   
  1183. RY*(  19) C  60                  0.00000     2.63655   
  1184. RY*(  20) C  60                  0.00000     3.22211   
  1185. RY*(  21) C  60                  0.00000     3.51572   
  1186. RY*(  22) C  60                  0.00000     3.84272   
  1187. RY*(  23) C  60                  0.00000     3.41353   
  1188. RY*(  24) C  60                  0.00000     3.31702   
  1189. RY*(  25) C  60                  0.00000     3.70478   
  1190. RY*(  26) C  60                  0.00000     3.85265   
  1191. RY*(   1) H  61                  0.00047     0.89897   
  1192. RY*(   2) H  61                  0.00010     1.82224   
  1193. RY*(   3) H  61                  0.00003     2.05329   
  1194. RY*(   4) H  61                  0.00003     2.15908   
  1195. RY*(   5) H  61                  0.00000     2.96703   
  1196. RY*(   1) H  62                  0.00037     0.91370   
  1197. RY*(   2) H  62                  0.00006     1.77295   
  1198. RY*(   3) H  62                  0.00004     2.10277   
  1199. RY*(   4) H  62                  0.00004     2.08290   
  1200. RY*(   5) H  62                  0.00000     3.00077   
  1201. RY*(   1) H  63                  0.00046     0.90085   
  1202. RY*(   2) H  63                  0.00009     1.83619   
  1203. RY*(   3) H  63                  0.00003     2.04918   
  1204. RY*(   4) H  63                  0.00003     2.15976   
  1205. RY*(   5) H  63                  0.00000     2.96550   
  1317. BD*(   1) N   2 - C   6          0.01299     0.51367   
  1318. BD*(   2) N   2 - C   6          0.32330     0.01121  1363(v),1337(v),1332(v)
                                                    144(r),288(g),183(g),702(v)
                                                    1324(r),143(r),139(r)
                                                    1316(r),140(r)
  1319. BD*(   1) N   2 - C   9          0.01299     0.51238   
  1320. BD*(   1) N   3 - C  10          0.01313     0.50713   
  1321. BD*(   2) N   3 - C  10          0.31770     0.01038  1337(v),1346(v),1341(v)
                                                    391(g),144(r),208(g),143(r)
                                                    393(g),733(v),1316(r),140(r)
                                                    1401(r)
  1322. BD*(   1) N   3 - C  13          0.01257     0.51328   
  1323. BD*(   1) N   4 - C  14          0.01301     0.51078   
  1324. BD*(   2) N   4 - C  14          0.32948     0.01011  1346(v),1350(v),150(v)
                                                    144(r),496(g),764(v),1318(r)
                                                    235(g),143(r),139(r),1316(r)
                                                    140(r),1401(r),142(r)
  1325. BD*(   1) N   4 - C  17          0.01247     0.51544   
  1326. BD*(   1) N   5 - C  18          0.01305     0.51296   
  1327. BD*(   2) N   5 - C  18          0.31358     0.01385  1363(v),1358(v),144(r)
                                                    599(g),260(g),143(r),795(v)
                                                    601(g),1316(r),140(r)
  1328. BD*(   1) N   5 - C  21          0.01302     0.50922   
  1329. BD*(   1) C   6 - C   7          0.01775     0.49228   
  1330. BD*(   1) C   6 - C  22          0.01054     0.57393   
  1331. BD*(   1) C   7 - C   8          0.01126     0.60846   
  1332. BD*(   2) C   7 - C   8          0.13337     0.06759  1337(v),1318(v),1369(v)
                                                    1372(v),1371(v),1370(v)
  1333. BD*(   1) C   7 - C  34          0.00859     0.41332   
  1334. BD*(   1) C   8 - C   9          0.01758     0.49008   
  1335. BD*(   1) C   8 - C  30          0.00854     0.41390   
  1336. BD*(   1) C   9 - C  24          0.01033     0.57890   
  1337. BD*(   2) C   9 - C  24          0.21213     0.04674  1321(v),1332(v),1318(v)
                                                    1346(r),733(g),1363(r)
                                                    368(g)
  1338. BD*(   1) C  10 - C  11          0.01715     0.49817   
  1339. BD*(   1) C  10 - C  24          0.01052     0.57160   
  1340. BD*(   1) C  11 - C  12          0.01234     0.59342   
  1341. BD*(   2) C  11 - C  12          0.13871     0.06561  1379(v),1346(v),1321(v)
                                                    1374(v),1375(v)
  1342. BD*(   1) C  11 - C  38          0.00810     0.41733   
  1343. BD*(   1) C  12 - C  13          0.01724     0.48883   
  1344. BD*(   1) C  12 - C  42          0.01325     0.49797   
  1345. BD*(   1) C  13 - C  26          0.01035     0.57800   
  1346. BD*(   2) C  13 - C  26          0.20337     0.04654  1324(v),1341(v),1321(v)
                                                    1337(r),764(g),1379(r)
                                                    469(g)
  1347. BD*(   1) C  14 - C  15          0.01725     0.49720   
  1348. BD*(   1) C  14 - C  26          0.01056     0.57682   
  1349. BD*(   1) C  15 - C  16          0.01087     0.59150   
  1350. BD*(   2) C  15 - C  16          0.14971     0.06393  1387(v),1324(v),150(v)
                                                    1383(v),1382(v),1385(v)
  1351. BD*(   1) C  15 - C  47          0.00824     0.41580   
  1352. BD*(   1) C  16 - C  17          0.01913     0.48644   
  1353. BD*(   1) C  16 - C  51          0.01330     0.49288   
  1354. BD*(   1) C  17 - C  28          0.01039     0.57709   
  1355. BD*(   1) C  18 - C  19          0.01763     0.49340   
  1356. BD*(   1) C  18 - C  28          0.01070     0.57856   
  1357. BD*(   1) C  19 - C  20          0.01126     0.60984   
  1358. BD*(   2) C  19 - C  20          0.11989     0.06999  1363(v),1327(v),1393(v)
                                                    1390(v),1391(v),1395(v)
                                                    627(g)
  1359. BD*(   1) C  19 - C  56          0.00851     0.41609   
  1360. BD*(   1) C  20 - C  21          0.01786     0.49343   
  1361. BD*(   1) C  20 - C  60          0.00858     0.41466   
  1362. BD*(   1) C  21 - C  22          0.01050     0.57277   
  1363. BD*(   2) C  21 - C  22          0.20983     0.04421  1318(v),1358(v),1327(v)
                                                    702(g),1337(r),677(g),680(g)
  1364. BD*(   1) C  22 - H  23          0.00628     0.43476   
  1365. BD*(   1) C  24 - H  25          0.00632     0.43152   
  1366. BD*(   1) C  26 - H  27          0.00634     0.43343   
  1367. BD*(   1) C  28 - H  29          0.00707     0.44123   
  1368. BD*(   1) C  30 - H  31          0.00335     0.38935   
  1369. BD*(   1) C  30 - H  32          0.00544     0.37828   
  1370. BD*(   1) C  30 - H  33          0.00528     0.37833   
  1371. BD*(   1) C  34 - H  35          0.00516     0.37697   
  1372. BD*(   1) C  34 - H  36          0.00522     0.37755   
  1373. BD*(   1) C  34 - H  37          0.00335     0.38896   
  1374. BD*(   1) C  38 - H  39          0.00640     0.37867   
  1375. BD*(   1) C  38 - H  40          0.00513     0.38579   
  1376. BD*(   1) C  38 - H  41          0.00418     0.39378   
  1377. BD*(   1) C  42 - H  43          0.01063     0.42299   
  1378. BD*(   1) C  42 - C  44          0.00395     0.63191   
  1379. BD*(   2) C  42 - C  44          0.03872     0.05943   
  1380. BD*(   1) C  44 - H  45          0.00548     0.43627   
  1381. BD*(   1) C  44 - H  46          0.00428     0.43603   
  1382. BD*(   1) C  47 - H  48          0.00468     0.38163   
  1383. BD*(   1) C  47 - H  49          0.00546     0.37873   
  1384. BD*(   1) C  47 - H  50          0.00306     0.39044   
  1385. BD*(   1) C  51 - H  52          0.01101     0.42092   
  1386. BD*(   1) C  51 - C  53          0.00363     0.62065   
  1387. BD*(   2) C  51 - C  53          0.03507     0.06805   
  1388. BD*(   1) C  53 - H  54          0.00569     0.43374   
  1389. BD*(   1) C  53 - H  55          0.00442     0.43532   
  1390. BD*(   1) C  56 - H  57          0.00573     0.38081   
  1391. BD*(   1) C  56 - H  58          0.00559     0.38068   
  1392. BD*(   1) C  56 - H  59          0.00334     0.39155   
  1393. BD*(   1) C  60 - H  61          0.00570     0.37743   
  1394. BD*(   1) C  60 - H  62          0.00337     0.39045   
  1395. BD*(   1) C  60 - H  63          0.00539     0.37916   
       -------------------------------
              Total Lewis  114.98056  ( 97.1464%)
        Valence non-Lewis    3.13734  (  2.6507%)
        Rydberg non-Lewis    0.24019  (  0.2029%)
       -------------------------------
            Total unit  2  118.35809  (100.0000%)
           Charge unit  2   -0.35809
 
 Molecular unit  3  (H2O)
    81. BD (   1) O  64 - H  65          0.99441    -0.81769  143(r),1239(v),155(r)
                                                    1316(r),141(r),140(r),161(r)
                                                    264(r),263(r),184(r),1287(r)
                                                    260(r),469(r),139(r),261(r)
    82. BD (   1) O  64 - H  66          0.99622    -0.88183  143(r),1234(v),155(r)
                                                    1396(g),1316(r),144(r)
                                                    212(r),158(r),140(r),157(r)
                                                    211(r),159(r),216(r),209(r)
                                                    1287(r),184(r),234(r),161(r)
                                                    236(r)
   131. CR (   1) O  64                  0.99991   -18.96031  143(r),1239(v),1234(v)
                                                    140(r),1316(r),157(r)
   152. LP (   1) O  64                  0.98580    -0.33389  144(r),142(r),1238(v)
                                                    1233(v),183(r),235(r),141(r)
   153. LP (   2) O  64                  0.92008    -0.48865  143(r),1396(g),1239(v)
                                                    1234(v),1397(g),161(r)
                                                    144(r),1316(r),234(r),237(r)
                                                    182(r),185(r),141(r),211(r)
                                                    208(r),260(r),139(r),183(r)
                                                    209(r),157(r),159(r),263(r)
                                                    261(r),166(r),155(r)
  1206. RY*(   1) O  64                  0.00226     1.09343   
  1207. RY*(   2) O  64                  0.00031     1.00039   
  1208. RY*(   3) O  64                  0.00018     0.96929   
  1209. RY*(   4) O  64                  0.00007     1.17619   
  1210. RY*(   5) O  64                  0.00003     2.40794   
  1211. RY*(   6) O  64                  0.00001     5.67632   
  1212. RY*(   7) O  64                  0.00002     2.03046   
  1213. RY*(   8) O  64                  0.00000     3.31313   
  1214. RY*(   9) O  64                  0.00001     3.12920   
  1215. RY*(  10) O  64                  0.00000     2.53805   
  1216. RY*(  11) O  64                  0.00000     6.33254   
  1217. RY*(  12) O  64                  0.00000    41.62738   
  1218. RY*(  13) O  64                  0.00000     6.55680   
  1219. RY*(  14) O  64                  0.00000     2.84304   
  1220. RY*(  15) O  64                  0.00000     6.43392   
  1221. RY*(  16) O  64                  0.00001     2.44386   
  1222. RY*(  17) O  64                  0.00000     6.30806   
  1223. RY*(  18) O  64                  0.00000     2.32823   
  1224. RY*(  19) O  64                  0.00000     6.44517   
  1225. RY*(  20) O  64                  0.00000     5.35527   
  1226. RY*(  21) O  64                  0.00000     5.54569   
  1227. RY*(  22) O  64                  0.00000     5.19105   
  1228. RY*(  23) O  64                  0.00000     5.53691   
  1229. RY*(  24) O  64                  0.00000     5.55723   
  1230. RY*(  25) O  64                  0.00000     5.37578   
  1231. RY*(  26) O  64                  0.00000     5.63091   
  1232. RY*(   1) H  65                  0.00108     0.82112   
  1233. RY*(   2) H  65                  0.00039     1.98764   
  1234. RY*(   3) H  65                  0.00033     2.19677   
  1235. RY*(   4) H  65                  0.00010     2.05993   
  1236. RY*(   5) H  65                  0.00001     2.91471   
  1237. RY*(   1) H  66                  0.00060     0.74288   
  1238. RY*(   2) H  66                  0.00045     1.99371   
  1239. RY*(   3) H  66                  0.00037     2.18511   
  1240. RY*(   4) H  66                  0.00014     2.13077   
  1241. RY*(   5) H  66                  0.00000     3.02681   
  1396. BD*(   1) O  64 - H  65          0.00301     0.42291   
  1397. BD*(   1) O  64 - H  66          0.00184     0.59120   
       -------------------------------
              Total Lewis    4.89642  ( 99.7710%)
        Valence non-Lewis    0.00485  (  0.0989%)
        Rydberg non-Lewis    0.00639  (  0.1301%)
       -------------------------------
            Total unit  3    4.90766  (100.0000%)
           Charge unit  3    0.09234
 Unable to Open any file for archive entry.
 1\1\GINC-BGN1008\SP\UAPFD\def2TZVP\C31H34Fe1N4O1S1(5)\BECSLEIP\04-Oct-
 2024\0\\# apfd/def2TZVP guess=read scf=maxcycle=999 geom=check pop=nbo
 \\5ik1_II_Q\\0,5\Fe,0,0.7766474327,22.019127184,-18.3313144924\N,0,-0.
 9902536885,21.4542996136,-19.0425817423\N,0,-0.0918089915,22.746100582
 1,-16.6819713421\N,0,2.5699473587,22.653790944,-17.6559083934\N,0,1.65
 09298885,21.4974230396,-20.0550510521\C,0,-1.2328838712,20.815347377,-
 20.2156943719\C,0,-2.6388137478,20.5014058666,-20.3450714904\C,0,-3.23
 75466377,20.9612274501,-19.2143194751\C,0,-2.1935182132,21.5768810211,
 -18.4233142955\C,0,-1.4221396849,22.7233315046,-16.3926501443\C,0,-1.6
 698326525,23.255460233,-15.0772748988\C,0,-0.4542322125,23.656851532,-
 14.5908447296\C,0,0.5137154489,23.3427301093,-15.6234023147\C,0,2.8222
 342688,23.1878956274,-16.4304099762\C,0,4.2409735499,23.3187571811,-16
 .2188981884\C,0,4.8356478694,23.0192745725,-17.4143291099\C,0,3.762773
 5774,22.6152869196,-18.3028785893\C,0,2.9602157746,21.6278673068,-20.3
 965913282\C,0,3.2004464628,21.0928546359,-21.7181035428\C,0,1.99920579
 01,20.6472255848,-22.1742862706\C,0,1.0426797359,20.9112506593,-21.122
 6877121\C,0,-0.2857314324,20.5314848022,-21.1818423422\H,0,-0.61984579
 03,20.026816834,-22.0751338562\C,0,-2.4027275078,22.1543381966,-17.187
 4344836\H,0,-3.4145067591,22.1664310689,-16.8127345256\C,0,1.877713267
 1,23.486010262,-15.4665733876\H,0,2.234610436,23.8984287423,-14.535793
 7977\C,0,3.9573310289,22.1248680913,-19.5797605406\H,0,4.9659204812,22
 .1125121643,-19.9601131458\C,0,-4.6723292221,20.9082246353,-18.8166740
 961\H,0,-5.2627808924,20.3894145566,-19.5677783391\H,0,-5.0753074367,2
 1.9143430636,-18.6982771353\H,0,-4.7871208074,20.3844584758,-17.867498
 0518\C,0,-3.2359533252,19.7933660136,-21.5121815547\H,0,-2.7776455988,
 18.8126029953,-21.6426845418\H,0,-3.0779948722,20.3644315404,-22.42732
 38513\H,0,-4.3056625504,19.6562344566,-21.3755780293\C,0,-3.0129611023
 ,23.4103023184,-14.4546637555\H,0,-3.3344544211,22.4767857914,-13.9904
 440389\H,0,-3.7552341402,23.6886339556,-15.2013367301\H,0,-2.982694372
 2,24.1820954457,-13.6881817491\C,0,-0.1332477538,24.2963337496,-13.334
 286046\H,0,0.6866270928,25.0047263417,-13.3681129795\C,0,-0.7494599802
 ,24.0777407857,-12.1773688059\H,0,-1.5357806881,23.3505327292,-12.0756
 774519\H,0,-0.4651710961,24.6025799093,-11.2804943335\C,0,4.8797382578
 ,23.8000946306,-14.9632701667\H,0,4.5311617241,23.2187565551,-14.10991
 13159\H,0,4.6334477163,24.8472218043,-14.7823781673\H,0,5.9614793542,2
 3.7135074636,-15.0282631349\C,0,6.2503025767,23.0811782072,-17.7225977
 833\H,0,6.9103767371,22.7356616201,-16.934102203\C,0,6.7777261722,23.5
 572476621,-18.8442095395\H,0,6.1693025859,23.9644862394,-19.6339806776
 \H,0,7.8433018727,23.5814943738,-19.0009613498\C,0,4.5314481203,21.077
 5570037,-22.3868919928\H,0,5.2437947765,20.487344174,-21.8098510464\H,
 0,4.927095346,22.0893246767,-22.4757595739\H,0,4.4590317707,20.6485553
 545,-23.3832338423\C,0,1.6612106496,20.0070116265,-23.4767070524\H,0,1
 .2869093856,18.9942625972,-23.3227875626\H,0,2.5368042534,19.952968643
 8,-24.1187151467\H,0,0.8897843859,20.5768335886,-23.9947105876\O,0,0.4
 34,24.061,-19.167\H,0,0.139,24.619,-18.4470000001\H,0,0.5549999999,24.
 312,-20.011\C,0,0.4824655551,18.6089005474,-18.3301802967\H,0,0.672232
 2741,18.8054497933,-19.37959053\H,0,-0.5855732747,18.6238801252,-18.14
 06374876\H,0,0.9045783745,17.6574529528,-18.0218682284\S,0,1.211062608
 3,19.9433036957,-17.3145528776\H,0,2.4578744278,19.7693620033,-17.7678
 953514\\Version=ES64L-G16RevC.02\State=5-A\HF=-3157.1836445\S2=6.09591
 7\S2-1=0.\S2A=6.000455\RMSD=2.219e-09\Dipole=-0.3365847,-0.1365474,-0.
 6984577\Quadrupole=2.1757519,-1.5674608,-0.6082911,1.5927492,0.5221466
 ,3.5265742\PG=C01 [X(C31H34Fe1N4O1S1)]\\@
 The archive entry for this job was punched.


 THE MOST INCOMPREHENSIBLE THING ABOUT THE WORLD
 IS THAT IT IS COMPREHENSIBLE. -- A. EINSTEIN
 Job cpu time:       4 days 15 hours 24 minutes 23.4 seconds.
 Elapsed time:       0 days  1 hours 41 minutes 25.3 seconds.
 File lengths (MBytes):  RWF=   1815 Int=      0 D2E=      0 Chk=    164 Scr=      1
 Normal termination of Gaussian 16 at Fri Oct  4 19:46:51 2024.
