 Entering Gaussian System, Link 0=g16
 Input=5ik112re.com
 Output=5ik112re.log
 Initial command:
 /sw/chem/gaussian/g16_C02/a100/g16/l1.exe "/local/becsleip_8038652/Gau-70941.inp" -scrdir="/local/becsleip_8038652/"
 Entering Link 1 = /sw/chem/gaussian/g16_C02/a100/g16/l1.exe PID=     70942.
  
 Copyright (c) 1988-2021, Gaussian, Inc.  All Rights Reserved.
  
 This is part of the Gaussian(R) 16 program.  It is based on
 the Gaussian(R) 09 system (copyright 2009, Gaussian, Inc.),
 the Gaussian(R) 03 system (copyright 2003, Gaussian, Inc.),
 the Gaussian(R) 98 system (copyright 1998, Gaussian, Inc.),
 the Gaussian(R) 94 system (copyright 1995, Gaussian, Inc.),
 the Gaussian 92(TM) system (copyright 1992, Gaussian, Inc.),
 the Gaussian 90(TM) system (copyright 1990, Gaussian, Inc.),
 the Gaussian 88(TM) system (copyright 1988, Gaussian, Inc.),
 the Gaussian 86(TM) system (copyright 1986, Carnegie Mellon
 University), and the Gaussian 82(TM) system (copyright 1983,
 Carnegie Mellon University). Gaussian is a federally registered
 trademark of Gaussian, Inc.
  
 This software contains proprietary and confidential information,
 including trade secrets, belonging to Gaussian, Inc.
  
 This software is provided under written license and may be
 used, copied, transmitted, or stored only in accord with that
 written license.
  
 The following legend is applicable only to US Government
 contracts under FAR:
  
                    RESTRICTED RIGHTS LEGEND
  
 Use, reproduction and disclosure by the US Government is
 subject to restrictions as set forth in subparagraphs (a)
 and (c) of the Commercial Computer Software - Restricted
 Rights clause in FAR 52.227-19.
  
 Gaussian, Inc.
 340 Quinnipiac St., Bldg. 40, Wallingford CT 06492
  
  
 ---------------------------------------------------------------
 Warning -- This program may not be used in any manner that
 competes with the business of Gaussian, Inc. or will provide
 assistance to any competitor of Gaussian, Inc.  The licensee
 of this program is prohibited from giving any competitor of
 Gaussian, Inc. access to this program.  By using this program,
 the user acknowledges that Gaussian, Inc. is engaged in the
 business of creating and licensing software in the field of
 computational chemistry and represents and warrants to the
 licensee that it is not a competitor of Gaussian, Inc. and that
 it will not use this program in any manner prohibited above.
 ---------------------------------------------------------------
  

 Cite this work as:
 Gaussian 16, Revision C.02,
 M. J. Frisch, G. W. Trucks, H. B. Schlegel, G. E. Scuseria, 
 M. A. Robb, J. R. Cheeseman, G. Scalmani, V. Barone, 
 G. A. Petersson, H. Nakatsuji, X. Li, M. Caricato, A. V. Marenich, 
 J. Bloino, B. G. Janesko, R. Gomperts, B. Mennucci, H. P. Hratchian, 
 J. V. Ortiz, A. F. Izmaylov, J. L. Sonnenberg, D. Williams-Young, 
 F. Ding, F. Lipparini, F. Egidi, J. Goings, B. Peng, A. Petrone, 
 T. Henderson, D. Ranasinghe, V. G. Zakrzewski, J. Gao, N. Rega, 
 G. Zheng, W. Liang, M. Hada, M. Ehara, K. Toyota, R. Fukuda, 
 J. Hasegawa, M. Ishida, T. Nakajima, Y. Honda, O. Kitao, H. Nakai, 
 T. Vreven, K. Throssell, J. A. Montgomery, Jr., J. E. Peralta, 
 F. Ogliaro, M. J. Bearpark, J. J. Heyd, E. N. Brothers, K. N. Kudin, 
 V. N. Staroverov, T. A. Keith, R. Kobayashi, J. Normand, 
 K. Raghavachari, A. P. Rendell, J. C. Burant, S. S. Iyengar, 
 J. Tomasi, M. Cossi, J. M. Millam, M. Klene, C. Adamo, R. Cammi, 
 J. W. Ochterski, R. L. Martin, K. Morokuma, O. Farkas, 
 J. B. Foresman, and D. J. Fox, Gaussian, Inc., Wallingford CT, 2019.
 
 ******************************************
 Gaussian 16:  ES64L-G16RevC.02  7-Dec-2021
                 3-Oct-2024 
 ******************************************
 %mem=16GB
 %CPU=0-71
 SetSPE:  set environment variable "OMP_PROC_BIND" = "true"
 SetSPE:  set environment variable "OMP_PLACES" = "{0},{1},{2},{3},{4},{5},{6},{7},{8},{9},{10},{11},{12},{13},{14},{15},{16},{17},{18},{19},{20},{21},{22},{23},{24},{25},{26},{27},{28},{29},{30},{31},{32},{33},{34},{35},{36},{37},{38},{39},{40},{41},{42},{43},{44},{45},{46},{47},{48},{49},{50},{51},{52},{53},{54},{55},{56},{57},{58},{59},{60},{61},{62},{63},{64},{65},{66},{67},{68},{69},{70},{71}"
 Will use up to   72 processors via shared memory.
 %gpucpu=0,1,2,3=0,1,2,3
 Will use    4 GPUs:
 Thread  CPU   GPU
      0    0     0
      1    1     1
      2    2     2
      3    3     3
      4    4    -1
      5    5    -1
      6    6    -1
      7    7    -1
      8    8    -1
      9    9    -1
     10   10    -1
     11   11    -1
     12   12    -1
     13   13    -1
     14   14    -1
     15   15    -1
     16   16    -1
     17   17    -1
     18   18    -1
     19   19    -1
     20   20    -1
     21   21    -1
     22   22    -1
     23   23    -1
     24   24    -1
     25   25    -1
     26   26    -1
     27   27    -1
     28   28    -1
     29   29    -1
     30   30    -1
     31   31    -1
     32   32    -1
     33   33    -1
     34   34    -1
     35   35    -1
     36   36    -1
     37   37    -1
     38   38    -1
     39   39    -1
     40   40    -1
     41   41    -1
     42   42    -1
     43   43    -1
     44   44    -1
     45   45    -1
     46   46    -1
     47   47    -1
     48   48    -1
     49   49    -1
     50   50    -1
     51   51    -1
     52   52    -1
     53   53    -1
     54   54    -1
     55   55    -1
     56   56    -1
     57   57    -1
     58   58    -1
     59   59    -1
     60   60    -1
     61   61    -1
     62   62    -1
     63   63    -1
     64   64    -1
     65   65    -1
     66   66    -1
     67   67    -1
     68   68    -1
     69   69    -1
     70   70    -1
     71   71    -1
 SetGPE:  set environment variable "OMP_PROC_BIND" = "true"
 SetGPE:  set environment variable "OMP_PLACES" = "{0},{1},{2},{3},{4},{5},{6},{7},{8},{9},{10},{11},{12},{13},{14},{15},{16},{17},{18},{19},{20},{21},{22},{23},{24},{25},{26},{27},{28},{29},{30},{31},{32},{33},{34},{35},{36},{37},{38},{39},{40},{41},{42},{43},{44},{45},{46},{47},{48},{49},{50},{51},{52},{53},{54},{55},{56},{57},{58},{59},{60},{61},{62},{63},{64},{65},{66},{67},{68},{69},{70},{71}"
 %oldchk=5ik1_II_S.chk
 %chk=5ik1_II_Sre.chk
 Properties for Device   0
 Minimum vector length:                              32
 Maximum vector length:                            1024
 Number of SMPs:                                    108
 Maximum number of threads per SMP:                2048
 Number of ASync Engines:                             5
 Memory:                                           9207742464
 Properties for Device   1
 Minimum vector length:                              32
 Maximum vector length:                            1024
 Number of SMPs:                                    108
 Maximum number of threads per SMP:                2048
 Number of ASync Engines:                             5
 Memory:                                           9207742464
 Properties for Device   2
 Minimum vector length:                              32
 Maximum vector length:                            1024
 Number of SMPs:                                    108
 Maximum number of threads per SMP:                2048
 Number of ASync Engines:                             5
 Memory:                                           9207742464
 Properties for Device   3
 Minimum vector length:                              32
 Maximum vector length:                            1024
 Number of SMPs:                                    108
 Maximum number of threads per SMP:                2048
 Number of ASync Engines:                             5
 Memory:                                           9207742464
   8286968217 words of memory will be used on each GPU.
 Copying data from "5ik1_II_S.chk" to current chk file "5ik1_II_Sre.chk"
 IOpt=  2 FromEx=T IUOpen= 4 IOptOp= 5 NList=   0 IFRang= 0 IUIn= 4 IUOut= 2.
 --------------------------------------
 # apfd/gen scf=maxcycle=999 geom=check
 --------------------------------------
 1/29=2,38=1,172=1/1;
 2/12=2,40=1/2;
 3/5=7,11=2,14=-4,25=1,30=1,74=-44/1,2,3;
 4//1;
 5/5=2,7=999,38=5/2;
 6/7=2,8=2,9=2,10=2,28=1/1;
 99/5=1,9=1/99;
 ----------
 5ik1_III_D
 ----------
 Structure from the checkpoint file:  "5ik1_II_Sre.chk"
 Charge =  1 Multiplicity = 2
 Z-Matrix found in chk file.
 Fe,0,0.7766474327,22.019127184,-18.3313144924
 N,0,-0.9902536885,21.4542996136,-19.0425817423
 N,0,-0.0918089915,22.7461005821,-16.6819713421
 N,0,2.5699473587,22.653790944,-17.6559083934
 N,0,1.6509298885,21.4974230396,-20.0550510521
 C,0,-1.2328838712,20.815347377,-20.2156943719
 C,0,-2.6388137478,20.5014058666,-20.3450714904
 C,0,-3.2375466377,20.9612274501,-19.2143194751
 C,0,-2.1935182132,21.5768810211,-18.4233142955
 C,0,-1.4221396849,22.7233315046,-16.3926501443
 C,0,-1.6698326525,23.255460233,-15.0772748988
 C,0,-0.4542322125,23.656851532,-14.5908447296
 C,0,0.5137154489,23.3427301093,-15.6234023147
 C,0,2.8222342688,23.1878956274,-16.4304099762
 C,0,4.2409735499,23.3187571811,-16.2188981884
 C,0,4.8356478694,23.0192745725,-17.4143291099
 C,0,3.7627735774,22.6152869196,-18.3028785893
 C,0,2.9602157746,21.6278673068,-20.3965913282
 C,0,3.2004464628,21.0928546359,-21.7181035428
 C,0,1.9992057901,20.6472255848,-22.1742862706
 C,0,1.0426797359,20.9112506593,-21.1226877121
 C,0,-0.2857314324,20.5314848022,-21.1818423422
 H,0,-0.6198457903,20.026816834,-22.0751338562
 C,0,-2.4027275078,22.1543381966,-17.1874344836
 H,0,-3.4145067591,22.1664310689,-16.8127345256
 C,0,1.8777132671,23.486010262,-15.4665733876
 H,0,2.234610436,23.8984287423,-14.5357937977
 C,0,3.9573310289,22.1248680913,-19.5797605406
 H,0,4.9659204812,22.1125121643,-19.9601131458
 C,0,-4.6723292221,20.9082246353,-18.8166740961
 H,0,-5.2627808924,20.3894145566,-19.5677783391
 H,0,-5.0753074367,21.9143430636,-18.6982771353
 H,0,-4.7871208074,20.3844584758,-17.8674980518
 C,0,-3.2359533252,19.7933660136,-21.5121815547
 H,0,-2.7776455988,18.8126029953,-21.6426845418
 H,0,-3.0779948722,20.3644315404,-22.4273238513
 H,0,-4.3056625504,19.6562344566,-21.3755780293
 C,0,-3.0129611023,23.4103023184,-14.4546637555
 H,0,-3.3344544211,22.4767857914,-13.9904440389
 H,0,-3.7552341402,23.6886339556,-15.2013367301
 H,0,-2.9826943722,24.1820954457,-13.6881817491
 C,0,-0.1332477538,24.2963337496,-13.334286046
 H,0,0.6866270928,25.0047263417,-13.3681129795
 C,0,-0.7494599802,24.0777407857,-12.1773688059
 H,0,-1.5357806881,23.3505327292,-12.0756774519
 H,0,-0.4651710961,24.6025799093,-11.2804943335
 C,0,4.8797382578,23.8000946306,-14.9632701667
 H,0,4.5311617241,23.2187565551,-14.1099113159
 H,0,4.6334477163,24.8472218043,-14.7823781673
 H,0,5.9614793542,23.7135074636,-15.0282631349
 C,0,6.2503025767,23.0811782072,-17.7225977833
 H,0,6.9103767371,22.7356616201,-16.934102203
 C,0,6.7777261722,23.5572476621,-18.8442095395
 H,0,6.1693025859,23.9644862394,-19.6339806776
 H,0,7.8433018727,23.5814943738,-19.0009613498
 C,0,4.5314481203,21.0775570037,-22.3868919928
 H,0,5.2437947765,20.487344174,-21.8098510464
 H,0,4.927095346,22.0893246767,-22.4757595739
 H,0,4.4590317707,20.6485553545,-23.3832338423
 C,0,1.6612106496,20.0070116265,-23.4767070524
 H,0,1.2869093856,18.9942625972,-23.3227875626
 H,0,2.5368042534,19.9529686438,-24.1187151467
 H,0,0.8897843859,20.5768335886,-23.9947105876
 O,0,0.434,24.061,-19.167
 H,0,0.139,24.619,-18.4470000001
 H,0,0.5549999999,24.312,-20.011
 C,0,0.4824655551,18.6089005474,-18.3301802967
 H,0,0.6722322741,18.8054497933,-19.37959053
 H,0,-0.5855732747,18.6238801252,-18.1406374876
 H,0,0.9045783745,17.6574529528,-18.0218682284
 S,0,1.2110626083,19.9433036957,-17.3145528776
 H,0,2.4578744278,19.7693620033,-17.7678953514
 Recover connectivity data from disk.
 Stoichiometry    C31H34FeN4OS(1+,2)
 Framework group  C1[X(C31H34FeN4OS)]
 Deg. of freedom   210
 Full point group                 C1      NOp   1
 Largest Abelian subgroup         C1      NOp   1
 Largest concise Abelian subgroup C1      NOp   1
                         Standard orientation:                         
 ---------------------------------------------------------------------
 Center     Atomic      Atomic             Coordinates (Angstroms)
 Number     Number       Type             X           Y           Z
 ---------------------------------------------------------------------
      1         26           0       -0.019176    0.129181   -0.107229
      2          7           0        0.481483    2.050013   -0.188573
      3          7           0        1.905472   -0.403339   -0.230479
      4          7           0       -0.548295   -1.818858   -0.098753
      5          7           0       -1.958363    0.618274   -0.197536
      6          6           0       -0.357301    3.116324   -0.136188
      7          6           0        0.389807    4.354753   -0.143837
      8          6           0        1.703242    4.007105   -0.194299
      9          6           0        1.739091    2.561212   -0.247412
     10          6           0        2.972510    0.438233   -0.315287
     11          6           0        4.209706   -0.299128   -0.296074
     12          6           0        3.865855   -1.624007   -0.252780
     13          6           0        2.416746   -1.661033   -0.230772
     14          6           0        0.300290   -2.880216   -0.034049
     15          6           0       -0.433926   -4.101899    0.173555
     16          6           0       -1.757965   -3.778191    0.053070
     17          6           0       -1.801539   -2.339806   -0.128409
     18          6           0       -3.027116   -0.220962   -0.234198
     19          6           0       -4.264599    0.526409   -0.254589
     20          6           0       -3.917294    1.841293   -0.243420
     21          6           0       -2.472291    1.878876   -0.210789
     22          6           0       -1.737865    3.046926   -0.117646
     23          1           0       -2.283892    3.977078   -0.086603
     24          6           0        2.902826    1.820881   -0.294906
     25          1           0        3.833935    2.365415   -0.322516
     26          6           0        1.680497   -2.817043   -0.065876
     27          1           0        2.219609   -3.748790    0.004983
     28          6           0       -2.967300   -1.600001   -0.178214
     29          1           0       -3.900545   -2.138984   -0.153216
     30          6           0        2.910720    4.879214   -0.225232
     31          1           0        2.631549    5.928289   -0.166421
     32          1           0        3.472300    4.724799   -1.146898
     33          1           0        3.568753    4.651355    0.613527
     34          6           0       -0.230146    5.708425   -0.086615
     35          1           0       -0.830958    5.818418    0.816657
     36          1           0       -0.881070    5.867312   -0.946618
     37          1           0        0.532173    6.483416   -0.087526
     38          6           0        5.567044    0.301845   -0.405987
     39          1           0        5.916083    0.650417    0.567143
     40          1           0        5.559086    1.152561   -1.085823
     41          1           0        6.273479   -0.436716   -0.779553
     42          6           0        4.715242   -2.794229   -0.258336
     43          1           0        4.311420   -3.660583   -0.769725
     44          6           0        5.914609   -2.880170    0.307429
     45          1           0        6.342454   -2.068411    0.869095
     46          1           0        6.499766   -3.783005    0.251387
     47          6           0        0.175676   -5.446836    0.362866
     48          1           0        0.902359   -5.426265    1.174771
     49          1           0        0.690498   -5.767755   -0.543680
     50          1           0       -0.589618   -6.183028    0.595744
     51          6           0       -2.885053   -4.687384    0.109200
     52          1           0       -2.807635   -5.473631    0.852588
     53          6           0       -3.946307   -4.654354   -0.687971
     54          1           0       -4.044896   -3.929776   -1.478557
     55          1           0       -4.744766   -5.371559   -0.594752
     56          6           0       -5.618200   -0.094505   -0.290761
     57          1           0       -5.781627   -0.709804    0.594374
     58          1           0       -5.723496   -0.732760   -1.168059
     59          1           0       -6.392767    0.667601   -0.325756
     60          6           0       -4.789442    3.049405   -0.258829
     61          1           0       -4.650492    3.636770    0.649548
     62          1           0       -5.837305    2.767886   -0.325835
     63          1           0       -4.548917    3.684466   -1.111454
     64          8           0        0.025058    0.047397   -2.338008
     65          1           0        0.862139   -0.340938   -2.593509
     66          1           0       -0.618043    0.319141   -2.888058
     67          6           0       -0.554736    1.669202    2.902373
     68          1           0       -1.404383    2.022597    2.328687
     69          1           0        0.277697    2.355201    2.786973
     70          1           0       -0.804405    1.556086    3.952782
     71         16           0        0.002706    0.057330    2.243499
     72          1           0       -1.172427   -0.556626    2.423599
 ---------------------------------------------------------------------
 Rotational constants (GHZ):           0.1115907           0.1060533           0.0600936
 General basis read from cards:  (5D, 7F)
 Warning:  center  64 has no basis functions!
 There are   648 symmetry adapted cartesian basis functions of A   symmetry.
 There are   609 symmetry adapted basis functions of A   symmetry.
   609 basis functions,  1254 primitive gaussians,   648 cartesian basis functions
   149 alpha electrons      148 beta electrons
       nuclear repulsion energy      5418.5757545790 Hartrees.



 Warning!  O  atom   64 has  8 valence electrons but only   0 basis functions.
 This is less than a minimal basis set!



 NAtoms=   72 NActive=   72 NUniq=   72 SFac= 1.00D+00 NAtFMM=   60 NAOKFM=T Big=T
 Integral buffers will be    131072 words long.
 Raffenetti 2 integral format.
 Two-electron integral symmetry is turned on.
 R6APFD:  NTU= -4 IXU= 1 FactS= 1.050
 Nuclear repulsion after empirical dispersion term =     5418.4238132113 Hartrees.
 One-electron integrals computed using PRISM.
 NBasis=   609 RedAO= T EigKep=  2.67D-04  NBF=   609
 NBsUse=   609 1.00D-06 EigRej= -1.00D+00 NBFU=   609
 ExpMin= 4.20D-02 ExpMax= 3.01D+05 ExpMxC= 3.30D+03 IAcc=3 IRadAn=         5 AccDes= 0.00D+00
 Harris functional with IExCor= 3731 and IRadAn=       5 diagonalized for initial guess.
 HarFok:  IExCor= 3731 AccDes= 0.00D+00 IRadAn=         5 IDoV= 1 UseB2=F ITyADJ=14
 ICtDFT=  3500011 ScaDFX=  1.000000  1.000000  1.000000  1.000000
 FoFCou: FMM=F IPFlag=           0 FMFlag=      100000 FMFlg1=        2001
         NFxFlg=           0 DoJE=T BraDBF=F KetDBF=T FulRan=T
         wScrn=  0.000000 ICntrl=       500 IOpCl=  0 I1Cent=   200000004 NGrid=           0
         NMat0=    1 NMatS0=      1 NMatT0=    0 NMatD0=    1 NMtDS0=    0 NMtDT0=    0
 Petite list used in FoFCou.
 Initial guess <Sx>= 0.0000 <Sy>= 0.0000 <Sz>= 0.5000 <S**2>= 0.7500 S= 0.5000
 Requested convergence on RMS density matrix=1.00D-08 within 999 cycles.
 Requested convergence on MAX density matrix=1.00D-06.
 Requested convergence on             energy=1.00D-06.
 No special actions if energy rises.
 EnCoef did   100 forward-backward iterations
 EnCoef did   100 forward-backward iterations
 EnCoef did     5 forward-backward iterations
 EnCoef did     4 forward-backward iterations
 EnCoef did     8 forward-backward iterations
 EnCoef did     6 forward-backward iterations
 Restarting incremental Fock formation.
 SCF Done:  E(UAPFD) =  -3095.21315072     A.U. after   39 cycles
            NFock= 39  Conv=0.48D-08     -V/T= 2.0055
 <Sx>= 0.0000 <Sy>= 0.0000 <Sz>= 0.5000 <S**2>= 0.7817 S= 0.5157
 <L.S>=  0.00000000000    
 Annihilation of the first spin contaminant:
 S**2 before annihilation     0.7817,   after     0.7509

 **********************************************************************

            Population analysis using the SCF Density.

 **********************************************************************

 Orbital symmetries:
 Alpha Orbitals:
       Occupied  (A) (A) (A) (A) (A) (A) (A) (A) (A) (A) (A) (A)
                 (A) (A) (A) (A) (A) (A) (A) (A) (A) (A) (A) (A)
                 (A) (A) (A) (A) (A) (A) (A) (A) (A) (A) (A) (A)
                 (A) (A) (A) (A) (A) (A) (A) (A) (A) (A) (A) (A)
                 (A) (A) (A) (A) (A) (A) (A) (A) (A) (A) (A) (A)
                 (A) (A) (A) (A) (A) (A) (A) (A) (A) (A) (A) (A)
                 (A) (A) (A) (A) (A) (A) (A) (A) (A) (A) (A) (A)
                 (A) (A) (A) (A) (A) (A) (A) (A) (A) (A) (A) (A)
                 (A) (A) (A) (A) (A) (A) (A) (A) (A) (A) (A) (A)
                 (A) (A) (A) (A) (A) (A) (A) (A) (A) (A) (A) (A)
                 (A) (A) (A) (A) (A) (A) (A) (A) (A) (A) (A) (A)
                 (A) (A) (A) (A) (A) (A) (A) (A) (A) (A) (A) (A)
                 (A) (A) (A) (A) (A)
       Virtual   (A) (A) (A) (A) (A) (A) (A) (A) (A) (A) (A) (A)
                 (A) (A) (A) (A) (A) (A) (A) (A) (A) (A) (A) (A)
                 (A) (A) (A) (A) (A) (A) (A) (A) (A) (A) (A) (A)
                 (A) (A) (A) (A) (A) (A) (A) (A) (A) (A) (A) (A)
                 (A) (A) (A) (A) (A) (A) (A) (A) (A) (A) (A) (A)
                 (A) (A) (A) (A) (A) (A) (A) (A) (A) (A) (A) (A)
                 (A) (A) (A) (A) (A) (A) (A) (A) (A) (A) (A) (A)
                 (A) (A) (A) (A) (A) (A) (A) (A) (A) (A) (A) (A)
                 (A) (A) (A) (A) (A) (A) (A) (A) (A) (A) (A) (A)
                 (A) (A) (A) (A) (A) (A) (A) (A) (A) (A) (A) (A)
                 (A) (A) (A) (A) (A) (A) (A) (A) (A) (A) (A) (A)
                 (A) (A) (A) (A) (A) (A) (A) (A) (A) (A) (A) (A)
                 (A) (A) (A) (A) (A) (A) (A) (A) (A) (A) (A) (A)
                 (A) (A) (A) (A) (A) (A) (A) (A) (A) (A) (A) (A)
                 (A) (A) (A) (A) (A) (A) (A) (A) (A) (A) (A) (A)
                 (A) (A) (A) (A) (A) (A) (A) (A) (A) (A) (A) (A)
                 (A) (A) (A) (A) (A) (A) (A) (A) (A) (A) (A) (A)
                 (A) (A) (A) (A) (A) (A) (A) (A) (A) (A) (A) (A)
                 (A) (A) (A) (A) (A) (A) (A) (A) (A) (A) (A) (A)
                 (A) (A) (A) (A) (A) (A) (A) (A) (A) (A) (A) (A)
                 (A) (A) (A) (A) (A) (A) (A) (A) (A) (A) (A) (A)
                 (A) (A) (A) (A) (A) (A) (A) (A) (A) (A) (A) (A)
                 (A) (A) (A) (A) (A) (A) (A) (A) (A) (A) (A) (A)
                 (A) (A) (A) (A) (A) (A) (A) (A) (A) (A) (A) (A)
                 (A) (A) (A) (A) (A) (A) (A) (A) (A) (A) (A) (A)
                 (A) (A) (A) (A) (A) (A) (A) (A) (A) (A) (A) (A)
                 (A) (A) (A) (A) (A) (A) (A) (A) (A) (A) (A) (A)
                 (A) (A) (A) (A) (A) (A) (A) (A) (A) (A) (A) (A)
                 (A) (A) (A) (A) (A) (A) (A) (A) (A) (A) (A) (A)
                 (A) (A) (A) (A) (A) (A) (A) (A) (A) (A) (A) (A)
                 (A) (A) (A) (A) (A) (A) (A) (A) (A) (A) (A) (A)
                 (A) (A) (A) (A) (A) (A) (A) (A) (A) (A) (A) (A)
                 (A) (A) (A) (A) (A) (A) (A) (A) (A) (A) (A) (A)
                 (A) (A) (A) (A) (A) (A) (A) (A) (A) (A) (A) (A)
                 (A) (A) (A) (A) (A) (A) (A) (A) (A) (A) (A) (A)
                 (A) (A) (A) (A) (A) (A) (A) (A) (A) (A) (A) (A)
                 (A) (A) (A) (A) (A) (A) (A) (A) (A) (A) (A) (A)
                 (A) (A) (A) (A) (A) (A) (A) (A) (A) (A) (A) (A)
                 (A) (A) (A) (A)
 Beta  Orbitals:
       Occupied  (A) (A) (A) (A) (A) (A) (A) (A) (A) (A) (A) (A)
                 (A) (A) (A) (A) (A) (A) (A) (A) (A) (A) (A) (A)
                 (A) (A) (A) (A) (A) (A) (A) (A) (A) (A) (A) (A)
                 (A) (A) (A) (A) (A) (A) (A) (A) (A) (A) (A) (A)
                 (A) (A) (A) (A) (A) (A) (A) (A) (A) (A) (A) (A)
                 (A) (A) (A) (A) (A) (A) (A) (A) (A) (A) (A) (A)
                 (A) (A) (A) (A) (A) (A) (A) (A) (A) (A) (A) (A)
                 (A) (A) (A) (A) (A) (A) (A) (A) (A) (A) (A) (A)
                 (A) (A) (A) (A) (A) (A) (A) (A) (A) (A) (A) (A)
                 (A) (A) (A) (A) (A) (A) (A) (A) (A) (A) (A) (A)
                 (A) (A) (A) (A) (A) (A) (A) (A) (A) (A) (A) (A)
                 (A) (A) (A) (A) (A) (A) (A) (A) (A) (A) (A) (A)
                 (A) (A) (A) (A)
       Virtual   (A) (A) (A) (A) (A) (A) (A) (A) (A) (A) (A) (A)
                 (A) (A) (A) (A) (A) (A) (A) (A) (A) (A) (A) (A)
                 (A) (A) (A) (A) (A) (A) (A) (A) (A) (A) (A) (A)
                 (A) (A) (A) (A) (A) (A) (A) (A) (A) (A) (A) (A)
                 (A) (A) (A) (A) (A) (A) (A) (A) (A) (A) (A) (A)
                 (A) (A) (A) (A) (A) (A) (A) (A) (A) (A) (A) (A)
                 (A) (A) (A) (A) (A) (A) (A) (A) (A) (A) (A) (A)
                 (A) (A) (A) (A) (A) (A) (A) (A) (A) (A) (A) (A)
                 (A) (A) (A) (A) (A) (A) (A) (A) (A) (A) (A) (A)
                 (A) (A) (A) (A) (A) (A) (A) (A) (A) (A) (A) (A)
                 (A) (A) (A) (A) (A) (A) (A) (A) (A) (A) (A) (A)
                 (A) (A) (A) (A) (A) (A) (A) (A) (A) (A) (A) (A)
                 (A) (A) (A) (A) (A) (A) (A) (A) (A) (A) (A) (A)
                 (A) (A) (A) (A) (A) (A) (A) (A) (A) (A) (A) (A)
                 (A) (A) (A) (A) (A) (A) (A) (A) (A) (A) (A) (A)
                 (A) (A) (A) (A) (A) (A) (A) (A) (A) (A) (A) (A)
                 (A) (A) (A) (A) (A) (A) (A) (A) (A) (A) (A) (A)
                 (A) (A) (A) (A) (A) (A) (A) (A) (A) (A) (A) (A)
                 (A) (A) (A) (A) (A) (A) (A) (A) (A) (A) (A) (A)
                 (A) (A) (A) (A) (A) (A) (A) (A) (A) (A) (A) (A)
                 (A) (A) (A) (A) (A) (A) (A) (A) (A) (A) (A) (A)
                 (A) (A) (A) (A) (A) (A) (A) (A) (A) (A) (A) (A)
                 (A) (A) (A) (A) (A) (A) (A) (A) (A) (A) (A) (A)
                 (A) (A) (A) (A) (A) (A) (A) (A) (A) (A) (A) (A)
                 (A) (A) (A) (A) (A) (A) (A) (A) (A) (A) (A) (A)
                 (A) (A) (A) (A) (A) (A) (A) (A) (A) (A) (A) (A)
                 (A) (A) (A) (A) (A) (A) (A) (A) (A) (A) (A) (A)
                 (A) (A) (A) (A) (A) (A) (A) (A) (A) (A) (A) (A)
                 (A) (A) (A) (A) (A) (A) (A) (A) (A) (A) (A) (A)
                 (A) (A) (A) (A) (A) (A) (A) (A) (A) (A) (A) (A)
                 (A) (A) (A) (A) (A) (A) (A) (A) (A) (A) (A) (A)
                 (A) (A) (A) (A) (A) (A) (A) (A) (A) (A) (A) (A)
                 (A) (A) (A) (A) (A) (A) (A) (A) (A) (A) (A) (A)
                 (A) (A) (A) (A) (A) (A) (A) (A) (A) (A) (A) (A)
                 (A) (A) (A) (A) (A) (A) (A) (A) (A) (A) (A) (A)
                 (A) (A) (A) (A) (A) (A) (A) (A) (A) (A) (A) (A)
                 (A) (A) (A) (A) (A) (A) (A) (A) (A) (A) (A) (A)
                 (A) (A) (A) (A) (A) (A) (A) (A) (A) (A) (A) (A)
                 (A) (A) (A) (A) (A)
 The electronic state is 2-A.
 Alpha  occ. eigenvalues -- -256.28807 -89.03375 -30.14341 -25.98374 -25.98160
 Alpha  occ. eigenvalues --  -25.97938 -14.46333 -14.46127 -14.46012 -14.45621
 Alpha  occ. eigenvalues --  -10.31225 -10.31177 -10.31061 -10.30983 -10.30919
 Alpha  occ. eigenvalues --  -10.30721 -10.30632 -10.30323 -10.29468 -10.28718
 Alpha  occ. eigenvalues --  -10.28329 -10.28304 -10.28235 -10.28179 -10.28047
 Alpha  occ. eigenvalues --  -10.27927 -10.27889 -10.27798 -10.27536 -10.27482
 Alpha  occ. eigenvalues --  -10.27382 -10.27257 -10.26935 -10.26914 -10.26859
 Alpha  occ. eigenvalues --  -10.26734 -10.26711 -10.26697 -10.26608 -10.26562
 Alpha  occ. eigenvalues --  -10.25998  -8.06542  -6.01144  -6.00839  -6.00274
 Alpha  occ. eigenvalues --   -3.52489  -2.34557  -2.29539  -2.28214  -2.27894
 Alpha  occ. eigenvalues --   -1.54150  -1.07591  -1.06514  -1.06151  -1.05257
 Alpha  occ. eigenvalues --   -0.96781  -0.91526  -0.90248  -0.89991  -0.89523
 Alpha  occ. eigenvalues --   -0.89175  -0.88845  -0.88575  -0.87803  -0.85124
 Alpha  occ. eigenvalues --   -0.83901  -0.83079  -0.82567  -0.81351  -0.79315
 Alpha  occ. eigenvalues --   -0.78322  -0.76828  -0.76718  -0.76397  -0.73761
 Alpha  occ. eigenvalues --   -0.73134  -0.73092  -0.69314  -0.68287  -0.66302
 Alpha  occ. eigenvalues --   -0.66189  -0.63220  -0.63171  -0.61951  -0.60743
 Alpha  occ. eigenvalues --   -0.59917  -0.59753  -0.59275  -0.57133  -0.56477
 Alpha  occ. eigenvalues --   -0.56083  -0.54747  -0.54337  -0.54226  -0.53842
 Alpha  occ. eigenvalues --   -0.53329  -0.52633  -0.52412  -0.51790  -0.51707
 Alpha  occ. eigenvalues --   -0.51491  -0.51120  -0.50728  -0.50368  -0.49515
 Alpha  occ. eigenvalues --   -0.49419  -0.49210  -0.49126  -0.49013  -0.48913
 Alpha  occ. eigenvalues --   -0.48551  -0.48443  -0.48276  -0.47832  -0.47546
 Alpha  occ. eigenvalues --   -0.47303  -0.46969  -0.46876  -0.46443  -0.45810
 Alpha  occ. eigenvalues --   -0.45760  -0.45048  -0.44858  -0.44351  -0.44067
 Alpha  occ. eigenvalues --   -0.43353  -0.43030  -0.42460  -0.41933  -0.41567
 Alpha  occ. eigenvalues --   -0.41331  -0.40942  -0.40218  -0.38174  -0.37824
 Alpha  occ. eigenvalues --   -0.36907  -0.36796  -0.36116  -0.35022  -0.34052
 Alpha  occ. eigenvalues --   -0.32139  -0.31536  -0.31130  -0.29979  -0.29614
 Alpha  occ. eigenvalues --   -0.29174  -0.27765  -0.27623  -0.19440
 Alpha virt. eigenvalues --   -0.15283  -0.10359  -0.09526  -0.08018  -0.06764
 Alpha virt. eigenvalues --   -0.06561  -0.06100  -0.05719  -0.03800  -0.03665
 Alpha virt. eigenvalues --   -0.00617   0.00191   0.01849   0.01974   0.02730
 Alpha virt. eigenvalues --    0.03211   0.03501   0.04122   0.04514   0.05329
 Alpha virt. eigenvalues --    0.05512   0.05992   0.06146   0.06367   0.07034
 Alpha virt. eigenvalues --    0.07253   0.07755   0.07852   0.08385   0.08548
 Alpha virt. eigenvalues --    0.08884   0.09069   0.09490   0.09761   0.09872
 Alpha virt. eigenvalues --    0.10207   0.10558   0.10961   0.11340   0.11575
 Alpha virt. eigenvalues --    0.11622   0.12070   0.12606   0.13145   0.13452
 Alpha virt. eigenvalues --    0.13734   0.14190   0.14796   0.15347   0.15548
 Alpha virt. eigenvalues --    0.16237   0.16587   0.16870   0.17607   0.18051
 Alpha virt. eigenvalues --    0.18525   0.19148   0.19327   0.19631   0.20095
 Alpha virt. eigenvalues --    0.21132   0.21671   0.22259   0.22711   0.23483
 Alpha virt. eigenvalues --    0.25004   0.25888   0.26229   0.26447   0.27086
 Alpha virt. eigenvalues --    0.27691   0.28022   0.28688   0.29156   0.29886
 Alpha virt. eigenvalues --    0.30638   0.31133   0.33084   0.34301   0.34616
 Alpha virt. eigenvalues --    0.35293   0.35989   0.36706   0.37024   0.37548
 Alpha virt. eigenvalues --    0.38264   0.39552   0.39742   0.40079   0.40323
 Alpha virt. eigenvalues --    0.41508   0.41769   0.42554   0.43221   0.43837
 Alpha virt. eigenvalues --    0.44313   0.44677   0.44751   0.44864   0.45405
 Alpha virt. eigenvalues --    0.45748   0.46569   0.47108   0.47553   0.47916
 Alpha virt. eigenvalues --    0.48539   0.48814   0.49374   0.50213   0.50577
 Alpha virt. eigenvalues --    0.51305   0.51796   0.52003   0.52271   0.53084
 Alpha virt. eigenvalues --    0.53712   0.53822   0.54127   0.54448   0.54857
 Alpha virt. eigenvalues --    0.55109   0.55795   0.56212   0.57051   0.57211
 Alpha virt. eigenvalues --    0.57230   0.57582   0.57777   0.58611   0.58912
 Alpha virt. eigenvalues --    0.59312   0.59512   0.59858   0.60484   0.61258
 Alpha virt. eigenvalues --    0.61858   0.62270   0.62475   0.63628   0.63825
 Alpha virt. eigenvalues --    0.64029   0.64790   0.65137   0.65499   0.66523
 Alpha virt. eigenvalues --    0.67090   0.67535   0.68042   0.68576   0.69244
 Alpha virt. eigenvalues --    0.69498   0.69563   0.69969   0.70248   0.70709
 Alpha virt. eigenvalues --    0.70887   0.71692   0.72413   0.72526   0.73014
 Alpha virt. eigenvalues --    0.73027   0.73607   0.74165   0.74511   0.74856
 Alpha virt. eigenvalues --    0.75462   0.76127   0.77224   0.77791   0.78846
 Alpha virt. eigenvalues --    0.79476   0.79625   0.79852   0.80260   0.81080
 Alpha virt. eigenvalues --    0.81465   0.81801   0.82148   0.82715   0.82834
 Alpha virt. eigenvalues --    0.83203   0.83598   0.83686   0.83986   0.84635
 Alpha virt. eigenvalues --    0.85076   0.85406   0.85757   0.86187   0.86427
 Alpha virt. eigenvalues --    0.86788   0.86994   0.87663   0.87892   0.88550
 Alpha virt. eigenvalues --    0.88731   0.89558   0.90314   0.90831   0.91136
 Alpha virt. eigenvalues --    0.91383   0.91958   0.92220   0.92373   0.92582
 Alpha virt. eigenvalues --    0.93041   0.93150   0.93799   0.94336   0.95435
 Alpha virt. eigenvalues --    0.95687   0.96357   0.96744   0.97920   0.98456
 Alpha virt. eigenvalues --    0.99263   0.99851   1.00890   1.01987   1.03398
 Alpha virt. eigenvalues --    1.04826   1.06303   1.06709   1.06888   1.08202
 Alpha virt. eigenvalues --    1.08313   1.09014   1.09180   1.09902   1.10527
 Alpha virt. eigenvalues --    1.11129   1.11386   1.11756   1.12376   1.12529
 Alpha virt. eigenvalues --    1.13012   1.13968   1.14390   1.15471   1.16761
 Alpha virt. eigenvalues --    1.17083   1.17984   1.18176   1.18318   1.19664
 Alpha virt. eigenvalues --    1.20987   1.21398   1.22242   1.22972   1.23850
 Alpha virt. eigenvalues --    1.25019   1.26070   1.26730   1.27776   1.28034
 Alpha virt. eigenvalues --    1.28959   1.29117   1.29655   1.29937   1.30158
 Alpha virt. eigenvalues --    1.30963   1.32302   1.33010   1.34195   1.35539
 Alpha virt. eigenvalues --    1.35961   1.36437   1.38236   1.38862   1.39690
 Alpha virt. eigenvalues --    1.40388   1.41643   1.42159   1.42862   1.45154
 Alpha virt. eigenvalues --    1.45658   1.45852   1.46456   1.46922   1.48334
 Alpha virt. eigenvalues --    1.49297   1.49993   1.51570   1.52097   1.52619
 Alpha virt. eigenvalues --    1.53959   1.54586   1.55923   1.57541   1.58388
 Alpha virt. eigenvalues --    1.60373   1.61207   1.62489   1.63383   1.63875
 Alpha virt. eigenvalues --    1.65198   1.66216   1.66985   1.67387   1.68471
 Alpha virt. eigenvalues --    1.69241   1.69884   1.70595   1.71258   1.72233
 Alpha virt. eigenvalues --    1.72596   1.72819   1.73701   1.74842   1.75580
 Alpha virt. eigenvalues --    1.75893   1.76882   1.77156   1.78480   1.79013
 Alpha virt. eigenvalues --    1.79387   1.79697   1.81006   1.82015   1.83186
 Alpha virt. eigenvalues --    1.83606   1.84274   1.84520   1.85641   1.86040
 Alpha virt. eigenvalues --    1.86485   1.87307   1.87817   1.88549   1.90342
 Alpha virt. eigenvalues --    1.91906   1.92007   1.92274   1.92929   1.93681
 Alpha virt. eigenvalues --    1.93901   1.95140   1.95573   1.96441   1.96648
 Alpha virt. eigenvalues --    1.97093   1.98212   1.99402   2.00273   2.01005
 Alpha virt. eigenvalues --    2.01874   2.02984   2.04374   2.05867   2.06856
 Alpha virt. eigenvalues --    2.07430   2.08338   2.08924   2.09998   2.10565
 Alpha virt. eigenvalues --    2.11337   2.12150   2.13259   2.14200   2.14645
 Alpha virt. eigenvalues --    2.14833   2.16012   2.16772   2.17390   2.17935
 Alpha virt. eigenvalues --    2.18411   2.18787   2.19414   2.19611   2.19831
 Alpha virt. eigenvalues --    2.20432   2.20692   2.21880   2.22136   2.22562
 Alpha virt. eigenvalues --    2.22941   2.23248   2.24267   2.24903   2.25731
 Alpha virt. eigenvalues --    2.26402   2.27125   2.27282   2.27760   2.28982
 Alpha virt. eigenvalues --    2.29990   2.30272   2.31574   2.32589   2.33039
 Alpha virt. eigenvalues --    2.34333   2.34608   2.34879   2.35915   2.36450
 Alpha virt. eigenvalues --    2.37177   2.38707   2.40129   2.41140   2.41998
 Alpha virt. eigenvalues --    2.43772   2.44137   2.44899   2.45282   2.45444
 Alpha virt. eigenvalues --    2.46760   2.47830   2.47949   2.48592   2.50162
 Alpha virt. eigenvalues --    2.51543   2.52621   2.54316   2.56129   2.58770
 Alpha virt. eigenvalues --    2.59482   2.59987   2.60696   2.61138   2.63367
 Alpha virt. eigenvalues --    2.63625   2.68254   2.69911   2.70227   2.70791
 Alpha virt. eigenvalues --    2.72420   2.74460   2.78453   2.78823   2.80149
 Alpha virt. eigenvalues --    2.82350   2.83073   2.84635   2.87348   2.88615
 Alpha virt. eigenvalues --    2.88703   2.89706   2.90668   2.91441   2.92073
 Alpha virt. eigenvalues --    2.96254   2.98309   3.05232   3.05584   3.10631
 Alpha virt. eigenvalues --    3.15086   3.17564   3.20374   3.22266   3.28355
 Alpha virt. eigenvalues --    3.31034   3.32813   3.35472   3.37970   3.38423
 Alpha virt. eigenvalues --    3.44088   3.44546   3.82550   3.94638   4.18015
  Beta  occ. eigenvalues -- -256.28805 -89.03376 -30.14208 -25.98220 -25.98082
  Beta  occ. eigenvalues --  -25.97835 -14.46274 -14.46051 -14.45935 -14.45554
  Beta  occ. eigenvalues --  -10.31322 -10.31262 -10.31153 -10.31061 -10.30714
  Beta  occ. eigenvalues --  -10.30532 -10.30431 -10.30121 -10.29469 -10.28825
  Beta  occ. eigenvalues --  -10.28402 -10.28345 -10.28289 -10.28258 -10.28124
  Beta  occ. eigenvalues --  -10.27999 -10.27744 -10.27605 -10.27532 -10.27386
  Beta  occ. eigenvalues --  -10.27252 -10.27213 -10.26947 -10.26933 -10.26854
  Beta  occ. eigenvalues --  -10.26729 -10.26710 -10.26578 -10.26368 -10.26215
  Beta  occ. eigenvalues --  -10.25912  -8.06543  -6.01144  -6.00840  -6.00276
  Beta  occ. eigenvalues --   -3.52190  -2.34523  -2.29137  -2.28002  -2.27601
  Beta  occ. eigenvalues --   -1.54141  -1.07416  -1.06335  -1.05970  -1.05080
  Beta  occ. eigenvalues --   -0.96790  -0.91271  -0.90161  -0.89876  -0.89427
  Beta  occ. eigenvalues --   -0.89054  -0.88746  -0.88174  -0.87798  -0.85011
  Beta  occ. eigenvalues --   -0.83791  -0.82767  -0.82509  -0.81244  -0.79221
  Beta  occ. eigenvalues --   -0.78232  -0.76768  -0.76586  -0.76342  -0.73762
  Beta  occ. eigenvalues --   -0.73166  -0.72614  -0.69248  -0.68190  -0.66118
  Beta  occ. eigenvalues --   -0.66040  -0.63093  -0.63076  -0.61851  -0.60689
  Beta  occ. eigenvalues --   -0.59830  -0.59651  -0.59153  -0.57057  -0.56423
  Beta  occ. eigenvalues --   -0.55931  -0.54530  -0.54212  -0.53980  -0.53546
  Beta  occ. eigenvalues --   -0.53186  -0.52453  -0.52275  -0.51679  -0.51590
  Beta  occ. eigenvalues --   -0.51384  -0.51081  -0.50615  -0.50306  -0.49455
  Beta  occ. eigenvalues --   -0.49358  -0.49099  -0.49049  -0.48910  -0.48839
  Beta  occ. eigenvalues --   -0.48423  -0.48331  -0.48219  -0.47794  -0.47424
  Beta  occ. eigenvalues --   -0.47171  -0.46927  -0.46677  -0.46391  -0.45747
  Beta  occ. eigenvalues --   -0.45686  -0.44986  -0.44812  -0.44307  -0.43992
  Beta  occ. eigenvalues --   -0.43287  -0.42969  -0.42394  -0.41850  -0.41355
  Beta  occ. eigenvalues --   -0.40934  -0.40533  -0.40127  -0.37858  -0.37394
  Beta  occ. eigenvalues --   -0.36693  -0.36273  -0.35466  -0.34489  -0.33739
  Beta  occ. eigenvalues --   -0.31768  -0.31193  -0.30980  -0.29487  -0.29181
  Beta  occ. eigenvalues --   -0.28674  -0.26699  -0.26625
  Beta virt. eigenvalues --   -0.15725  -0.14289  -0.09382  -0.09248  -0.07907
  Beta virt. eigenvalues --   -0.06648  -0.06356  -0.05921  -0.05154  -0.03783
  Beta virt. eigenvalues --   -0.02994  -0.00131   0.00685   0.01985   0.02284
  Beta virt. eigenvalues --    0.02764   0.03219   0.03636   0.04218   0.04558
  Beta virt. eigenvalues --    0.05605   0.05720   0.06406   0.06476   0.06908
  Beta virt. eigenvalues --    0.07310   0.07460   0.07781   0.07936   0.08475
  Beta virt. eigenvalues --    0.08634   0.09004   0.09141   0.09557   0.09819
  Beta virt. eigenvalues --    0.09936   0.10288   0.10656   0.10999   0.11450
  Beta virt. eigenvalues --    0.11641   0.11732   0.12200   0.12705   0.13246
  Beta virt. eigenvalues --    0.13504   0.13805   0.14281   0.14845   0.15400
  Beta virt. eigenvalues --    0.15617   0.16293   0.16663   0.16972   0.17726
  Beta virt. eigenvalues --    0.18130   0.18600   0.19237   0.19390   0.19709
  Beta virt. eigenvalues --    0.20182   0.21249   0.21805   0.22400   0.22782
  Beta virt. eigenvalues --    0.23661   0.25161   0.26010   0.26318   0.26513
  Beta virt. eigenvalues --    0.27220   0.27739   0.28123   0.28756   0.29287
  Beta virt. eigenvalues --    0.29943   0.30706   0.31266   0.33167   0.34457
  Beta virt. eigenvalues --    0.34737   0.35497   0.36116   0.36847   0.37140
  Beta virt. eigenvalues --    0.37663   0.38343   0.39646   0.39769   0.40269
  Beta virt. eigenvalues --    0.40468   0.41610   0.41823   0.42655   0.43323
  Beta virt. eigenvalues --    0.43931   0.44456   0.44771   0.44883   0.44934
  Beta virt. eigenvalues --    0.45481   0.45883   0.46700   0.47215   0.47730
  Beta virt. eigenvalues --    0.48043   0.48822   0.48992   0.49542   0.50382
  Beta virt. eigenvalues --    0.50744   0.51352   0.51899   0.52255   0.52501
  Beta virt. eigenvalues --    0.53434   0.53871   0.54021   0.54265   0.54650
  Beta virt. eigenvalues --    0.55044   0.55260   0.55997   0.56445   0.57202
  Beta virt. eigenvalues --    0.57319   0.57356   0.57798   0.58049   0.58719
  Beta virt. eigenvalues --    0.59039   0.59454   0.59637   0.60023   0.60842
  Beta virt. eigenvalues --    0.61319   0.61967   0.62353   0.62659   0.63735
  Beta virt. eigenvalues --    0.63940   0.64164   0.64885   0.65286   0.65700
  Beta virt. eigenvalues --    0.66594   0.67325   0.67776   0.68183   0.68936
  Beta virt. eigenvalues --    0.69365   0.69516   0.69635   0.70058   0.70336
  Beta virt. eigenvalues --    0.70804   0.70966   0.71818   0.72519   0.72620
  Beta virt. eigenvalues --    0.73101   0.73147   0.73720   0.74273   0.74673
  Beta virt. eigenvalues --    0.75204   0.75611   0.76271   0.77337   0.77930
  Beta virt. eigenvalues --    0.78939   0.79537   0.79703   0.79881   0.80337
  Beta virt. eigenvalues --    0.81105   0.81534   0.81835   0.82208   0.82786
  Beta virt. eigenvalues --    0.82946   0.83297   0.83658   0.83748   0.84066
  Beta virt. eigenvalues --    0.84662   0.85143   0.85497   0.85834   0.86279
  Beta virt. eigenvalues --    0.86512   0.86852   0.87065   0.87758   0.87953
  Beta virt. eigenvalues --    0.88611   0.88775   0.89625   0.90378   0.90920
  Beta virt. eigenvalues --    0.91231   0.91477   0.92005   0.92314   0.92456
  Beta virt. eigenvalues --    0.92631   0.93089   0.93242   0.93874   0.94416
  Beta virt. eigenvalues --    0.95628   0.95838   0.96448   0.96828   0.98026
  Beta virt. eigenvalues --    0.98548   0.99354   0.99946   1.01043   1.02129
  Beta virt. eigenvalues --    1.03424   1.04959   1.06403   1.06766   1.06981
  Beta virt. eigenvalues --    1.08256   1.08408   1.09109   1.09232   1.09991
  Beta virt. eigenvalues --    1.10611   1.11244   1.11564   1.11904   1.12467
  Beta virt. eigenvalues --    1.12598   1.13131   1.14055   1.14495   1.15561
  Beta virt. eigenvalues --    1.16884   1.17180   1.18175   1.18279   1.18445
  Beta virt. eigenvalues --    1.19883   1.21129   1.21567   1.22459   1.23180
  Beta virt. eigenvalues --    1.23956   1.25169   1.26160   1.26914   1.27914
  Beta virt. eigenvalues --    1.28218   1.29135   1.29346   1.29819   1.30126
  Beta virt. eigenvalues --    1.30425   1.31117   1.32475   1.33225   1.34391
  Beta virt. eigenvalues --    1.35680   1.36328   1.36652   1.38323   1.38997
  Beta virt. eigenvalues --    1.39880   1.40613   1.41757   1.42299   1.43025
  Beta virt. eigenvalues --    1.45338   1.45828   1.45980   1.46617   1.47072
  Beta virt. eigenvalues --    1.48453   1.49485   1.50103   1.51700   1.52299
  Beta virt. eigenvalues --    1.52725   1.54101   1.54706   1.56025   1.57741
  Beta virt. eigenvalues --    1.58478   1.60570   1.61340   1.62718   1.63422
  Beta virt. eigenvalues --    1.63958   1.65223   1.66406   1.67077   1.67508
  Beta virt. eigenvalues --    1.68616   1.69366   1.70026   1.70759   1.71406
  Beta virt. eigenvalues --    1.72329   1.72714   1.72948   1.73834   1.74927
  Beta virt. eigenvalues --    1.75675   1.76027   1.77048   1.77296   1.78588
  Beta virt. eigenvalues --    1.79142   1.79560   1.79765   1.81210   1.82112
  Beta virt. eigenvalues --    1.83524   1.83777   1.84446   1.84667   1.85864
  Beta virt. eigenvalues --    1.86184   1.86657   1.87449   1.87997   1.88777
  Beta virt. eigenvalues --    1.90565   1.91935   1.92108   1.92382   1.93100
  Beta virt. eigenvalues --    1.93828   1.94015   1.95284   1.95710   1.96650
  Beta virt. eigenvalues --    1.96799   1.97361   1.98358   1.99532   2.00403
  Beta virt. eigenvalues --    2.01185   2.02076   2.03136   2.04509   2.05981
  Beta virt. eigenvalues --    2.07015   2.07536   2.08475   2.09056   2.10010
  Beta virt. eigenvalues --    2.10712   2.11489   2.12258   2.13364   2.14378
  Beta virt. eigenvalues --    2.14769   2.14929   2.16266   2.16893   2.17529
  Beta virt. eigenvalues --    2.18052   2.18549   2.18913   2.19434   2.19728
  Beta virt. eigenvalues --    2.19944   2.20607   2.20852   2.22054   2.22320
  Beta virt. eigenvalues --    2.22647   2.23031   2.23409   2.24463   2.25112
  Beta virt. eigenvalues --    2.25898   2.26638   2.27261   2.27459   2.27925
  Beta virt. eigenvalues --    2.29066   2.30187   2.30417   2.31699   2.32715
  Beta virt. eigenvalues --    2.33206   2.34409   2.34763   2.34917   2.36118
  Beta virt. eigenvalues --    2.36703   2.37382   2.38718   2.40324   2.41363
  Beta virt. eigenvalues --    2.42179   2.44015   2.44322   2.45010   2.45398
  Beta virt. eigenvalues --    2.45619   2.46930   2.47924   2.48144   2.48811
  Beta virt. eigenvalues --    2.50291   2.51720   2.52844   2.54526   2.56370
  Beta virt. eigenvalues --    2.58996   2.59782   2.60322   2.61072   2.61476
  Beta virt. eigenvalues --    2.63620   2.63753   2.68410   2.69992   2.70374
  Beta virt. eigenvalues --    2.70881   2.72493   2.74552   2.78679   2.79006
  Beta virt. eigenvalues --    2.80224   2.82521   2.83292   2.84820   2.87417
  Beta virt. eigenvalues --    2.88783   2.88873   2.89847   2.90796   2.91600
  Beta virt. eigenvalues --    2.92166   2.96331   2.98368   3.05317   3.05662
  Beta virt. eigenvalues --    3.10692   3.15152   3.17642   3.20452   3.22330
  Beta virt. eigenvalues --    3.28456   3.31103   3.32889   3.35608   3.38040
  Beta virt. eigenvalues --    3.38511   3.44302   3.44923   3.82632   3.94692
  Beta virt. eigenvalues --    4.18099
          Condensed to atoms (all electrons):
          Atomic-Atomic Spin Densities.
 Mulliken charges and spin densities:
               1          2
     1  Fe  -3.376100   0.036190
     2  N   -0.361778   0.032497
     3  N   -0.374085   0.031750
     4  N   -0.369176   0.024865
     5  N   -0.411726   0.027823
     6  C    0.242462  -0.067882
     7  C    0.027186   0.098219
     8  C    0.043990  -0.055825
     9  C    0.150761   0.131458
    10  C    0.140306   0.136877
    11  C    0.051068  -0.058825
    12  C    0.004388   0.117693
    13  C    0.184272  -0.076919
    14  C    0.199384  -0.075222
    15  C    0.040003   0.129975
    16  C   -0.004296  -0.061669
    17  C    0.148779   0.141083
    18  C    0.176482   0.138206
    19  C    0.042731  -0.055269
    20  C    0.029792   0.101168
    21  C    0.231825  -0.062904
    22  C   -0.320055   0.252925
    23  H    0.170086  -0.012429
    24  C   -0.244871  -0.086107
    25  H    0.179815   0.003226
    26  C   -0.268708   0.285261
    27  H    0.172092  -0.013929
    28  C   -0.242985  -0.087633
    29  H    0.189481   0.003073
    30  C   -0.608004   0.004115
    31  H    0.199614  -0.000280
    32  H    0.180311  -0.001827
    33  H    0.207266  -0.001703
    34  C   -0.604667  -0.009041
    35  H    0.202860   0.004729
    36  H    0.183531   0.004967
    37  H    0.195434   0.000206
    38  C   -0.611776   0.004324
    39  H    0.209139  -0.001726
    40  H    0.172866  -0.001320
    41  H    0.203401  -0.000640
    42  C   -0.151306  -0.040324
    43  H    0.159193   0.004255
    44  C   -0.398932   0.061764
    45  H    0.183901  -0.003094
    46  H    0.181836  -0.003099
    47  C   -0.599729  -0.011722
    48  H    0.206115   0.004967
    49  H    0.184592   0.007206
    50  H    0.195435   0.000371
    51  C   -0.145452   0.011989
    52  H    0.187242  -0.001020
    53  C   -0.400437  -0.013425
    54  H    0.154020   0.000804
    55  H    0.188258   0.000976
    56  C   -0.608410   0.004024
    57  H    0.207352  -0.001728
    58  H    0.182654  -0.001696
    59  H    0.197467  -0.000294
    60  C   -0.605611  -0.009324
    61  H    0.200464   0.005159
    62  H    0.195228   0.000230
    63  H    0.182953   0.004758
    64  O    8.000000   0.000000
    65  H   -1.538895   0.003963
    66  H   -2.077119  -0.002255
    67  C   -0.689096  -0.000002
    68  H    0.245086   0.000198
    69  H    0.236728  -0.000044
    70  H    0.225299  -0.000187
    71  S    0.157129  -0.001580
    72  H    0.162934  -0.000355
 Sum of Mulliken charges =   1.00000   1.00000
 Mulliken charges and spin densities with hydrogens summed into heavy atoms:
               1          2
     1  Fe  -3.376100   0.036190
     2  N   -0.361778   0.032497
     3  N   -0.374085   0.031750
     4  N   -0.369176   0.024865
     5  N   -0.411726   0.027823
     6  C    0.242462  -0.067882
     7  C    0.027186   0.098219
     8  C    0.043990  -0.055825
     9  C    0.150761   0.131458
    10  C    0.140306   0.136877
    11  C    0.051068  -0.058825
    12  C    0.004388   0.117693
    13  C    0.184272  -0.076919
    14  C    0.199384  -0.075222
    15  C    0.040003   0.129975
    16  C   -0.004296  -0.061669
    17  C    0.148779   0.141083
    18  C    0.176482   0.138206
    19  C    0.042731  -0.055269
    20  C    0.029792   0.101168
    21  C    0.231825  -0.062904
    22  C   -0.149969   0.240497
    24  C   -0.065055  -0.082881
    26  C   -0.096616   0.271331
    28  C   -0.053503  -0.084560
    30  C   -0.020812   0.000304
    34  C   -0.022841   0.000862
    38  C   -0.026370   0.000639
    42  C    0.007887  -0.036069
    44  C   -0.033195   0.055571
    47  C   -0.013586   0.000823
    51  C    0.041790   0.010969
    53  C   -0.058159  -0.011645
    56  C   -0.020938   0.000306
    60  C   -0.026967   0.000822
    64  O    4.383986   0.001708
    67  C    0.018017  -0.000034
    71  S    0.320063  -0.001934
 Electronic spatial extent (au):  <R**2>=          18188.7523
 Charge=              1.0000 electrons
 Dipole moment (field-independent basis, Debye):
    X=             -0.2421    Y=              1.2986    Z=            -16.6660  Tot=             16.7183
 Quadrupole moment (field-independent basis, Debye-Ang):
   XX=           -234.7097   YY=           -229.1218   ZZ=           -192.6437
   XY=              5.3376   XZ=             -6.9346   YZ=              3.3298
 Traceless Quadrupole moment (field-independent basis, Debye-Ang):
   XX=            -15.8846   YY=            -10.2967   ZZ=             26.1814
   XY=              5.3376   XZ=             -6.9346   YZ=              3.3298
 Octapole moment (field-independent basis, Debye-Ang**2):
  XXX=            -10.6138  YYY=             10.5123  ZZZ=            -21.0701  XYY=             -0.8970
  XXY=             -0.6493  XXZ=             66.3202  XZZ=              1.3943  YZZ=             12.2012
  YYZ=             65.6516  XYZ=             -6.4142
 Hexadecapole moment (field-independent basis, Debye-Ang**3):
 XXXX=         -11087.7410 YYYY=         -10530.8785 ZZZZ=          -1449.0477 XXXY=            -28.4901
 XXXZ=            131.3982 YYYX=             97.7418 YYYZ=            -70.2043 ZZZX=           -102.8897
 ZZZY=             69.5584 XXYY=          -3570.1526 XXZZ=          -2431.6468 YYZZ=          -2252.7199
 XXYZ=             -0.2316 YYXZ=            -39.7639 ZZXY=             39.4974
 N-N= 5.418423813211D+03 E-N=-1.809038099890D+04  KE= 3.078428704714D+03
                          Isotropic Fermi Contact Couplings
        Atom                 a.u.       MegaHertz       Gauss      10(-4) cm-1
     1  Fe(57)             0.00478       0.69346       0.24744       0.23131
     2  N(14)              0.00615       1.98727       0.70911       0.66288
     3  N(14)              0.00585       1.89169       0.67500       0.63100
     4  N(14)              0.00313       1.01171       0.36100       0.33747
     5  N(14)              0.00563       1.82007       0.64945       0.60711
     6  C(13)             -0.01368     -15.37526      -5.48627      -5.12863
     7  C(13)              0.01489      16.74229       5.97406       5.58463
     8  C(13)             -0.01047     -11.76746      -4.19892      -3.92520
     9  C(13)              0.01752      19.69655       7.02822       6.57006
    10  C(13)              0.01855      20.85412       7.44127       6.95619
    11  C(13)             -0.01142     -12.84381      -4.58299      -4.28423
    12  C(13)              0.01753      19.70204       7.03018       6.57189
    13  C(13)             -0.01579     -17.74596      -6.33220      -5.91942
    14  C(13)             -0.01530     -17.19863      -6.13690      -5.73684
    15  C(13)              0.01962      22.05473       7.86968       7.35667
    16  C(13)             -0.01169     -13.13992      -4.68865      -4.38300
    17  C(13)              0.01927      21.66490       7.73057       7.22663
    18  C(13)              0.01856      20.86530       7.44526       6.95991
    19  C(13)             -0.01051     -11.81897      -4.21730      -3.94238
    20  C(13)              0.01516      17.03929       6.08004       5.68370
    21  C(13)             -0.01300     -14.61691      -5.21568      -4.87568
    22  C(13)              0.03342      37.56525      13.40421      12.53042
    23  H(1)              -0.00398     -17.80715      -6.35403      -5.93982
    24  C(13)             -0.01482     -16.66485      -5.94643      -5.55880
    25  H(1)               0.00098       4.38628       1.56513       1.46311
    26  C(13)              0.03799      42.71019      15.24006      14.24659
    27  H(1)              -0.00447     -19.99247      -7.13381      -6.66877
    28  C(13)             -0.01498     -16.84472      -6.01061      -5.61879
    29  H(1)               0.00101       4.50429       1.60724       1.50247
    30  C(13)              0.00124       1.39877       0.49912       0.46658
    31  H(1)              -0.00011      -0.49263      -0.17578      -0.16432
    32  H(1)              -0.00072      -3.23385      -1.15392      -1.07870
    33  H(1)              -0.00067      -3.01193      -1.07473      -1.00467
    34  C(13)             -0.00334      -3.74986      -1.33804      -1.25082
    35  H(1)               0.00173       7.72105       2.75506       2.57547
    36  H(1)               0.00173       7.73564       2.76027       2.58033
    37  H(1)               0.00007       0.32776       0.11695       0.10933
    38  C(13)              0.00133       1.49491       0.53342       0.49865
    39  H(1)              -0.00082      -3.68375      -1.31445      -1.22877
    40  H(1)              -0.00047      -2.11376      -0.75424      -0.70507
    41  H(1)              -0.00020      -0.87230      -0.31126      -0.29097
    42  C(13)             -0.00784      -8.81886      -3.14679      -2.94165
    43  H(1)               0.00110       4.90809       1.75133       1.63716
    44  C(13)              0.00889       9.99537       3.56660       3.33410
    45  H(1)              -0.00096      -4.31178      -1.53855      -1.43826
    46  H(1)              -0.00095      -4.25802      -1.51937      -1.42032
    47  C(13)             -0.00430      -4.83791      -1.72629      -1.61375
    48  H(1)               0.00181       8.08513       2.88497       2.69691
    49  H(1)               0.00279      12.49196       4.45744       4.16687
    50  H(1)               0.00018       0.80586       0.28755       0.26881
    51  C(13)              0.00236       2.65750       0.94826       0.88644
    52  H(1)              -0.00055      -2.46964      -0.88123      -0.82378
    53  C(13)             -0.00213      -2.39785      -0.85561      -0.79984
    54  H(1)               0.00025       1.11576       0.39813       0.37218
    55  H(1)               0.00028       1.24505       0.44426       0.41530
    56  C(13)              0.00119       1.33882       0.47773       0.44658
    57  H(1)              -0.00067      -2.99622      -1.06913      -0.99943
    58  H(1)              -0.00065      -2.88853      -1.03070      -0.96351
    59  H(1)              -0.00011      -0.51396      -0.18339      -0.17144
    60  C(13)             -0.00345      -3.87693      -1.38338      -1.29320
    61  H(1)               0.00194       8.65276       3.08752       2.88625
    62  H(1)               0.00008       0.37378       0.13338       0.12468
    63  H(1)               0.00166       7.41553       2.64605       2.47355
    64  O(17)              0.00000      -0.00079      -0.00028      -0.00027
    65  H(1)               0.00317      14.18772       5.06253       4.73251
    66  H(1)              -0.00193      -8.63093      -3.07973      -2.87897
    67  C(13)             -0.00031      -0.35384      -0.12626      -0.11803
    68  H(1)              -0.00003      -0.12862      -0.04589      -0.04290
    69  H(1)              -0.00001      -0.02604      -0.00929      -0.00869
    70  H(1)              -0.00006      -0.28780      -0.10269      -0.09600
    71  S(33)             -0.00269      -0.92295      -0.32933      -0.30786
    72  H(1)              -0.00003      -0.14975      -0.05344      -0.04995
 --------------------------------------------------------
       Center         ----  Spin Dipole Couplings  ----
                      3XX-RR        3YY-RR        3ZZ-RR
 --------------------------------------------------------
     1   Atom       -0.079996     -0.015009      0.095006
     2   Atom       -0.041516     -0.039436      0.080952
     3   Atom       -0.042983     -0.039466      0.082449
     4   Atom       -0.033262     -0.031705      0.064967
     5   Atom       -0.036146     -0.035180      0.071326
     6   Atom        0.027468      0.017970     -0.045438
     7   Atom       -0.049677     -0.047837      0.097514
     8   Atom        0.021411      0.020792     -0.042204
     9   Atom       -0.066173     -0.064390      0.130563
    10   Atom       -0.069577     -0.071004      0.140582
    11   Atom        0.022270      0.021620     -0.043891
    12   Atom       -0.055178     -0.058949      0.114127
    13   Atom        0.020641      0.029659     -0.050299
    14   Atom        0.029165      0.017199     -0.046365
    15   Atom       -0.066380     -0.059996      0.126376
    16   Atom        0.022431      0.020672     -0.043103
    17   Atom       -0.072197     -0.067634      0.139831
    18   Atom       -0.069737     -0.071054      0.140791
    19   Atom        0.020483      0.020561     -0.041043
    20   Atom       -0.049344     -0.052132      0.101475
    21   Atom        0.016184      0.023931     -0.040115
    22   Atom       -0.121641     -0.118705      0.240346
    23   Atom       -0.006968      0.008223     -0.001254
    24   Atom        0.029870      0.034627     -0.064497
    25   Atom       -0.000180      0.002626     -0.002446
    26   Atom       -0.137876     -0.132796      0.270672
    27   Atom       -0.008074      0.009867     -0.001793
    28   Atom        0.030331      0.035148     -0.065479
    29   Atom       -0.000146      0.002577     -0.002431
    30   Atom        0.000175      0.000653     -0.000828
    31   Atom        0.000362      0.000410     -0.000772
    32   Atom        0.000302      0.000453     -0.000755
    33   Atom        0.000340      0.000409     -0.000749
    34   Atom       -0.000995      0.002324     -0.001328
    35   Atom       -0.000811      0.002212     -0.001401
    36   Atom       -0.000781      0.002384     -0.001603
    37   Atom       -0.001078      0.002138     -0.001060
    38   Atom        0.001500     -0.000374     -0.001127
    39   Atom        0.000983     -0.000095     -0.000888
    40   Atom        0.001297     -0.000379     -0.000919
    41   Atom        0.000748      0.000272     -0.001020
    42   Atom        0.010817      0.007470     -0.018287
    43   Atom        0.002689     -0.000512     -0.002177
    44   Atom       -0.006739     -0.020606      0.027344
    45   Atom       -0.000393      0.000846     -0.000453
    46   Atom       -0.000260      0.002065     -0.001805
    47   Atom       -0.001154      0.002539     -0.001385
    48   Atom       -0.000774      0.002286     -0.001512
    49   Atom       -0.000961      0.002813     -0.001852
    50   Atom       -0.001352      0.002591     -0.001239
    51   Atom       -0.001420      0.000803      0.000617
    52   Atom        0.000142      0.000617     -0.000759
    53   Atom        0.000292     -0.001761      0.001468
    54   Atom        0.001317     -0.000141     -0.001176
    55   Atom       -0.000002     -0.000159      0.000161
    56   Atom        0.001524     -0.000720     -0.000804
    57   Atom        0.001256     -0.000462     -0.000794
    58   Atom        0.001266     -0.000496     -0.000770
    59   Atom        0.001086     -0.000282     -0.000804
    60   Atom        0.001877     -0.000547     -0.001330
    61   Atom        0.001318      0.000222     -0.001540
    62   Atom        0.001934     -0.000840     -0.001094
    63   Atom        0.001187      0.000329     -0.001516
    64   Atom       -0.000420     -0.000400      0.000820
    65   Atom       -0.000675     -0.000392      0.001067
    66   Atom       -0.000530     -0.000462      0.000992
    67   Atom       -0.000286     -0.000810      0.001096
    68   Atom       -0.001763     -0.000625      0.002387
    69   Atom       -0.000626     -0.000696      0.001321
    70   Atom       -0.000603     -0.000467      0.001070
    71   Atom        0.000840      0.002221     -0.003060
    72   Atom       -0.000821     -0.000260      0.001081
 --------------------------------------------------------
                        XY            XZ            YZ
 --------------------------------------------------------
     1   Atom       -0.077438     -0.032132      0.017542
     2   Atom       -0.001006     -0.001016     -0.004451
     3   Atom       -0.000542     -0.007185     -0.009962
     4   Atom       -0.001392      0.004531      0.014553
     5   Atom       -0.000882      0.007379      0.007349
     6   Atom       -0.001856     -0.001680      0.001124
     7   Atom        0.000973      0.007060     -0.000922
     8   Atom        0.000181     -0.002043      0.001628
     9   Atom       -0.000107      0.010949     -0.006207
    10   Atom       -0.000892      0.004206      0.004140
    11   Atom       -0.000052     -0.002616     -0.003936
    12   Atom       -0.000106     -0.000055      0.002951
    13   Atom        0.003803     -0.004296     -0.005244
    14   Atom       -0.001506     -0.002662     -0.008162
    15   Atom        0.000649     -0.003606      0.031034
    16   Atom        0.000652      0.004714     -0.006110
    17   Atom       -0.000796     -0.006488      0.018170
    18   Atom       -0.001067     -0.003886      0.001898
    19   Atom        0.000337      0.001223      0.000012
    20   Atom       -0.000506     -0.001670     -0.000775
    21   Atom        0.003024      0.001936      0.002533
    22   Atom       -0.001081     -0.004101     -0.023038
    23   Atom       -0.013585     -0.000480     -0.000309
    24   Atom       -0.003885     -0.003794      0.002258
    25   Atom       -0.002391      0.000020      0.000209
    26   Atom        0.001307      0.022802      0.044781
    27   Atom       -0.015198      0.000871      0.000733
    28   Atom       -0.004278     -0.000393     -0.005457
    29   Atom       -0.002536      0.000302     -0.000157
    30   Atom        0.001054      0.000026      0.000010
    31   Atom        0.000723     -0.000012      0.000026
    32   Atom        0.000913     -0.000325     -0.000267
    33   Atom        0.000902      0.000298      0.000252
    34   Atom        0.000429     -0.000069      0.000168
    35   Atom       -0.000244     -0.000180      0.001213
    36   Atom       -0.000348      0.000087     -0.001008
    37   Atom        0.000619      0.000014      0.000073
    38   Atom        0.000152     -0.000293     -0.000302
    39   Atom        0.000327      0.000325      0.000125
    40   Atom        0.000639     -0.000354     -0.000272
    41   Atom        0.000253     -0.000250     -0.000410
    42   Atom       -0.007172      0.014858      0.009546
    43   Atom       -0.002739     -0.000351     -0.000027
    44   Atom        0.012586     -0.035463     -0.022145
    45   Atom        0.002769      0.000564      0.001748
    46   Atom       -0.003414     -0.001648     -0.000583
    47   Atom        0.000281     -0.000212     -0.000596
    48   Atom       -0.000579      0.000313     -0.001867
    49   Atom       -0.000502     -0.000193      0.000791
    50   Atom        0.000721     -0.000102     -0.000638
    51   Atom       -0.001855     -0.004440      0.004534
    52   Atom        0.000770     -0.000475     -0.000498
    53   Atom        0.008307      0.005643     -0.006219
    54   Atom        0.001137      0.000856      0.000880
    55   Atom       -0.000008      0.000480     -0.000067
    56   Atom        0.000341      0.000020      0.000026
    57   Atom        0.000459     -0.000366     -0.000156
    58   Atom        0.000479      0.000461      0.000190
    59   Atom        0.000341      0.000056      0.000018
    60   Atom       -0.001298      0.000164      0.000069
    61   Atom       -0.001577     -0.000810      0.000689
    62   Atom       -0.001115      0.000115     -0.000046
    63   Atom       -0.001513      0.001023     -0.000723
    64   Atom       -0.000500     -0.000299      0.000204
    65   Atom       -0.000266      0.000233     -0.000195
    66   Atom       -0.000349     -0.000008      0.000089
    67   Atom       -0.000629      0.000482     -0.000478
    68   Atom       -0.000563      0.000382     -0.001261
    69   Atom       -0.000262      0.000445      0.000256
    70   Atom       -0.000168      0.000013      0.000064
    71   Atom       -0.001225     -0.001168      0.001373
    72   Atom       -0.000484     -0.000303     -0.000028
 --------------------------------------------------------


 ---------------------------------------------------------------------------------
              Anisotropic Spin Dipole Couplings in Principal Axis System
 ---------------------------------------------------------------------------------

       Atom             a.u.   MegaHertz   Gauss  10(-4) cm-1        Axes

              Baa    -0.1328    -2.299    -0.820    -0.767  0.8383  0.5397  0.0767
     1 Fe(57) Bbb     0.0224     0.388     0.138     0.129 -0.4705  0.7874 -0.3984
              Bcc     0.1104     1.911     0.682     0.638 -0.2754  0.2979  0.9140
 
              Baa    -0.0420    -1.619    -0.578    -0.540  0.9159  0.4007  0.0221
     2 N(14)  Bbb    -0.0391    -1.510    -0.539    -0.504 -0.4012  0.9155  0.0305
              Bcc     0.0811     3.129     1.116     1.044 -0.0080 -0.0368  0.9993
 
              Baa    -0.0437    -1.687    -0.602    -0.563  0.9502  0.3018  0.0779
     3 N(14)  Bbb    -0.0399    -1.539    -0.549    -0.513 -0.3066  0.9500  0.0593
              Bcc     0.0837     3.226     1.151     1.076 -0.0561 -0.0803  0.9952
 
              Baa    -0.0357    -1.377    -0.491    -0.459  0.6706  0.7293 -0.1356
     4 N(14)  Bbb    -0.0316    -1.219    -0.435    -0.407  0.7406 -0.6687  0.0660
              Bcc     0.0673     2.595     0.926     0.866  0.0425  0.1447  0.9886
 
              Baa    -0.0376    -1.451    -0.518    -0.484  0.8124  0.5755 -0.0938
     5 N(14)  Bbb    -0.0347    -1.338    -0.478    -0.446 -0.5792  0.8150 -0.0162
              Bcc     0.0723     2.789     0.995     0.930  0.0672  0.0675  0.9955
 
              Baa    -0.0455    -6.105    -2.178    -2.036  0.0226 -0.0170  0.9996
     6 C(13)  Bbb     0.0176     2.366     0.844     0.789  0.1874  0.9822  0.0125
              Bcc     0.0279     3.739     1.334     1.247  0.9820 -0.1871 -0.0254
 
              Baa    -0.0504    -6.765    -2.414    -2.257  0.9290 -0.3671 -0.0466
     7 C(13)  Bbb    -0.0474    -6.366    -2.272    -2.124  0.3670  0.9302 -0.0120
              Bcc     0.0979    13.132     4.686     4.380  0.0478 -0.0060  0.9988
 
              Baa    -0.0423    -5.678    -2.026    -1.894  0.0321 -0.0259  0.9991
     8 C(13)  Bbb     0.0208     2.793     0.996     0.931 -0.1881  0.9816  0.0315
              Bcc     0.0215     2.885     1.030     0.962  0.9816  0.1890 -0.0267
 
              Baa    -0.0668    -8.965    -3.199    -2.990  0.9926 -0.1062 -0.0584
     9 C(13)  Bbb    -0.0646    -8.664    -3.091    -2.890  0.1079  0.9938  0.0256
              Bcc     0.1314    17.628     6.290     5.880  0.0553 -0.0317  0.9980
 
              Baa    -0.0716    -9.605    -3.427    -3.204  0.4526  0.8913 -0.0264
    10 C(13)  Bbb    -0.0692    -9.281    -3.312    -3.096  0.8915 -0.4529 -0.0089
              Bcc     0.1407    18.887     6.739     6.300  0.0199  0.0195  0.9996
 
              Baa    -0.0442    -5.935    -2.118    -1.980  0.0393  0.0597  0.9974
    11 C(13)  Bbb     0.0218     2.930     1.046     0.977 -0.1898  0.9805 -0.0512
              Bcc     0.0224     3.005     1.072     1.002  0.9810  0.1873 -0.0498
 
              Baa    -0.0590    -7.918    -2.825    -2.641  0.0274  0.9995 -0.0170
    12 C(13)  Bbb    -0.0552    -7.404    -2.642    -2.470  0.9996 -0.0274  0.0008
              Bcc     0.1142    15.322     5.467     5.111 -0.0003  0.0170  0.9999
 
              Baa    -0.0509    -6.826    -2.436    -2.277  0.0566  0.0622  0.9965
    13 C(13)  Bbb     0.0193     2.592     0.925     0.865  0.9330 -0.3587 -0.0306
              Bcc     0.0316     4.234     1.511     1.412  0.3555  0.9314 -0.0783
 
              Baa    -0.0475    -6.374    -2.274    -2.126  0.0369  0.1259  0.9914
    14 C(13)  Bbb     0.0181     2.430     0.867     0.811  0.1032  0.9862 -0.1291
              Bcc     0.0294     3.944     1.407     1.316  0.9940 -0.1071 -0.0234
 
              Baa    -0.0671    -9.010    -3.215    -3.005  0.8664 -0.4902  0.0948
    15 C(13)  Bbb    -0.0643    -8.632    -3.080    -2.879  0.4990  0.8568 -0.1300
              Bcc     0.1315    17.642     6.295     5.885 -0.0175  0.1599  0.9870
 
              Baa    -0.0440    -5.908    -2.108    -1.971 -0.0714  0.0945  0.9930
    16 C(13)  Bbb     0.0212     2.848     1.016     0.950 -0.1302  0.9861 -0.1032
              Bcc     0.0228     3.059     1.092     1.020  0.9889  0.1366  0.0581
 
              Baa    -0.0724    -9.717    -3.467    -3.241  0.9969  0.0745  0.0241
    17 C(13)  Bbb    -0.0692    -9.285    -3.313    -3.097 -0.0721  0.9935 -0.0886
              Bcc     0.1416    19.003     6.781     6.339 -0.0305  0.0866  0.9958
 
              Baa    -0.0716    -9.615    -3.431    -3.207  0.4890  0.8723  0.0012
    18 C(13)  Bbb    -0.0692    -9.290    -3.315    -3.099  0.8721 -0.4889  0.0206
              Bcc     0.1409    18.905     6.746     6.306 -0.0185  0.0090  0.9998
 
              Baa    -0.0411    -5.511    -1.966    -1.838 -0.0199 -0.0001  0.9998
    19 C(13)  Bbb     0.0202     2.710     0.967     0.904  0.7344 -0.6785  0.0145
              Bcc     0.0209     2.801     0.999     0.934  0.6784  0.7346  0.0135
 
              Baa    -0.0522    -7.008    -2.501    -2.338  0.1767  0.9842  0.0069
    20 C(13)  Bbb    -0.0493    -6.612    -2.359    -2.205  0.9842 -0.1767  0.0100
              Bcc     0.1015    13.620     4.860     4.543 -0.0111 -0.0050  0.9999
 
              Baa    -0.0403    -5.404    -1.928    -1.803 -0.0322 -0.0379  0.9988
    21 C(13)  Bbb     0.0152     2.035     0.726     0.679  0.9436 -0.3305  0.0179
              Bcc     0.0251     3.370     1.202     1.124  0.3294  0.9430  0.0464
 
              Baa    -0.1225   -16.434    -5.864    -5.482  0.8632  0.5032  0.0417
    22 C(13)  Bbb    -0.1194   -16.021    -5.717    -5.344 -0.5048  0.8618  0.0494
              Bcc     0.2419    32.456    11.581    10.826 -0.0111 -0.0637  0.9979
 
              Baa    -0.0150    -7.983    -2.848    -2.663  0.8618  0.5056  0.0415
    23 H(1)   Bbb    -0.0012    -0.656    -0.234    -0.219 -0.0365 -0.0199  0.9991
              Bcc     0.0162     8.639     3.083     2.882 -0.5059  0.8626 -0.0013
 
              Baa    -0.0647    -8.681    -3.098    -2.896  0.0392 -0.0212  0.9990
    24 C(13)  Bbb     0.0277     3.723     1.329     1.242  0.8673  0.4973 -0.0235
              Bcc     0.0369     4.958     1.769     1.654 -0.4963  0.8673  0.0379
 
              Baa    -0.0025    -1.316    -0.470    -0.439 -0.1009 -0.0881  0.9910
    25 H(1)   Bbb    -0.0015    -0.818    -0.292    -0.273  0.8623  0.4891  0.1313
              Bcc     0.0040     2.134     0.762     0.712 -0.4963  0.8678  0.0266
 
              Baa    -0.1398   -18.760    -6.694    -6.258  0.8691  0.4842 -0.1011
    26 C(13)  Bbb    -0.1370   -18.389    -6.562    -6.134 -0.4916  0.8682 -0.0679
              Bcc     0.2768    37.149    13.256    12.392  0.0549  0.1087  0.9926
 
              Baa    -0.0168    -8.982    -3.205    -2.996  0.8658  0.4948 -0.0742
    27 H(1)   Bbb    -0.0017    -0.913    -0.326    -0.305  0.0695  0.0281  0.9972
              Bcc     0.0185     9.896     3.531     3.301 -0.4955  0.8685  0.0101
 
              Baa    -0.0658    -8.827    -3.150    -2.944  0.0065  0.0543  0.9985
    28 C(13)  Bbb     0.0279     3.748     1.337     1.250  0.8703  0.4914 -0.0324
              Bcc     0.0378     5.079     1.812     1.694 -0.4924  0.8692 -0.0440
 
              Baa    -0.0025    -1.325    -0.473    -0.442 -0.2047 -0.0723  0.9762
    29 H(1)   Bbb    -0.0016    -0.867    -0.309    -0.289  0.8330  0.5109  0.2125
              Bcc     0.0041     2.191     0.782     0.731 -0.5141  0.8566 -0.0444
 
              Baa    -0.0008    -0.111    -0.040    -0.037 -0.0740  0.0458  0.9962
    30 C(13)  Bbb    -0.0007    -0.089    -0.032    -0.030  0.7778 -0.6225  0.0864
              Bcc     0.0015     0.201     0.072     0.067  0.6241  0.7813  0.0104
 
              Baa    -0.0008    -0.413    -0.147    -0.138  0.0404 -0.0466  0.9981
    31 H(1)   Bbb    -0.0003    -0.179    -0.064    -0.060  0.7178 -0.6935 -0.0614
              Bcc     0.0011     0.592     0.211     0.197  0.6951  0.7189  0.0054
 
              Baa    -0.0008    -0.452    -0.161    -0.151  0.2613  0.0144  0.9652
    32 H(1)   Bbb    -0.0005    -0.282    -0.101    -0.094 -0.6958  0.6959  0.1780
              Bcc     0.0014     0.733     0.262     0.245  0.6690  0.7180 -0.1918
 
              Baa    -0.0008    -0.441    -0.157    -0.147 -0.2199 -0.0380  0.9748
    33 H(1)   Bbb    -0.0005    -0.279    -0.099    -0.093 -0.6949  0.7075 -0.1291
              Bcc     0.0013     0.720     0.257     0.240  0.6847  0.7057  0.1820
 
              Baa    -0.0014    -0.183    -0.065    -0.061  0.2708 -0.0753  0.9597
    34 C(13)  Bbb    -0.0010    -0.137    -0.049    -0.046  0.9545 -0.1085 -0.2778
              Bcc     0.0024     0.320     0.114     0.107  0.1250  0.9912  0.0425
 
              Baa    -0.0018    -0.950    -0.339    -0.317  0.1056 -0.2832  0.9532
    35 H(1)   Bbb    -0.0008    -0.440    -0.157    -0.147  0.9909  0.1106 -0.0770
              Bcc     0.0026     1.390     0.496     0.464 -0.0836  0.9527  0.2923
 
              Baa    -0.0018    -0.984    -0.351    -0.328 -0.0035  0.2316  0.9728
    36 H(1)   Bbb    -0.0008    -0.436    -0.156    -0.146  0.9946  0.1017 -0.0206
              Bcc     0.0027     1.420     0.507     0.474 -0.1037  0.9675 -0.2307
 
              Baa    -0.0012    -0.637    -0.227    -0.212  0.9832 -0.1826 -0.0015
    37 H(1)   Bbb    -0.0011    -0.566    -0.202    -0.189 -0.0026 -0.0224  0.9997
              Bcc     0.0023     1.203     0.429     0.401  0.1826  0.9829  0.0225
 
              Baa    -0.0013    -0.168    -0.060    -0.056  0.0836  0.3110  0.9467
    38 C(13)  Bbb    -0.0003    -0.040    -0.014    -0.013 -0.1287  0.9455 -0.2993
              Bcc     0.0016     0.208     0.074     0.069  0.9882  0.0968 -0.1191
 
              Baa    -0.0009    -0.506    -0.181    -0.169 -0.1511 -0.0862  0.9848
    39 H(1)   Bbb    -0.0002    -0.099    -0.035    -0.033 -0.2799  0.9591  0.0410
              Bcc     0.0011     0.605     0.216     0.202  0.9481  0.2695  0.1690
 
              Baa    -0.0010    -0.553    -0.197    -0.184  0.0489  0.3415  0.9386
    40 H(1)   Bbb    -0.0005    -0.293    -0.104    -0.098 -0.3631  0.8815 -0.3019
              Bcc     0.0016     0.846     0.302     0.282  0.9305  0.3261 -0.1671
 
              Baa    -0.0012    -0.616    -0.220    -0.205  0.0916  0.2603  0.9612
    41 H(1)   Bbb     0.0002     0.115     0.041     0.038 -0.4904  0.8518 -0.1840
              Bcc     0.0009     0.501     0.179     0.167  0.8666  0.4545 -0.2057
 
              Baa    -0.0283    -3.798    -1.355    -1.267 -0.3867 -0.3094  0.8688
    42 C(13)  Bbb     0.0101     1.358     0.484     0.453  0.2266  0.8813  0.4147
              Bcc     0.0182     2.440     0.871     0.814  0.8939 -0.3573  0.2707
 
              Baa    -0.0023    -1.249    -0.446    -0.417  0.3336  0.5110  0.7922
    43 H(1)   Bbb    -0.0019    -1.031    -0.368    -0.344  0.3699  0.7020 -0.6086
              Bcc     0.0043     2.280     0.814     0.761  0.8671 -0.4960 -0.0451
 
              Baa    -0.0300    -4.030    -1.438    -1.344  0.5147  0.6435  0.5665
    44 C(13)  Bbb    -0.0279    -3.739    -1.334    -1.247 -0.6943  0.7005 -0.1650
              Bcc     0.0579     7.769     2.772     2.592 -0.5030 -0.3084  0.8074
 
              Baa    -0.0028    -1.513    -0.540    -0.505  0.6750 -0.6621  0.3257
    45 H(1)   Bbb    -0.0009    -0.499    -0.178    -0.167 -0.4951 -0.0792  0.8652
              Bcc     0.0038     2.013     0.718     0.671  0.5470  0.7452  0.3813
 
              Baa    -0.0040    -2.136    -0.762    -0.712  0.6630  0.4318  0.6115
    46 H(1)   Bbb    -0.0005    -0.291    -0.104    -0.097 -0.4539 -0.4178  0.7871
              Bcc     0.0045     2.427     0.866     0.809 -0.5953  0.7994  0.0810
 
              Baa    -0.0015    -0.208    -0.074    -0.069  0.4116  0.1038  0.9054
    47 C(13)  Bbb    -0.0011    -0.148    -0.053    -0.049  0.9078 -0.1351 -0.3972
              Bcc     0.0027     0.356     0.127     0.119  0.0811  0.9854 -0.1498
 
              Baa    -0.0023    -1.216    -0.434    -0.406 -0.0495  0.3727  0.9266
    48 H(1)   Bbb    -0.0009    -0.469    -0.167    -0.157  0.9852  0.1707 -0.0161
              Bcc     0.0032     1.685     0.601     0.562 -0.1642  0.9121 -0.3756
 
              Baa    -0.0020    -1.064    -0.380    -0.355  0.1100 -0.1502  0.9825
    49 H(1)   Bbb    -0.0010    -0.543    -0.194    -0.181  0.9852  0.1473 -0.0878
              Bcc     0.0030     1.608     0.574     0.536 -0.1316  0.9776  0.1642
 
              Baa    -0.0015    -0.790    -0.282    -0.263  0.9796 -0.1855 -0.0770
    50 H(1)   Bbb    -0.0013    -0.716    -0.255    -0.239  0.1040  0.1408  0.9846
              Bcc     0.0028     1.505     0.537     0.502  0.1718  0.9725 -0.1572
 
              Baa    -0.0054    -0.730    -0.260    -0.243  0.6295 -0.3255  0.7055
    51 C(13)  Bbb    -0.0021    -0.280    -0.100    -0.093  0.6295  0.7460 -0.2175
              Bcc     0.0075     1.009     0.360     0.337 -0.4555  0.5810  0.6745
 
              Baa    -0.0010    -0.527    -0.188    -0.176  0.2938  0.1518  0.9437
    52 H(1)   Bbb    -0.0004    -0.221    -0.079    -0.074  0.7617 -0.6337 -0.1352
              Bcc     0.0014     0.748     0.267     0.249  0.5775  0.7586 -0.3018
 
              Baa    -0.0137    -1.844    -0.658    -0.615 -0.5817  0.6543  0.4833
    53 C(13)  Bbb     0.0061     0.818     0.292     0.273  0.2731 -0.4026  0.8737
              Bcc     0.0076     1.026     0.366     0.342  0.7662  0.6402  0.0555
 
              Baa    -0.0017    -0.904    -0.323    -0.302 -0.0868 -0.4419  0.8929
    54 H(1)   Bbb    -0.0006    -0.342    -0.122    -0.114 -0.5762  0.7534  0.3168
              Bcc     0.0023     1.246     0.445     0.416  0.8127  0.4869  0.3200
 
              Baa    -0.0004    -0.220    -0.079    -0.073  0.7507 -0.1448 -0.6446
    55 H(1)   Bbb    -0.0002    -0.084    -0.030    -0.028  0.1604  0.9864 -0.0349
              Bcc     0.0006     0.305     0.109     0.102  0.6409 -0.0772  0.7637
 
              Baa    -0.0008    -0.109    -0.039    -0.037  0.0585 -0.4541  0.8890
    56 C(13)  Bbb    -0.0008    -0.102    -0.036    -0.034 -0.1354  0.8787  0.4577
              Bcc     0.0016     0.211     0.075     0.070  0.9891  0.1472  0.0101
 
              Baa    -0.0009    -0.467    -0.167    -0.156  0.1151  0.2355  0.9650
    57 H(1)   Bbb    -0.0006    -0.301    -0.107    -0.100 -0.2766  0.9407 -0.1966
              Bcc     0.0014     0.768     0.274     0.256  0.9541  0.2443 -0.1734
 
              Baa    -0.0009    -0.478    -0.170    -0.159 -0.1394 -0.2849  0.9484
    58 H(1)   Bbb    -0.0006    -0.320    -0.114    -0.107 -0.2954  0.9261  0.2348
              Bcc     0.0015     0.798     0.285     0.266  0.9451  0.2475  0.2132
 
              Baa    -0.0008    -0.430    -0.153    -0.143 -0.0267 -0.0165  0.9995
    59 H(1)   Bbb    -0.0004    -0.193    -0.069    -0.065 -0.2293  0.9733  0.0100
              Bcc     0.0012     0.623     0.222     0.208  0.9730  0.2289  0.0297
 
              Baa    -0.0014    -0.187    -0.067    -0.062 -0.1924 -0.3697  0.9090
    60 C(13)  Bbb    -0.0011    -0.141    -0.050    -0.047  0.3489  0.8400  0.4155
              Bcc     0.0024     0.328     0.117     0.109  0.9172 -0.3971  0.0326
 
              Baa    -0.0018    -0.967    -0.345    -0.323  0.1395 -0.2188  0.9658
    61 H(1)   Bbb    -0.0009    -0.475    -0.170    -0.159  0.6010  0.7938  0.0930
              Bcc     0.0027     1.443     0.515     0.481  0.7870 -0.5674 -0.2422
 
              Baa    -0.0012    -0.658    -0.235    -0.219  0.3306  0.9431  0.0366
    62 H(1)   Bbb    -0.0011    -0.586    -0.209    -0.195 -0.0461 -0.0226  0.9987
              Bcc     0.0023     1.244     0.444     0.415  0.9426 -0.3318  0.0360
 
              Baa    -0.0019    -1.008    -0.360    -0.336 -0.2482  0.1431  0.9581
    63 H(1)   Bbb    -0.0008    -0.434    -0.155    -0.145  0.5921  0.8052  0.0332
              Bcc     0.0027     1.442     0.514     0.481  0.7667 -0.5756  0.2845
 
              Baa    -0.0009     0.066     0.024     0.022  0.7243  0.6880  0.0439
    64 O(17)  Bbb    -0.0001     0.004     0.001     0.001 -0.6266  0.6836 -0.3744
              Bcc     0.0010    -0.070    -0.025    -0.023 -0.2876  0.2436  0.9262
 
              Baa    -0.0008    -0.448    -0.160    -0.150  0.8690  0.4916 -0.0559
    65 H(1)   Bbb    -0.0003    -0.156    -0.056    -0.052 -0.4720  0.8576  0.2042
              Bcc     0.0011     0.604     0.216     0.202  0.1483 -0.1511  0.9773
 
              Baa    -0.0008    -0.452    -0.161    -0.151  0.7384  0.6738 -0.0297
    66 H(1)   Bbb    -0.0001    -0.080    -0.029    -0.027 -0.6741  0.7360 -0.0621
              Bcc     0.0010     0.532     0.190     0.178 -0.0200  0.0659  0.9976
 
              Baa    -0.0012    -0.166    -0.059    -0.055  0.5274  0.8472  0.0646
    67 C(13)  Bbb    -0.0002    -0.027    -0.010    -0.009  0.7728 -0.4468 -0.4507
              Bcc     0.0014     0.193     0.069     0.065  0.3530 -0.2876  0.8903
 
              Baa    -0.0020    -1.066    -0.381    -0.356  0.9120  0.4084  0.0381
    68 H(1)   Bbb    -0.0009    -0.487    -0.174    -0.162 -0.3928  0.8429  0.3677
              Bcc     0.0029     1.553     0.554     0.518  0.1180 -0.3503  0.9292
 
              Baa    -0.0010    -0.548    -0.196    -0.183  0.6844  0.6994 -0.2061
    69 H(1)   Bbb    -0.0004    -0.218    -0.078    -0.073 -0.7014  0.7087  0.0756
              Bcc     0.0014     0.766     0.273     0.256  0.1990  0.0928  0.9756
 
              Baa    -0.0007    -0.383    -0.137    -0.128  0.8279  0.5603 -0.0259
    70 H(1)   Bbb    -0.0004    -0.190    -0.068    -0.063 -0.5609  0.8273 -0.0320
              Bcc     0.0011     0.572     0.204     0.191  0.0035  0.0410  0.9992
 
              Baa    -0.0036    -0.146    -0.052    -0.049  0.2032 -0.1850  0.9615
    71 S(33)  Bbb     0.0001     0.006     0.002     0.002  0.8370  0.5424 -0.0726
              Bcc     0.0034     0.140     0.050     0.047 -0.5081  0.8195  0.2651
 
              Baa    -0.0011    -0.605    -0.216    -0.202  0.8665  0.4834  0.1246
    72 H(1)   Bbb     0.0000     0.002     0.001     0.001 -0.4722  0.8746 -0.1101
              Bcc     0.0011     0.603     0.215     0.201 -0.1622  0.0365  0.9861
 

 ---------------------------------------------------------------------------------

 Unable to Open any file for archive entry.
 1\1\GINC-BGN1012\SP\UAPFD\Gen\C31H34Fe1N4O1S1(1+,2)\BECSLEIP\03-Oct-20
 24\0\\# apfd/gen scf=maxcycle=999 geom=check\\5ik1_III_D\\1,2\Fe,0,0.7
 766474327,22.019127184,-18.3313144924\N,0,-0.9902536885,21.4542996136,
 -19.0425817423\N,0,-0.0918089915,22.7461005821,-16.6819713421\N,0,2.56
 99473587,22.653790944,-17.6559083934\N,0,1.6509298885,21.4974230396,-2
 0.0550510521\C,0,-1.2328838712,20.815347377,-20.2156943719\C,0,-2.6388
 137478,20.5014058666,-20.3450714904\C,0,-3.2375466377,20.9612274501,-1
 9.2143194751\C,0,-2.1935182132,21.5768810211,-18.4233142955\C,0,-1.422
 1396849,22.7233315046,-16.3926501443\C,0,-1.6698326525,23.255460233,-1
 5.0772748988\C,0,-0.4542322125,23.656851532,-14.5908447296\C,0,0.51371
 54489,23.3427301093,-15.6234023147\C,0,2.8222342688,23.1878956274,-16.
 4304099762\C,0,4.2409735499,23.3187571811,-16.2188981884\C,0,4.8356478
 694,23.0192745725,-17.4143291099\C,0,3.7627735774,22.6152869196,-18.30
 28785893\C,0,2.9602157746,21.6278673068,-20.3965913282\C,0,3.200446462
 8,21.0928546359,-21.7181035428\C,0,1.9992057901,20.6472255848,-22.1742
 862706\C,0,1.0426797359,20.9112506593,-21.1226877121\C,0,-0.2857314324
 ,20.5314848022,-21.1818423422\H,0,-0.6198457903,20.026816834,-22.07513
 38562\C,0,-2.4027275078,22.1543381966,-17.1874344836\H,0,-3.4145067591
 ,22.1664310689,-16.8127345256\C,0,1.8777132671,23.486010262,-15.466573
 3876\H,0,2.234610436,23.8984287423,-14.5357937977\C,0,3.9573310289,22.
 1248680913,-19.5797605406\H,0,4.9659204812,22.1125121643,-19.960113145
 8\C,0,-4.6723292221,20.9082246353,-18.8166740961\H,0,-5.2627808924,20.
 3894145566,-19.5677783391\H,0,-5.0753074367,21.9143430636,-18.69827713
 53\H,0,-4.7871208074,20.3844584758,-17.8674980518\C,0,-3.2359533252,19
 .7933660136,-21.5121815547\H,0,-2.7776455988,18.8126029953,-21.6426845
 418\H,0,-3.0779948722,20.3644315404,-22.4273238513\H,0,-4.3056625504,1
 9.6562344566,-21.3755780293\C,0,-3.0129611023,23.4103023184,-14.454663
 7555\H,0,-3.3344544211,22.4767857914,-13.9904440389\H,0,-3.7552341402,
 23.6886339556,-15.2013367301\H,0,-2.9826943722,24.1820954457,-13.68818
 17491\C,0,-0.1332477538,24.2963337496,-13.334286046\H,0,0.6866270928,2
 5.0047263417,-13.3681129795\C,0,-0.7494599802,24.0777407857,-12.177368
 8059\H,0,-1.5357806881,23.3505327292,-12.0756774519\H,0,-0.4651710961,
 24.6025799093,-11.2804943335\C,0,4.8797382578,23.8000946306,-14.963270
 1667\H,0,4.5311617241,23.2187565551,-14.1099113159\H,0,4.6334477163,24
 .8472218043,-14.7823781673\H,0,5.9614793542,23.7135074636,-15.02826313
 49\C,0,6.2503025767,23.0811782072,-17.7225977833\H,0,6.9103767371,22.7
 356616201,-16.934102203\C,0,6.7777261722,23.5572476621,-18.8442095395\
 H,0,6.1693025859,23.9644862394,-19.6339806776\H,0,7.8433018727,23.5814
 943738,-19.0009613498\C,0,4.5314481203,21.0775570037,-22.3868919928\H,
 0,5.2437947765,20.487344174,-21.8098510464\H,0,4.927095346,22.08932467
 67,-22.4757595739\H,0,4.4590317707,20.6485553545,-23.3832338423\C,0,1.
 6612106496,20.0070116265,-23.4767070524\H,0,1.2869093856,18.9942625972
 ,-23.3227875626\H,0,2.5368042534,19.9529686438,-24.1187151467\H,0,0.88
 97843859,20.5768335886,-23.9947105876\O,0,0.434,24.061,-19.167\H,0,0.1
 39,24.619,-18.4470000001\H,0,0.5549999999,24.312,-20.011\C,0,0.4824655
 551,18.6089005474,-18.3301802967\H,0,0.6722322741,18.8054497933,-19.37
 959053\H,0,-0.5855732747,18.6238801252,-18.1406374876\H,0,0.9045783745
 ,17.6574529528,-18.0218682284\S,0,1.2110626083,19.9433036957,-17.31455
 28776\H,0,2.4578744278,19.7693620033,-17.7678953514\\Version=ES64L-G16
 RevC.02\State=2-A\HF=-3095.2131507\S2=0.781651\S2-1=0.\S2A=0.750854\RM
 SD=4.755e-09\Dipole=-1.4206931,5.6624964,-3.0300415\Quadrupole=-4.3060
 194,17.0079731,-12.7019537,-4.8333535,2.8118867,-8.4320222\PG=C01 [X(C
 31H34Fe1N4O1S1)]\\@
 The archive entry for this job was punched.


 FOR THE NATURE OF THE CHEMICAL BOND
 IS THE PROBLEM AT THE HEART OF ALL CHEMISTRY.

                     -- BRYCE CRAWFORD, JR., 1953
 Job cpu time:       0 days  1 hours 51 minutes 44.9 seconds.
 Elapsed time:       0 days  0 hours  1 minutes 54.7 seconds.
 File lengths (MBytes):  RWF=    347 Int=      0 D2E=      0 Chk=    156 Scr=      1
 Normal termination of Gaussian 16 at Thu Oct  3 23:11:35 2024.
