 Entering Gaussian System, Link 0=g16
 Input=5jqr05re.com
 Output=5jqr05re.log
 Initial command:
 /sw/chem/gaussian/g16_C02/a100/g16/l1.exe "/local/becsleip_8039180/Gau-124971.inp" -scrdir="/local/becsleip_8039180/"
 Entering Link 1 = /sw/chem/gaussian/g16_C02/a100/g16/l1.exe PID=    124972.
  
 Copyright (c) 1988-2021, Gaussian, Inc.  All Rights Reserved.
  
 This is part of the Gaussian(R) 16 program.  It is based on
 the Gaussian(R) 09 system (copyright 2009, Gaussian, Inc.),
 the Gaussian(R) 03 system (copyright 2003, Gaussian, Inc.),
 the Gaussian(R) 98 system (copyright 1998, Gaussian, Inc.),
 the Gaussian(R) 94 system (copyright 1995, Gaussian, Inc.),
 the Gaussian 92(TM) system (copyright 1992, Gaussian, Inc.),
 the Gaussian 90(TM) system (copyright 1990, Gaussian, Inc.),
 the Gaussian 88(TM) system (copyright 1988, Gaussian, Inc.),
 the Gaussian 86(TM) system (copyright 1986, Carnegie Mellon
 University), and the Gaussian 82(TM) system (copyright 1983,
 Carnegie Mellon University). Gaussian is a federally registered
 trademark of Gaussian, Inc.
  
 This software contains proprietary and confidential information,
 including trade secrets, belonging to Gaussian, Inc.
  
 This software is provided under written license and may be
 used, copied, transmitted, or stored only in accord with that
 written license.
  
 The following legend is applicable only to US Government
 contracts under FAR:
  
                    RESTRICTED RIGHTS LEGEND
  
 Use, reproduction and disclosure by the US Government is
 subject to restrictions as set forth in subparagraphs (a)
 and (c) of the Commercial Computer Software - Restricted
 Rights clause in FAR 52.227-19.
  
 Gaussian, Inc.
 340 Quinnipiac St., Bldg. 40, Wallingford CT 06492
  
  
 ---------------------------------------------------------------
 Warning -- This program may not be used in any manner that
 competes with the business of Gaussian, Inc. or will provide
 assistance to any competitor of Gaussian, Inc.  The licensee
 of this program is prohibited from giving any competitor of
 Gaussian, Inc. access to this program.  By using this program,
 the user acknowledges that Gaussian, Inc. is engaged in the
 business of creating and licensing software in the field of
 computational chemistry and represents and warrants to the
 licensee that it is not a competitor of Gaussian, Inc. and that
 it will not use this program in any manner prohibited above.
 ---------------------------------------------------------------
  

 Cite this work as:
 Gaussian 16, Revision C.02,
 M. J. Frisch, G. W. Trucks, H. B. Schlegel, G. E. Scuseria, 
 M. A. Robb, J. R. Cheeseman, G. Scalmani, V. Barone, 
 G. A. Petersson, H. Nakatsuji, X. Li, M. Caricato, A. V. Marenich, 
 J. Bloino, B. G. Janesko, R. Gomperts, B. Mennucci, H. P. Hratchian, 
 J. V. Ortiz, A. F. Izmaylov, J. L. Sonnenberg, D. Williams-Young, 
 F. Ding, F. Lipparini, F. Egidi, J. Goings, B. Peng, A. Petrone, 
 T. Henderson, D. Ranasinghe, V. G. Zakrzewski, J. Gao, N. Rega, 
 G. Zheng, W. Liang, M. Hada, M. Ehara, K. Toyota, R. Fukuda, 
 J. Hasegawa, M. Ishida, T. Nakajima, Y. Honda, O. Kitao, H. Nakai, 
 T. Vreven, K. Throssell, J. A. Montgomery, Jr., J. E. Peralta, 
 F. Ogliaro, M. J. Bearpark, J. J. Heyd, E. N. Brothers, K. N. Kudin, 
 V. N. Staroverov, T. A. Keith, R. Kobayashi, J. Normand, 
 K. Raghavachari, A. P. Rendell, J. C. Burant, S. S. Iyengar, 
 J. Tomasi, M. Cossi, J. M. Millam, M. Klene, C. Adamo, R. Cammi, 
 J. W. Ochterski, R. L. Martin, K. Morokuma, O. Farkas, 
 J. B. Foresman, and D. J. Fox, Gaussian, Inc., Wallingford CT, 2019.
 
 ******************************************
 Gaussian 16:  ES64L-G16RevC.02  7-Dec-2021
                 5-Oct-2024 
 ******************************************
 %mem=16GB
 %CPU=0-71
 SetSPE:  set environment variable "OMP_PROC_BIND" = "true"
 SetSPE:  set environment variable "OMP_PLACES" = "{0},{1},{2},{3},{4},{5},{6},{7},{8},{9},{10},{11},{12},{13},{14},{15},{16},{17},{18},{19},{20},{21},{22},{23},{24},{25},{26},{27},{28},{29},{30},{31},{32},{33},{34},{35},{36},{37},{38},{39},{40},{41},{42},{43},{44},{45},{46},{47},{48},{49},{50},{51},{52},{53},{54},{55},{56},{57},{58},{59},{60},{61},{62},{63},{64},{65},{66},{67},{68},{69},{70},{71}"
 Will use up to   72 processors via shared memory.
 %gpucpu=0,1,2,3=0,1,2,3
 Will use    4 GPUs:
 Thread  CPU   GPU
      0    0     0
      1    1     1
      2    2     2
      3    3     3
      4    4    -1
      5    5    -1
      6    6    -1
      7    7    -1
      8    8    -1
      9    9    -1
     10   10    -1
     11   11    -1
     12   12    -1
     13   13    -1
     14   14    -1
     15   15    -1
     16   16    -1
     17   17    -1
     18   18    -1
     19   19    -1
     20   20    -1
     21   21    -1
     22   22    -1
     23   23    -1
     24   24    -1
     25   25    -1
     26   26    -1
     27   27    -1
     28   28    -1
     29   29    -1
     30   30    -1
     31   31    -1
     32   32    -1
     33   33    -1
     34   34    -1
     35   35    -1
     36   36    -1
     37   37    -1
     38   38    -1
     39   39    -1
     40   40    -1
     41   41    -1
     42   42    -1
     43   43    -1
     44   44    -1
     45   45    -1
     46   46    -1
     47   47    -1
     48   48    -1
     49   49    -1
     50   50    -1
     51   51    -1
     52   52    -1
     53   53    -1
     54   54    -1
     55   55    -1
     56   56    -1
     57   57    -1
     58   58    -1
     59   59    -1
     60   60    -1
     61   61    -1
     62   62    -1
     63   63    -1
     64   64    -1
     65   65    -1
     66   66    -1
     67   67    -1
     68   68    -1
     69   69    -1
     70   70    -1
     71   71    -1
 SetGPE:  set environment variable "OMP_PROC_BIND" = "true"
 SetGPE:  set environment variable "OMP_PLACES" = "{0},{1},{2},{3},{4},{5},{6},{7},{8},{9},{10},{11},{12},{13},{14},{15},{16},{17},{18},{19},{20},{21},{22},{23},{24},{25},{26},{27},{28},{29},{30},{31},{32},{33},{34},{35},{36},{37},{38},{39},{40},{41},{42},{43},{44},{45},{46},{47},{48},{49},{50},{51},{52},{53},{54},{55},{56},{57},{58},{59},{60},{61},{62},{63},{64},{65},{66},{67},{68},{69},{70},{71}"
 %oldchk=5jqr_II_S.chk
 %chk=5jqr_II_Sre.chk
 Properties for Device   0
 Minimum vector length:                              32
 Maximum vector length:                            1024
 Number of SMPs:                                    108
 Maximum number of threads per SMP:                2048
 Number of ASync Engines:                             5
 Memory:                                           9207742464
 Properties for Device   1
 Minimum vector length:                              32
 Maximum vector length:                            1024
 Number of SMPs:                                    108
 Maximum number of threads per SMP:                2048
 Number of ASync Engines:                             5
 Memory:                                           9207742464
 Properties for Device   2
 Minimum vector length:                              32
 Maximum vector length:                            1024
 Number of SMPs:                                    108
 Maximum number of threads per SMP:                2048
 Number of ASync Engines:                             5
 Memory:                                           9207742464
 Properties for Device   3
 Minimum vector length:                              32
 Maximum vector length:                            1024
 Number of SMPs:                                    108
 Maximum number of threads per SMP:                2048
 Number of ASync Engines:                             5
 Memory:                                           9207742464
   8286968217 words of memory will be used on each GPU.
 Copying data from "5jqr_II_S.chk" to current chk file "5jqr_II_Sre.chk"
 IOpt=  2 FromEx=T IUOpen= 4 IOptOp= 5 NList=   0 IFRang= 0 IUIn= 4 IUOut= 2.
 --------------------------------------
 # apfd/gen scf=maxcycle=999 geom=check
 --------------------------------------
 1/29=2,38=1,172=1/1;
 2/12=2,40=1/2;
 3/5=7,11=2,14=-4,25=1,30=1,74=-44/1,2,3;
 4//1;
 5/5=2,7=999,38=5/2;
 6/7=2,8=2,9=2,10=2,28=1/1;
 99/5=1,9=1/99;
 ---------
 5jqr_II_Q
 ---------
 Structure from the checkpoint file:  "5jqr_II_Sre.chk"
 Charge =  0 Multiplicity = 5
 Z-Matrix found in chk file.
 Fe,0,95.5573100227,26.9227749862,19.3034842326
 N,0,96.8782340182,28.3698500968,18.7942575826
 N,0,94.4673309558,27.368909535,17.6861321349
 N,0,94.2346366132,25.5203963039,19.8231923418
 N,0,96.6775489792,26.5145083199,20.9042873924
 C,0,98.0368570342,28.6808142688,19.4347245469
 C,0,98.7746496502,29.6871498348,18.7060222597
 C,0,98.0396005855,29.9668002284,17.5944381579
 C,0,96.8662567813,29.1280268255,17.6641406735
 C,0,94.7275098087,28.3315496397,16.760263292
 C,0,93.6518984427,28.4294146792,15.8097762049
 C,0,92.7114667318,27.5135436181,16.1949710556
 C,0,93.2506097212,26.8557856764,17.3694327893
 C,0,93.1368482089,25.1336656871,19.1162334158
 C,0,92.5362081983,23.96081777,19.7023823705
 C,0,93.2754686259,23.6686217237,20.8196482949
 C,0,94.3455736283,24.6529563275,20.861442419
 C,0,96.3821529018,25.5990226703,21.8643313663
 C,0,97.3256224949,25.6858949111,22.9618553096
 C,0,98.2006266066,26.6746327874,22.6374308182
 C,0,97.7727705408,27.1838861813,21.3528091046
 C,0,98.456180462,28.1501329737,20.6423287968
 H,0,99.3791459744,28.5285824305,21.0560455757
 C,0,95.8520251905,29.1384198108,16.7254903918
 H,0,95.9350700333,29.8351396009,15.9039179358
 C,0,92.6526415835,25.7757807929,17.9908501333
 H,0,91.7577636832,25.3833987001,17.5368246461
 C,0,95.3268402541,24.7025845434,21.8375960407
 H,0,95.259054914,23.990770522,22.6479923326
 C,0,98.3147854044,30.932916448,16.4928661724
 H,0,99.2510732421,31.4564734037,16.6674665624
 H,0,97.5185544258,31.6745574315,16.4194229797
 H,0,98.3819804561,30.4113397516,15.5379635219
 C,0,100.0654331167,30.286918664,19.1530879079
 H,0,100.8406157171,29.5253353192,19.2369511832
 H,0,99.9507123625,30.7567426913,20.1304716551
 H,0,100.4048410256,31.0430083641,18.4483451277
 C,0,93.6125250943,29.3547911098,14.6422134685
 H,0,94.5009035387,29.2275466191,14.0223227045
 H,0,93.575173207,30.3942994548,14.9684011589
 H,0,92.7330557521,29.1593024314,14.0343078282
 C,0,91.4330134899,27.2653187629,15.5641396657
 H,0,91.4307984857,27.3109755592,14.4805505028
 C,0,90.2960639998,27.0377093335,16.210198968
 H,0,90.2553135535,27.0225882933,17.2853487354
 H,0,89.368588728,26.8780877313,15.6874707688
 C,0,91.3424125488,23.2414296248,19.1761274385
 H,0,91.3120521167,23.2612733097,18.0883919782
 H,0,90.4244714074,23.6996499261,19.5482314476
 H,0,91.3597031724,22.203650058,19.5022443839
 C,0,93.0776824753,22.6169362899,21.7931771192
 H,0,93.9768201715,22.2476141121,22.2730920813
 C,0,91.9144479137,22.0910450694,22.1685259042
 H,0,90.9613582754,22.4428089205,21.8139354458
 H,0,91.8807082556,21.2883557734,22.8870454996
 C,0,97.2941609714,24.818922205,24.1749620222
 H,0,97.3785550507,23.7690039356,23.8934105775
 H,0,96.3560046182,24.9514405024,24.7144157272
 H,0,98.1162105308,25.0632611046,24.8450424047
 C,0,99.37322555,27.1925198882,23.4020652258
 H,0,100.3050258231,27.0507889338,22.8511899523
 H,0,99.4666298702,26.6793996607,24.3561020075
 H,0,99.252361498,28.2596631064,23.589755396
 O,0,96.782,25.374,18.1
 H,0,97.604,25.815,17.886
 H,0,96.561,24.54,17.886
 C,0,92.9176513566,29.7306339924,23.3284303082
 H,0,92.9291087575,28.8947212481,24.0205053311
 H,0,91.8874996664,30.0554200948,23.1868720072
 H,0,93.4783763816,30.5550197943,23.7687389251
 N,0,93.595777631,30.1460815297,20.9531986592
 H,0,93.2607372221,31.0939578634,20.9124214794
 C,0,93.5231396541,29.3139048432,22.0390919268
 C,0,94.2114620549,29.468999537,19.958449738
 H,0,94.3944980765,29.8682122813,18.982368535
 N,0,94.5375108514,28.2616726531,20.3508595551
 C,0,94.1090364328,28.1470376307,21.6408280022
 H,0,94.2441690156,27.2389236127,22.1911796249
 Recover connectivity data from disk.
 Stoichiometry    C34H36FeN6O(5)
 Framework group  C1[X(C34H36FeN6O)]
 Deg. of freedom   228
 Full point group                 C1      NOp   1
 Largest Abelian subgroup         C1      NOp   1
 Largest concise Abelian subgroup C1      NOp   1
                         Standard orientation:                         
 ---------------------------------------------------------------------
 Center     Atomic      Atomic             Coordinates (Angstroms)
 Number     Number       Type             X           Y           Z
 ---------------------------------------------------------------------
      1         26           0        0.188226   -0.015945   -0.470087
      2          7           0        2.202070    0.186024   -0.427427
      3          7           0        0.002137    1.975595   -0.424724
      4          7           0       -1.798495   -0.213760   -0.475899
      5          7           0        0.424518   -1.997472   -0.513741
      6          6           0        3.124840   -0.810919   -0.489905
      7          6           0        4.463427   -0.270874   -0.557677
      8          6           0        4.327327    1.083957   -0.552276
      9          6           0        2.909411    1.347498   -0.480205
     10          6           0        1.005528    2.893371   -0.374758
     11          6           0        0.474346    4.223048   -0.234233
     12          6           0       -0.886062    4.091290   -0.174773
     13          6           0       -1.157022    2.672717   -0.304824
     14          6           0       -2.717185    0.789971   -0.530893
     15          6           0       -4.044977    0.260218   -0.721261
     16          6           0       -3.915381   -1.104772   -0.734531
     17          6           0       -2.492655   -1.374090   -0.596314
     18          6           0       -0.578232   -2.914654   -0.495656
     19          6           0       -0.042736   -4.255789   -0.365886
     20          6           0        1.309376   -4.124645   -0.310393
     21          6           0        1.579040   -2.705991   -0.396148
     22          6           0        2.848398   -2.166661   -0.453746
     23          1           0        3.689275   -2.844219   -0.463395
     24          6           0        2.360724    2.614691   -0.425402
     25          1           0        3.038958    3.455591   -0.411919
     26          6           0       -2.426395    2.137291   -0.415030
     27          1           0       -3.249417    2.831778   -0.450130
     28          6           0       -1.933608   -2.641047   -0.573732
     29          1           0       -2.609159   -3.483807   -0.611193
     30          6           0        5.375305    2.143325   -0.597560
     31          1           0        6.366801    1.699926   -0.637100
     32          1           0        5.321971    2.779769    0.286467
     33          1           0        5.241569    2.772743   -1.477528
     34          6           0        5.710719   -1.088749   -0.590174
     35          1           0        5.733658   -1.729503   -1.471570
     36          1           0        5.771463   -1.728845    0.290599
     37          1           0        6.591208   -0.450086   -0.609692
     38          6           0        1.282010    5.474262   -0.177510
     39          1           0        1.941352    5.544300   -1.043555
     40          1           0        1.900390    5.500010    0.719883
     41          1           0        0.630857    6.344356   -0.164580
     42          6           0       -1.853650    5.153349   -0.002115
     43          1           0       -1.629938    6.077568   -0.523677
     44          6           0       -2.935329    5.081429    0.763817
     45          1           0       -3.167536    4.192739    1.324306
     46          1           0       -3.611761    5.912176    0.869801
     47          6           0       -5.289780    1.066693   -0.861536
     48          1           0       -5.102889    2.000577   -1.388239
     49          1           0       -5.701764    1.308699    0.119659
     50          1           0       -6.038334    0.502544   -1.413841
     51          6           0       -4.943045   -2.116044   -0.853509
     52          1           0       -4.637166   -3.041223   -1.328533
     53          6           0       -6.196809   -2.029141   -0.416376
     54          1           0       -6.575574   -1.188780    0.138766
     55          1           0       -6.893077   -2.835324   -0.580690
     56          6           0       -0.869614   -5.496213   -0.322524
     57          1           0       -1.469461   -5.584358   -1.228689
     58          1           0       -1.546496   -5.473876    0.531900
     59          1           0       -0.237547   -6.378380   -0.240379
     60          6           0        2.359900   -5.176289   -0.175092
     61          1           0        3.028058   -5.188550   -1.038352
     62          1           0        1.908143   -6.161358   -0.087020
     63          1           0        2.962206   -4.987477    0.713844
     64          8           0        0.230247    0.000778   -2.781991
     65          1           0        1.153985   -0.084852   -3.017228
     66          1           0       -0.453616    0.057666   -3.347046
     67          6           0       -0.517996   -1.398839    4.881634
     68          1           0       -1.199738   -2.213007    4.657561
     69          1           0       -1.008255   -0.708742    5.567308
     70          1           0        0.361309   -1.807801    5.379098
     71          7           0        0.673447    0.392584    3.598885
     72          1           0        1.083106    0.841420    4.400828
     73          6           0       -0.136456   -0.712160    3.622439
     74          6           0        0.833205    0.756145    2.306858
     75          1           0        1.409186    1.599218    1.985795
     76          7           0        0.178442   -0.054515    1.511844
     77          6           0       -0.436471   -0.969055    2.315739
     78          1           0       -1.053358   -1.741688    1.905487
 ---------------------------------------------------------------------
 Rotational constants (GHZ):           0.0959772           0.0917270           0.0599958
 General basis read from cards:  (5D, 7F)
 There are   723 symmetry adapted cartesian basis functions of A   symmetry.
 There are   679 symmetry adapted basis functions of A   symmetry.
   679 basis functions,  1378 primitive gaussians,   723 cartesian basis functions
   160 alpha electrons      156 beta electrons
       nuclear repulsion energy      5984.7666949809 Hartrees.
 NAtoms=   78 NActive=   78 NUniq=   78 SFac= 1.00D+00 NAtFMM=   60 NAOKFM=T Big=T
 Integral buffers will be    131072 words long.
 Raffenetti 2 integral format.
 Two-electron integral symmetry is turned on.
 R6APFD:  NTU= -4 IXU= 1 FactS= 1.050
 Nuclear repulsion after empirical dispersion term =     5984.6132938095 Hartrees.
 One-electron integrals computed using PRISM.
 NBasis=   679 RedAO= T EigKep=  2.61D-04  NBF=   679
 NBsUse=   679 1.00D-06 EigRej= -1.00D+00 NBFU=   679
 ExpMin= 4.20D-02 ExpMax= 3.01D+05 ExpMxC= 2.91D+03 IAcc=3 IRadAn=         5 AccDes= 0.00D+00
 Harris functional with IExCor= 3731 and IRadAn=       5 diagonalized for initial guess.
 HarFok:  IExCor= 3731 AccDes= 0.00D+00 IRadAn=         5 IDoV= 1 UseB2=F ITyADJ=14
 ICtDFT=  3500011 ScaDFX=  1.000000  1.000000  1.000000  1.000000
 FoFCou: FMM=F IPFlag=           0 FMFlag=      100000 FMFlg1=        2001
         NFxFlg=           0 DoJE=T BraDBF=F KetDBF=T FulRan=T
         wScrn=  0.000000 ICntrl=       500 IOpCl=  0 I1Cent=   200000004 NGrid=           0
         NMat0=    1 NMatS0=      1 NMatT0=    0 NMatD0=    1 NMtDS0=    0 NMtDT0=    0
 Petite list used in FoFCou.
 Initial guess <Sx>= 0.0000 <Sy>= 0.0000 <Sz>= 2.0000 <S**2>= 6.0000 S= 2.0000
 Requested convergence on RMS density matrix=1.00D-08 within 999 cycles.
 Requested convergence on MAX density matrix=1.00D-06.
 Requested convergence on             energy=1.00D-06.
 No special actions if energy rises.
 EnCoef did   100 forward-backward iterations
 EnCoef did   100 forward-backward iterations
 EnCoef did   100 forward-backward iterations
 EnCoef did   100 forward-backward iterations
 EnCoef did     4 forward-backward iterations
 Rare condition: small coef for last iteration:  0.000D+00
 Rare condition: small coef for last iteration:  0.000D+00
 Rare condition: small coef for last iteration:  0.000D+00
 Rare condition: small coef for last iteration:  0.000D+00
 Restarting incremental Fock formation.
 Rare condition: small coef for last iteration:  0.000D+00
 Rare condition: small coef for last iteration:  0.000D+00
 Rare condition: small coef for last iteration:  0.000D+00
 Rare condition: small coef for last iteration:  0.000D+00
 Restarting incremental Fock formation.
 Rare condition: small coef for last iteration:  0.000D+00
 Rare condition: small coef for last iteration:  0.000D+00
 Rare condition: small coef for last iteration:  0.000D+00
 Rare condition: small coef for last iteration:  0.000D+00
 Rare condition: small coef for last iteration:  0.000D+00
 Rare condition: small coef for last iteration:  0.000D+00
 Rare condition: small coef for last iteration:  0.000D+00
 Rare condition: small coef for last iteration:  0.000D+00
 Restarting incremental Fock formation.
 Restarting incremental Fock formation.
 SCF Done:  E(UAPFD) =  -2983.34958817     A.U. after   81 cycles
            NFock= 81  Conv=0.48D-08     -V/T= 2.0036
 <Sx>= 0.0000 <Sy>= 0.0000 <Sz>= 2.0000 <S**2>= 6.0791 S= 2.0158
 <L.S>=  0.00000000000    
 Annihilation of the first spin contaminant:
 S**2 before annihilation     6.0791,   after     6.0019

 **********************************************************************

            Population analysis using the SCF Density.

 **********************************************************************

 Orbital symmetries:
 Alpha Orbitals:
       Occupied  (A) (A) (A) (A) (A) (A) (A) (A) (A) (A) (A) (A)
                 (A) (A) (A) (A) (A) (A) (A) (A) (A) (A) (A) (A)
                 (A) (A) (A) (A) (A) (A) (A) (A) (A) (A) (A) (A)
                 (A) (A) (A) (A) (A) (A) (A) (A) (A) (A) (A) (A)
                 (A) (A) (A) (A) (A) (A) (A) (A) (A) (A) (A) (A)
                 (A) (A) (A) (A) (A) (A) (A) (A) (A) (A) (A) (A)
                 (A) (A) (A) (A) (A) (A) (A) (A) (A) (A) (A) (A)
                 (A) (A) (A) (A) (A) (A) (A) (A) (A) (A) (A) (A)
                 (A) (A) (A) (A) (A) (A) (A) (A) (A) (A) (A) (A)
                 (A) (A) (A) (A) (A) (A) (A) (A) (A) (A) (A) (A)
                 (A) (A) (A) (A) (A) (A) (A) (A) (A) (A) (A) (A)
                 (A) (A) (A) (A) (A) (A) (A) (A) (A) (A) (A) (A)
                 (A) (A) (A) (A) (A) (A) (A) (A) (A) (A) (A) (A)
                 (A) (A) (A) (A)
       Virtual   (A) (A) (A) (A) (A) (A) (A) (A) (A) (A) (A) (A)
                 (A) (A) (A) (A) (A) (A) (A) (A) (A) (A) (A) (A)
                 (A) (A) (A) (A) (A) (A) (A) (A) (A) (A) (A) (A)
                 (A) (A) (A) (A) (A) (A) (A) (A) (A) (A) (A) (A)
                 (A) (A) (A) (A) (A) (A) (A) (A) (A) (A) (A) (A)
                 (A) (A) (A) (A) (A) (A) (A) (A) (A) (A) (A) (A)
                 (A) (A) (A) (A) (A) (A) (A) (A) (A) (A) (A) (A)
                 (A) (A) (A) (A) (A) (A) (A) (A) (A) (A) (A) (A)
                 (A) (A) (A) (A) (A) (A) (A) (A) (A) (A) (A) (A)
                 (A) (A) (A) (A) (A) (A) (A) (A) (A) (A) (A) (A)
                 (A) (A) (A) (A) (A) (A) (A) (A) (A) (A) (A) (A)
                 (A) (A) (A) (A) (A) (A) (A) (A) (A) (A) (A) (A)
                 (A) (A) (A) (A) (A) (A) (A) (A) (A) (A) (A) (A)
                 (A) (A) (A) (A) (A) (A) (A) (A) (A) (A) (A) (A)
                 (A) (A) (A) (A) (A) (A) (A) (A) (A) (A) (A) (A)
                 (A) (A) (A) (A) (A) (A) (A) (A) (A) (A) (A) (A)
                 (A) (A) (A) (A) (A) (A) (A) (A) (A) (A) (A) (A)
                 (A) (A) (A) (A) (A) (A) (A) (A) (A) (A) (A) (A)
                 (A) (A) (A) (A) (A) (A) (A) (A) (A) (A) (A) (A)
                 (A) (A) (A) (A) (A) (A) (A) (A) (A) (A) (A) (A)
                 (A) (A) (A) (A) (A) (A) (A) (A) (A) (A) (A) (A)
                 (A) (A) (A) (A) (A) (A) (A) (A) (A) (A) (A) (A)
                 (A) (A) (A) (A) (A) (A) (A) (A) (A) (A) (A) (A)
                 (A) (A) (A) (A) (A) (A) (A) (A) (A) (A) (A) (A)
                 (A) (A) (A) (A) (A) (A) (A) (A) (A) (A) (A) (A)
                 (A) (A) (A) (A) (A) (A) (A) (A) (A) (A) (A) (A)
                 (A) (A) (A) (A) (A) (A) (A) (A) (A) (A) (A) (A)
                 (A) (A) (A) (A) (A) (A) (A) (A) (A) (A) (A) (A)
                 (A) (A) (A) (A) (A) (A) (A) (A) (A) (A) (A) (A)
                 (A) (A) (A) (A) (A) (A) (A) (A) (A) (A) (A) (A)
                 (A) (A) (A) (A) (A) (A) (A) (A) (A) (A) (A) (A)
                 (A) (A) (A) (A) (A) (A) (A) (A) (A) (A) (A) (A)
                 (A) (A) (A) (A) (A) (A) (A) (A) (A) (A) (A) (A)
                 (A) (A) (A) (A) (A) (A) (A) (A) (A) (A) (A) (A)
                 (A) (A) (A) (A) (A) (A) (A) (A) (A) (A) (A) (A)
                 (A) (A) (A) (A) (A) (A) (A) (A) (A) (A) (A) (A)
                 (A) (A) (A) (A) (A) (A) (A) (A) (A) (A) (A) (A)
                 (A) (A) (A) (A) (A) (A) (A) (A) (A) (A) (A) (A)
                 (A) (A) (A) (A) (A) (A) (A) (A) (A) (A) (A) (A)
                 (A) (A) (A) (A) (A) (A) (A) (A) (A) (A) (A) (A)
                 (A) (A) (A) (A) (A) (A) (A) (A) (A) (A) (A) (A)
                 (A) (A) (A) (A) (A) (A) (A) (A) (A) (A) (A) (A)
                 (A) (A) (A) (A) (A) (A) (A) (A) (A) (A) (A) (A)
                 (A) (A) (A)
 Beta  Orbitals:
       Occupied  (A) (A) (A) (A) (A) (A) (A) (A) (A) (A) (A) (A)
                 (A) (A) (A) (A) (A) (A) (A) (A) (A) (A) (A) (A)
                 (A) (A) (A) (A) (A) (A) (A) (A) (A) (A) (A) (A)
                 (A) (A) (A) (A) (A) (A) (A) (A) (A) (A) (A) (A)
                 (A) (A) (A) (A) (A) (A) (A) (A) (A) (A) (A) (A)
                 (A) (A) (A) (A) (A) (A) (A) (A) (A) (A) (A) (A)
                 (A) (A) (A) (A) (A) (A) (A) (A) (A) (A) (A) (A)
                 (A) (A) (A) (A) (A) (A) (A) (A) (A) (A) (A) (A)
                 (A) (A) (A) (A) (A) (A) (A) (A) (A) (A) (A) (A)
                 (A) (A) (A) (A) (A) (A) (A) (A) (A) (A) (A) (A)
                 (A) (A) (A) (A) (A) (A) (A) (A) (A) (A) (A) (A)
                 (A) (A) (A) (A) (A) (A) (A) (A) (A) (A) (A) (A)
                 (A) (A) (A) (A) (A) (A) (A) (A) (A) (A) (A) (A)
       Virtual   (A) (A) (A) (A) (A) (A) (A) (A) (A) (A) (A) (A)
                 (A) (A) (A) (A) (A) (A) (A) (A) (A) (A) (A) (A)
                 (A) (A) (A) (A) (A) (A) (A) (A) (A) (A) (A) (A)
                 (A) (A) (A) (A) (A) (A) (A) (A) (A) (A) (A) (A)
                 (A) (A) (A) (A) (A) (A) (A) (A) (A) (A) (A) (A)
                 (A) (A) (A) (A) (A) (A) (A) (A) (A) (A) (A) (A)
                 (A) (A) (A) (A) (A) (A) (A) (A) (A) (A) (A) (A)
                 (A) (A) (A) (A) (A) (A) (A) (A) (A) (A) (A) (A)
                 (A) (A) (A) (A) (A) (A) (A) (A) (A) (A) (A) (A)
                 (A) (A) (A) (A) (A) (A) (A) (A) (A) (A) (A) (A)
                 (A) (A) (A) (A) (A) (A) (A) (A) (A) (A) (A) (A)
                 (A) (A) (A) (A) (A) (A) (A) (A) (A) (A) (A) (A)
                 (A) (A) (A) (A) (A) (A) (A) (A) (A) (A) (A) (A)
                 (A) (A) (A) (A) (A) (A) (A) (A) (A) (A) (A) (A)
                 (A) (A) (A) (A) (A) (A) (A) (A) (A) (A) (A) (A)
                 (A) (A) (A) (A) (A) (A) (A) (A) (A) (A) (A) (A)
                 (A) (A) (A) (A) (A) (A) (A) (A) (A) (A) (A) (A)
                 (A) (A) (A) (A) (A) (A) (A) (A) (A) (A) (A) (A)
                 (A) (A) (A) (A) (A) (A) (A) (A) (A) (A) (A) (A)
                 (A) (A) (A) (A) (A) (A) (A) (A) (A) (A) (A) (A)
                 (A) (A) (A) (A) (A) (A) (A) (A) (A) (A) (A) (A)
                 (A) (A) (A) (A) (A) (A) (A) (A) (A) (A) (A) (A)
                 (A) (A) (A) (A) (A) (A) (A) (A) (A) (A) (A) (A)
                 (A) (A) (A) (A) (A) (A) (A) (A) (A) (A) (A) (A)
                 (A) (A) (A) (A) (A) (A) (A) (A) (A) (A) (A) (A)
                 (A) (A) (A) (A) (A) (A) (A) (A) (A) (A) (A) (A)
                 (A) (A) (A) (A) (A) (A) (A) (A) (A) (A) (A) (A)
                 (A) (A) (A) (A) (A) (A) (A) (A) (A) (A) (A) (A)
                 (A) (A) (A) (A) (A) (A) (A) (A) (A) (A) (A) (A)
                 (A) (A) (A) (A) (A) (A) (A) (A) (A) (A) (A) (A)
                 (A) (A) (A) (A) (A) (A) (A) (A) (A) (A) (A) (A)
                 (A) (A) (A) (A) (A) (A) (A) (A) (A) (A) (A) (A)
                 (A) (A) (A) (A) (A) (A) (A) (A) (A) (A) (A) (A)
                 (A) (A) (A) (A) (A) (A) (A) (A) (A) (A) (A) (A)
                 (A) (A) (A) (A) (A) (A) (A) (A) (A) (A) (A) (A)
                 (A) (A) (A) (A) (A) (A) (A) (A) (A) (A) (A) (A)
                 (A) (A) (A) (A) (A) (A) (A) (A) (A) (A) (A) (A)
                 (A) (A) (A) (A) (A) (A) (A) (A) (A) (A) (A) (A)
                 (A) (A) (A) (A) (A) (A) (A) (A) (A) (A) (A) (A)
                 (A) (A) (A) (A) (A) (A) (A) (A) (A) (A) (A) (A)
                 (A) (A) (A) (A) (A) (A) (A) (A) (A) (A) (A) (A)
                 (A) (A) (A) (A) (A) (A) (A) (A) (A) (A) (A) (A)
                 (A) (A) (A) (A) (A) (A) (A) (A) (A) (A) (A) (A)
                 (A) (A) (A) (A) (A) (A) (A)
 The electronic state is 5-A.
 Alpha  occ. eigenvalues -- -256.26427 -30.15482 -26.00254 -25.97982 -25.97956
 Alpha  occ. eigenvalues --  -19.18686 -14.43604 -14.37703 -14.34849 -14.34785
 Alpha  occ. eigenvalues --  -14.34645 -14.34543 -10.27049 -10.24832 -10.21926
 Alpha  occ. eigenvalues --  -10.21692 -10.21352 -10.21137 -10.21033 -10.21003
 Alpha  occ. eigenvalues --  -10.20845 -10.20448 -10.20412 -10.20356 -10.19776
 Alpha  occ. eigenvalues --  -10.19072 -10.18817 -10.18711 -10.18664 -10.18643
 Alpha  occ. eigenvalues --  -10.18640 -10.18616 -10.18491 -10.18482 -10.18451
 Alpha  occ. eigenvalues --  -10.18319 -10.18311 -10.18263 -10.18238 -10.18198
 Alpha  occ. eigenvalues --  -10.18173 -10.18021 -10.17984 -10.17686 -10.16740
 Alpha  occ. eigenvalues --  -10.16573  -3.57981  -2.38331  -2.32374  -2.32335
 Alpha  occ. eigenvalues --   -1.06072  -1.05358  -0.96669  -0.95672  -0.95625
 Alpha  occ. eigenvalues --   -0.94694  -0.91771  -0.81396  -0.81043  -0.80685
 Alpha  occ. eigenvalues --   -0.80587  -0.80085  -0.79776  -0.78775  -0.78544
 Alpha  occ. eigenvalues --   -0.76078  -0.74861  -0.73475  -0.72835  -0.72433
 Alpha  occ. eigenvalues --   -0.72262  -0.70062  -0.69356  -0.67751  -0.67394
 Alpha  occ. eigenvalues --   -0.67175  -0.65414  -0.63384  -0.63116  -0.61761
 Alpha  occ. eigenvalues --   -0.61097  -0.60039  -0.59370  -0.56571  -0.56387
 Alpha  occ. eigenvalues --   -0.55975  -0.53600  -0.53409  -0.52619  -0.51679
 Alpha  occ. eigenvalues --   -0.50525  -0.50017  -0.49575  -0.48519  -0.48034
 Alpha  occ. eigenvalues --   -0.47737  -0.47075  -0.46585  -0.45360  -0.44880
 Alpha  occ. eigenvalues --   -0.44504  -0.44064  -0.43769  -0.43392  -0.43365
 Alpha  occ. eigenvalues --   -0.43279  -0.42796  -0.42680  -0.42573  -0.42245
 Alpha  occ. eigenvalues --   -0.42024  -0.41766  -0.41596  -0.41241  -0.40862
 Alpha  occ. eigenvalues --   -0.40753  -0.40681  -0.40170  -0.39951  -0.39706
 Alpha  occ. eigenvalues --   -0.39487  -0.39393  -0.39335  -0.38791  -0.38143
 Alpha  occ. eigenvalues --   -0.37878  -0.37411  -0.37349  -0.37325  -0.36892
 Alpha  occ. eigenvalues --   -0.36795  -0.36254  -0.36089  -0.35977  -0.35809
 Alpha  occ. eigenvalues --   -0.35561  -0.34909  -0.33768  -0.33401  -0.32899
 Alpha  occ. eigenvalues --   -0.32832  -0.32150  -0.31282  -0.30956  -0.30787
 Alpha  occ. eigenvalues --   -0.29705  -0.29216  -0.28326  -0.28006  -0.25975
 Alpha  occ. eigenvalues --   -0.25593  -0.24035  -0.23702  -0.22191  -0.21963
 Alpha  occ. eigenvalues --   -0.21279  -0.20997  -0.17932  -0.17467  -0.09353
 Alpha virt. eigenvalues --   -0.06802  -0.05246  -0.01058   0.01899   0.02210
 Alpha virt. eigenvalues --    0.03853   0.05933   0.06546   0.06883   0.07563
 Alpha virt. eigenvalues --    0.09195   0.09840   0.10589   0.11392   0.11560
 Alpha virt. eigenvalues --    0.12175   0.12403   0.12922   0.13544   0.14256
 Alpha virt. eigenvalues --    0.14608   0.14790   0.15269   0.15554   0.15851
 Alpha virt. eigenvalues --    0.15951   0.16271   0.16564   0.16832   0.17106
 Alpha virt. eigenvalues --    0.17332   0.17873   0.17910   0.18161   0.18248
 Alpha virt. eigenvalues --    0.18331   0.18773   0.18950   0.19477   0.19494
 Alpha virt. eigenvalues --    0.19751   0.19953   0.20345   0.20561   0.20899
 Alpha virt. eigenvalues --    0.21649   0.22015   0.22147   0.22432   0.22681
 Alpha virt. eigenvalues --    0.23234   0.23461   0.23827   0.24211   0.24961
 Alpha virt. eigenvalues --    0.25646   0.25954   0.26293   0.27012   0.27157
 Alpha virt. eigenvalues --    0.27605   0.27931   0.28280   0.28343   0.29282
 Alpha virt. eigenvalues --    0.30530   0.30918   0.31777   0.32469   0.33003
 Alpha virt. eigenvalues --    0.33752   0.34041   0.35098   0.35470   0.36446
 Alpha virt. eigenvalues --    0.36800   0.37085   0.37715   0.37884   0.39156
 Alpha virt. eigenvalues --    0.40139   0.41135   0.42043   0.42607   0.43808
 Alpha virt. eigenvalues --    0.44525   0.44837   0.45474   0.45686   0.47372
 Alpha virt. eigenvalues --    0.48076   0.48713   0.49025   0.49639   0.49773
 Alpha virt. eigenvalues --    0.50356   0.50871   0.51294   0.52144   0.52449
 Alpha virt. eigenvalues --    0.52770   0.53106   0.53284   0.53519   0.53896
 Alpha virt. eigenvalues --    0.54051   0.54231   0.54562   0.55413   0.55853
 Alpha virt. eigenvalues --    0.56266   0.56448   0.56886   0.57249   0.57832
 Alpha virt. eigenvalues --    0.58351   0.59217   0.59397   0.59484   0.60062
 Alpha virt. eigenvalues --    0.60942   0.61475   0.61702   0.61759   0.62196
 Alpha virt. eigenvalues --    0.62807   0.63036   0.63785   0.64162   0.64440
 Alpha virt. eigenvalues --    0.64749   0.65258   0.65588   0.66066   0.66259
 Alpha virt. eigenvalues --    0.66510   0.66973   0.67008   0.67528   0.67768
 Alpha virt. eigenvalues --    0.67878   0.68189   0.68893   0.69094   0.69576
 Alpha virt. eigenvalues --    0.70261   0.70350   0.71423   0.71883   0.72367
 Alpha virt. eigenvalues --    0.72383   0.72989   0.73732   0.73939   0.74448
 Alpha virt. eigenvalues --    0.74915   0.75256   0.75734   0.76268   0.77170
 Alpha virt. eigenvalues --    0.77610   0.77852   0.78037   0.78643   0.78951
 Alpha virt. eigenvalues --    0.79030   0.79597   0.79832   0.80272   0.80527
 Alpha virt. eigenvalues --    0.80950   0.81325   0.81731   0.82513   0.83087
 Alpha virt. eigenvalues --    0.83726   0.84674   0.85003   0.85762   0.86023
 Alpha virt. eigenvalues --    0.86672   0.87159   0.87439   0.87853   0.88038
 Alpha virt. eigenvalues --    0.88615   0.88916   0.89071   0.89085   0.89804
 Alpha virt. eigenvalues --    0.90030   0.90347   0.90603   0.90770   0.90873
 Alpha virt. eigenvalues --    0.91032   0.92076   0.92564   0.92758   0.92885
 Alpha virt. eigenvalues --    0.93360   0.93726   0.94196   0.94528   0.94733
 Alpha virt. eigenvalues --    0.94904   0.95810   0.96153   0.96623   0.97128
 Alpha virt. eigenvalues --    0.97191   0.97909   0.98310   0.98587   0.99041
 Alpha virt. eigenvalues --    0.99534   1.00064   1.00261   1.00687   1.00913
 Alpha virt. eigenvalues --    1.01151   1.01622   1.01828   1.02360   1.02729
 Alpha virt. eigenvalues --    1.03015   1.04413   1.04564   1.05183   1.05415
 Alpha virt. eigenvalues --    1.05980   1.06883   1.07596   1.07795   1.08534
 Alpha virt. eigenvalues --    1.09092   1.10268   1.10591   1.10902   1.12246
 Alpha virt. eigenvalues --    1.12456   1.14482   1.15055   1.15253   1.16418
 Alpha virt. eigenvalues --    1.16663   1.17978   1.18133   1.18708   1.19149
 Alpha virt. eigenvalues --    1.19504   1.19626   1.20629   1.21105   1.21770
 Alpha virt. eigenvalues --    1.21906   1.22216   1.22738   1.23642   1.23745
 Alpha virt. eigenvalues --    1.24648   1.25289   1.26036   1.27318   1.28283
 Alpha virt. eigenvalues --    1.28435   1.29286   1.29501   1.31172   1.31618
 Alpha virt. eigenvalues --    1.31815   1.32047   1.33890   1.34534   1.35137
 Alpha virt. eigenvalues --    1.35326   1.36176   1.37154   1.38014   1.38186
 Alpha virt. eigenvalues --    1.38687   1.39093   1.39350   1.39992   1.40088
 Alpha virt. eigenvalues --    1.40191   1.40727   1.41688   1.42002   1.43912
 Alpha virt. eigenvalues --    1.44949   1.45469   1.45797   1.46820   1.47261
 Alpha virt. eigenvalues --    1.47589   1.49061   1.49709   1.50213   1.50413
 Alpha virt. eigenvalues --    1.51243   1.51890   1.52624   1.53869   1.54532
 Alpha virt. eigenvalues --    1.54787   1.54995   1.55968   1.56627   1.56804
 Alpha virt. eigenvalues --    1.58388   1.59224   1.59695   1.61072   1.61923
 Alpha virt. eigenvalues --    1.63058   1.64348   1.65044   1.66193   1.66754
 Alpha virt. eigenvalues --    1.67484   1.68530   1.69195   1.70201   1.71148
 Alpha virt. eigenvalues --    1.71587   1.72793   1.73498   1.74622   1.76086
 Alpha virt. eigenvalues --    1.76900   1.80165   1.80402   1.81211   1.81925
 Alpha virt. eigenvalues --    1.82081   1.82446   1.82993   1.83067   1.83883
 Alpha virt. eigenvalues --    1.84086   1.84364   1.85290   1.85719   1.85999
 Alpha virt. eigenvalues --    1.87201   1.87598   1.88340   1.88611   1.89173
 Alpha virt. eigenvalues --    1.89247   1.89545   1.90551   1.91977   1.92629
 Alpha virt. eigenvalues --    1.93091   1.93693   1.94142   1.94780   1.95531
 Alpha virt. eigenvalues --    1.96088   1.96732   1.97120   1.97701   1.98207
 Alpha virt. eigenvalues --    1.98991   1.99807   2.00111   2.01023   2.01327
 Alpha virt. eigenvalues --    2.01593   2.02099   2.03522   2.05108   2.05461
 Alpha virt. eigenvalues --    2.05823   2.06099   2.06349   2.07233   2.07673
 Alpha virt. eigenvalues --    2.08164   2.08352   2.09989   2.10491   2.10963
 Alpha virt. eigenvalues --    2.12096   2.12791   2.13763   2.14447   2.15002
 Alpha virt. eigenvalues --    2.15126   2.16664   2.17177   2.17288   2.18400
 Alpha virt. eigenvalues --    2.19983   2.20829   2.21359   2.21988   2.22999
 Alpha virt. eigenvalues --    2.23612   2.23672   2.24508   2.25351   2.25664
 Alpha virt. eigenvalues --    2.26044   2.26566   2.27120   2.27561   2.27687
 Alpha virt. eigenvalues --    2.28409   2.29391   2.29883   2.29925   2.30571
 Alpha virt. eigenvalues --    2.30608   2.31297   2.31606   2.32111   2.32843
 Alpha virt. eigenvalues --    2.33850   2.34794   2.35132   2.36181   2.36485
 Alpha virt. eigenvalues --    2.36708   2.37140   2.37481   2.38262   2.38805
 Alpha virt. eigenvalues --    2.38972   2.39131   2.40503   2.41092   2.41899
 Alpha virt. eigenvalues --    2.42356   2.43027   2.43270   2.43687   2.44220
 Alpha virt. eigenvalues --    2.44620   2.45037   2.46032   2.46845   2.48054
 Alpha virt. eigenvalues --    2.48702   2.50300   2.51108   2.52269   2.53895
 Alpha virt. eigenvalues --    2.54264   2.54396   2.54808   2.55400   2.55944
 Alpha virt. eigenvalues --    2.56574   2.57108   2.58435   2.58725   2.59297
 Alpha virt. eigenvalues --    2.60161   2.61237   2.61803   2.62363   2.63685
 Alpha virt. eigenvalues --    2.65295   2.66787   2.67930   2.69857   2.70376
 Alpha virt. eigenvalues --    2.71274   2.72436   2.73626   2.73794   2.76111
 Alpha virt. eigenvalues --    2.76362   2.78089   2.78836   2.80304   2.81310
 Alpha virt. eigenvalues --    2.81974   2.83568   2.88431   2.89337   2.89821
 Alpha virt. eigenvalues --    2.91205   2.93002   2.94388   2.94847   2.97520
 Alpha virt. eigenvalues --    2.98510   2.98686   3.00893   3.01509   3.02318
 Alpha virt. eigenvalues --    3.02657   3.04646   3.05860   3.07646   3.08606
 Alpha virt. eigenvalues --    3.14576   3.15621   3.16052   3.20485   3.24686
 Alpha virt. eigenvalues --    3.27346   3.30576   3.31950   3.40589   3.41063
 Alpha virt. eigenvalues --    3.42436   3.48530   3.48606   3.57904   3.62895
 Alpha virt. eigenvalues --    3.80474   3.87050   4.12059   4.23844
  Beta  occ. eigenvalues -- -256.26317 -30.09169 -25.93793 -25.93694 -25.92883
  Beta  occ. eigenvalues --  -19.18555 -14.43589 -14.37397 -14.34865 -14.34799
  Beta  occ. eigenvalues --  -14.34619 -14.34557 -10.27027 -10.24822 -10.21918
  Beta  occ. eigenvalues --  -10.21690 -10.21424 -10.21219 -10.21102 -10.21076
  Beta  occ. eigenvalues --  -10.20673 -10.20273 -10.20184 -10.20136 -10.19768
  Beta  occ. eigenvalues --  -10.19123 -10.18849 -10.18726 -10.18700 -10.18689
  Beta  occ. eigenvalues --  -10.18677 -10.18632 -10.18504 -10.18497 -10.18333
  Beta  occ. eigenvalues --  -10.18325 -10.18325 -10.18282 -10.18270 -10.18078
  Beta  occ. eigenvalues --  -10.18066 -10.18019 -10.17817 -10.17592 -10.16381
  Beta  occ. eigenvalues --  -10.16211  -3.42929  -2.19498  -2.19298  -2.16075
  Beta  occ. eigenvalues --   -1.05907  -1.05142  -0.96506  -0.95522  -0.95457
  Beta  occ. eigenvalues --   -0.94530  -0.91455  -0.81266  -0.80834  -0.80620
  Beta  occ. eigenvalues --   -0.80474  -0.79956  -0.79659  -0.78653  -0.78179
  Beta  occ. eigenvalues --   -0.75934  -0.74790  -0.73304  -0.72584  -0.72347
  Beta  occ. eigenvalues --   -0.72175  -0.69931  -0.69278  -0.67692  -0.67320
  Beta  occ. eigenvalues --   -0.67039  -0.65133  -0.63397  -0.62623  -0.61663
  Beta  occ. eigenvalues --   -0.60961  -0.59990  -0.59245  -0.56420  -0.56224
  Beta  occ. eigenvalues --   -0.55775  -0.53435  -0.53327  -0.52542  -0.51489
  Beta  occ. eigenvalues --   -0.50447  -0.49945  -0.49480  -0.48155  -0.47808
  Beta  occ. eigenvalues --   -0.47555  -0.47001  -0.46374  -0.45283  -0.44376
  Beta  occ. eigenvalues --   -0.43752  -0.43517  -0.43380  -0.43202  -0.42919
  Beta  occ. eigenvalues --   -0.42761  -0.42608  -0.42508  -0.42143  -0.41854
  Beta  occ. eigenvalues --   -0.41803  -0.41647  -0.41206  -0.40816  -0.40768
  Beta  occ. eigenvalues --   -0.40610  -0.40593  -0.39592  -0.39322  -0.39301
  Beta  occ. eigenvalues --   -0.38770  -0.38645  -0.38319  -0.38080  -0.37853
  Beta  occ. eigenvalues --   -0.37262  -0.37103  -0.36840  -0.36349  -0.36218
  Beta  occ. eigenvalues --   -0.35958  -0.35751  -0.35496  -0.34654  -0.34257
  Beta  occ. eigenvalues --   -0.33645  -0.33328  -0.32982  -0.32707  -0.31774
  Beta  occ. eigenvalues --   -0.31239  -0.30098  -0.29748  -0.29333  -0.28100
  Beta  occ. eigenvalues --   -0.27786  -0.25345  -0.24624  -0.24267  -0.24047
  Beta  occ. eigenvalues --   -0.22241  -0.22057  -0.21176  -0.20712  -0.16755
  Beta  occ. eigenvalues --   -0.16204
  Beta virt. eigenvalues --   -0.07650  -0.06869  -0.03722  -0.02961  -0.00935
  Beta virt. eigenvalues --    0.00100   0.01609   0.02370   0.02851   0.04500
  Beta virt. eigenvalues --    0.06525   0.07059   0.07588   0.07666   0.10141
  Beta virt. eigenvalues --    0.10530   0.10632   0.11469   0.12063   0.12213
  Beta virt. eigenvalues --    0.12503   0.12971   0.13604   0.14427   0.14712
  Beta virt. eigenvalues --    0.14958   0.15388   0.15983   0.16256   0.16454
  Beta virt. eigenvalues --    0.16689   0.16757   0.16878   0.17186   0.17504
  Beta virt. eigenvalues --    0.17887   0.18193   0.18240   0.18363   0.18508
  Beta virt. eigenvalues --    0.18954   0.19239   0.19580   0.19637   0.20024
  Beta virt. eigenvalues --    0.20147   0.20559   0.20712   0.21067   0.21815
  Beta virt. eigenvalues --    0.22125   0.22231   0.22574   0.22824   0.23339
  Beta virt. eigenvalues --    0.23686   0.23919   0.24442   0.25058   0.25802
  Beta virt. eigenvalues --    0.26166   0.26444   0.27110   0.27307   0.27782
  Beta virt. eigenvalues --    0.28064   0.28394   0.28516   0.30670   0.31086
  Beta virt. eigenvalues --    0.31490   0.32038   0.32678   0.33314   0.34013
  Beta virt. eigenvalues --    0.34424   0.35332   0.35633   0.36654   0.36993
  Beta virt. eigenvalues --    0.37341   0.37895   0.37936   0.39362   0.40750
  Beta virt. eigenvalues --    0.41502   0.42364   0.42907   0.44437   0.44644
  Beta virt. eigenvalues --    0.45032   0.45721   0.45948   0.48162   0.48413
  Beta virt. eigenvalues --    0.48956   0.49219   0.49881   0.50046   0.50490
  Beta virt. eigenvalues --    0.51158   0.51596   0.52374   0.52921   0.53039
  Beta virt. eigenvalues --    0.53324   0.53519   0.53692   0.54010   0.54215
  Beta virt. eigenvalues --    0.54377   0.54682   0.55551   0.56066   0.56536
  Beta virt. eigenvalues --    0.56743   0.57145   0.57555   0.58188   0.58562
  Beta virt. eigenvalues --    0.59349   0.59679   0.59803   0.60381   0.61282
  Beta virt. eigenvalues --    0.61735   0.61888   0.61953   0.62292   0.63198
  Beta virt. eigenvalues --    0.63342   0.64055   0.64399   0.64820   0.64985
  Beta virt. eigenvalues --    0.65752   0.65911   0.66335   0.66575   0.66619
  Beta virt. eigenvalues --    0.67169   0.67406   0.67723   0.68002   0.68255
  Beta virt. eigenvalues --    0.68424   0.69224   0.69425   0.69959   0.70409
  Beta virt. eigenvalues --    0.70639   0.71657   0.72219   0.72586   0.72695
  Beta virt. eigenvalues --    0.73206   0.74136   0.74226   0.74901   0.75148
  Beta virt. eigenvalues --    0.75436   0.75963   0.76403   0.77384   0.77892
  Beta virt. eigenvalues --    0.78152   0.78359   0.78850   0.79074   0.79316
  Beta virt. eigenvalues --    0.79752   0.80355   0.80404   0.80877   0.81196
  Beta virt. eigenvalues --    0.81917   0.82102   0.82670   0.83443   0.83990
  Beta virt. eigenvalues --    0.84933   0.85256   0.85883   0.86228   0.86850
  Beta virt. eigenvalues --    0.87303   0.87565   0.87951   0.88158   0.88678
  Beta virt. eigenvalues --    0.89093   0.89154   0.89185   0.90033   0.90168
  Beta virt. eigenvalues --    0.90418   0.90717   0.90867   0.90991   0.91203
  Beta virt. eigenvalues --    0.92307   0.92642   0.92967   0.93002   0.93453
  Beta virt. eigenvalues --    0.93855   0.94378   0.94719   0.94882   0.95081
  Beta virt. eigenvalues --    0.95911   0.96292   0.96741   0.97367   0.97978
  Beta virt. eigenvalues --    0.98132   0.98452   0.99158   0.99212   0.99733
  Beta virt. eigenvalues --    1.00252   1.00486   1.00879   1.01211   1.01362
  Beta virt. eigenvalues --    1.01758   1.02052   1.02483   1.02958   1.03139
  Beta virt. eigenvalues --    1.04624   1.04799   1.05431   1.05822   1.06312
  Beta virt. eigenvalues --    1.07183   1.07833   1.08193   1.08720   1.09362
  Beta virt. eigenvalues --    1.10607   1.10903   1.11574   1.12518   1.12873
  Beta virt. eigenvalues --    1.14857   1.15359   1.15624   1.16720   1.17289
  Beta virt. eigenvalues --    1.18171   1.18327   1.18935   1.19364   1.19793
  Beta virt. eigenvalues --    1.20181   1.21194   1.21326   1.22050   1.22102
  Beta virt. eigenvalues --    1.22395   1.22973   1.23869   1.23905   1.24819
  Beta virt. eigenvalues --    1.26022   1.26584   1.27572   1.28659   1.28805
  Beta virt. eigenvalues --    1.29556   1.29769   1.31328   1.31955   1.32039
  Beta virt. eigenvalues --    1.32237   1.34157   1.34720   1.35404   1.35703
  Beta virt. eigenvalues --    1.36491   1.37356   1.38181   1.38413   1.38925
  Beta virt. eigenvalues --    1.39309   1.39516   1.40310   1.40372   1.40546
  Beta virt. eigenvalues --    1.40901   1.41956   1.42659   1.44282   1.45154
  Beta virt. eigenvalues --    1.45835   1.46023   1.47181   1.47412   1.47945
  Beta virt. eigenvalues --    1.49229   1.50015   1.50494   1.50731   1.51737
  Beta virt. eigenvalues --    1.52222   1.52785   1.54110   1.54772   1.54960
  Beta virt. eigenvalues --    1.55226   1.56136   1.56770   1.57038   1.58603
  Beta virt. eigenvalues --    1.59377   1.59943   1.61288   1.62437   1.63586
  Beta virt. eigenvalues --    1.64760   1.65262   1.66372   1.67046   1.67777
  Beta virt. eigenvalues --    1.69033   1.69359   1.70370   1.71437   1.71890
  Beta virt. eigenvalues --    1.73046   1.73923   1.74895   1.76402   1.77201
  Beta virt. eigenvalues --    1.80289   1.80574   1.81388   1.82104   1.82411
  Beta virt. eigenvalues --    1.82587   1.83127   1.83206   1.84010   1.84195
  Beta virt. eigenvalues --    1.84573   1.85458   1.85922   1.86480   1.87351
  Beta virt. eigenvalues --    1.87816   1.88475   1.88808   1.89269   1.89335
  Beta virt. eigenvalues --    1.89676   1.90858   1.92165   1.92943   1.93234
  Beta virt. eigenvalues --    1.94055   1.94549   1.95106   1.96037   1.96837
  Beta virt. eigenvalues --    1.97167   1.97464   1.98049   1.98569   1.99894
  Beta virt. eigenvalues --    2.00166   2.00452   2.01296   2.01563   2.02069
  Beta virt. eigenvalues --    2.02504   2.03785   2.05406   2.05776   2.06059
  Beta virt. eigenvalues --    2.06349   2.06677   2.07508   2.07985   2.08379
  Beta virt. eigenvalues --    2.08766   2.10324   2.10867   2.11414   2.12258
  Beta virt. eigenvalues --    2.13059   2.13980   2.14617   2.15081   2.15447
  Beta virt. eigenvalues --    2.16817   2.17404   2.17459   2.19593   2.20148
  Beta virt. eigenvalues --    2.21167   2.21655   2.22172   2.23126   2.23834
  Beta virt. eigenvalues --    2.23931   2.24898   2.25513   2.26114   2.26232
  Beta virt. eigenvalues --    2.26884   2.27335   2.27776   2.27819   2.28741
  Beta virt. eigenvalues --    2.29868   2.30045   2.30202   2.30879   2.31500
  Beta virt. eigenvalues --    2.31739   2.31823   2.32737   2.33122   2.34078
  Beta virt. eigenvalues --    2.35139   2.35356   2.36424   2.36899   2.37257
  Beta virt. eigenvalues --    2.37610   2.38171   2.38519   2.38947   2.39209
  Beta virt. eigenvalues --    2.39719   2.40710   2.41520   2.42310   2.42719
  Beta virt. eigenvalues --    2.43164   2.43548   2.43927   2.44414   2.45048
  Beta virt. eigenvalues --    2.45412   2.46669   2.47813   2.48413   2.49060
  Beta virt. eigenvalues --    2.50676   2.51791   2.52928   2.54117   2.54627
  Beta virt. eigenvalues --    2.54900   2.55175   2.56148   2.56619   2.56813
  Beta virt. eigenvalues --    2.57318   2.58677   2.58998   2.59528   2.60440
  Beta virt. eigenvalues --    2.61546   2.62187   2.62807   2.63989   2.65554
  Beta virt. eigenvalues --    2.66973   2.68204   2.70212   2.70824   2.71877
  Beta virt. eigenvalues --    2.72964   2.73910   2.73966   2.76245   2.76730
  Beta virt. eigenvalues --    2.78358   2.78949   2.80434   2.81604   2.82084
  Beta virt. eigenvalues --    2.83702   2.88653   2.89439   2.90026   2.91552
  Beta virt. eigenvalues --    2.93176   2.94611   2.95127   2.97615   2.98605
  Beta virt. eigenvalues --    2.98802   3.00942   3.01612   3.02578   3.03045
  Beta virt. eigenvalues --    3.05196   3.05962   3.07835   3.08913   3.14681
  Beta virt. eigenvalues --    3.15683   3.16165   3.20541   3.24832   3.27694
  Beta virt. eigenvalues --    3.30677   3.32046   3.40647   3.41132   3.42726
  Beta virt. eigenvalues --    3.48627   3.48769   3.68750   3.73453   3.89488
  Beta virt. eigenvalues --    3.91317   4.17958   4.29574
          Condensed to atoms (all electrons):
          Atomic-Atomic Spin Densities.
 Mulliken charges and spin densities:
               1          2
     1  Fe   0.975239   2.939376
     2  N   -0.682463  -0.022236
     3  N   -0.679835  -0.019363
     4  N   -0.696111  -0.004127
     5  N   -0.677368  -0.019824
     6  C    0.284951   0.156697
     7  C    0.032074  -0.042951
     8  C    0.022416   0.124508
     9  C    0.303442  -0.058345
    10  C    0.306208  -0.061874
    11  C    0.018586   0.122699
    12  C   -0.006706  -0.040262
    13  C    0.309227   0.120351
    14  C    0.294987   0.121173
    15  C    0.033975  -0.025598
    16  C   -0.013491   0.113880
    17  C    0.322730  -0.056380
    18  C    0.315648  -0.054260
    19  C    0.020360   0.115763
    20  C    0.038001  -0.041433
    21  C    0.301559   0.152291
    22  C   -0.308403  -0.106261
    23  H    0.158179   0.004310
    24  C   -0.363100   0.263748
    25  H    0.149078  -0.013206
    26  C   -0.304924  -0.084752
    27  H    0.172838   0.003392
    28  C   -0.354485   0.263033
    29  H    0.151964  -0.013210
    30  C   -0.604206  -0.012169
    31  H    0.178741   0.000060
    32  H    0.181255   0.006669
    33  H    0.186591   0.006538
    34  C   -0.609033   0.002481
    35  H    0.186987  -0.000949
    36  H    0.187056  -0.000998
    37  H    0.181699  -0.000492
    38  C   -0.598039  -0.011901
    39  H    0.186549   0.005797
    40  H    0.182022   0.007239
    41  H    0.179827   0.000040
    42  C   -0.154770   0.005904
    43  H    0.164029  -0.000321
    44  C   -0.403619  -0.003734
    45  H    0.177925   0.000273
    46  H    0.163322   0.000557
    47  C   -0.611014   0.001213
    48  H    0.184992  -0.000456
    49  H    0.186110   0.000400
    50  H    0.194507  -0.000530
    51  C   -0.148867  -0.040936
    52  H    0.159375   0.004513
    53  C   -0.408277   0.068520
    54  H    0.168043  -0.003490
    55  H    0.159135  -0.003439
    56  C   -0.605287  -0.011328
    57  H    0.187279   0.005871
    58  H    0.184641   0.006395
    59  H    0.178501  -0.000003
    60  C   -0.608147   0.002406
    61  H    0.186979  -0.000806
    62  H    0.181965  -0.000524
    63  H    0.187603  -0.000925
    64  O   -0.821875   0.019079
    65  H    0.467524   0.001656
    66  H    0.456491   0.003057
    67  C   -0.601504   0.000964
    68  H    0.214064   0.000054
    69  H    0.194239   0.000131
    70  H    0.196597   0.000159
    71  N   -0.636854   0.004100
    72  H    0.367083   0.002018
    73  C    0.271859   0.004201
    74  C    0.260105   0.008736
    75  H    0.231968   0.000540
    76  N   -0.468189   0.084860
    77  C   -0.032332   0.000431
    78  H    0.212371   0.001000
 Sum of Mulliken charges =  -0.00000   4.00000
 Mulliken charges and spin densities with hydrogens summed into heavy atoms:
               1          2
     1  Fe   0.975239   2.939376
     2  N   -0.682463  -0.022236
     3  N   -0.679835  -0.019363
     4  N   -0.696111  -0.004127
     5  N   -0.677368  -0.019824
     6  C    0.284951   0.156697
     7  C    0.032074  -0.042951
     8  C    0.022416   0.124508
     9  C    0.303442  -0.058345
    10  C    0.306208  -0.061874
    11  C    0.018586   0.122699
    12  C   -0.006706  -0.040262
    13  C    0.309227   0.120351
    14  C    0.294987   0.121173
    15  C    0.033975  -0.025598
    16  C   -0.013491   0.113880
    17  C    0.322730  -0.056380
    18  C    0.315648  -0.054260
    19  C    0.020360   0.115763
    20  C    0.038001  -0.041433
    21  C    0.301559   0.152291
    22  C   -0.150224  -0.101950
    24  C   -0.214021   0.250542
    26  C   -0.132086  -0.081360
    28  C   -0.202521   0.249824
    30  C   -0.057618   0.001098
    34  C   -0.053290   0.000043
    38  C   -0.049641   0.001174
    42  C    0.009259   0.005582
    44  C   -0.062372  -0.002904
    47  C   -0.045405   0.000627
    51  C    0.010508  -0.036423
    53  C   -0.081099   0.061591
    56  C   -0.054866   0.000934
    60  C   -0.051600   0.000151
    64  O    0.102141   0.023793
    67  C    0.003396   0.001308
    71  N   -0.269772   0.006117
    73  C    0.271859   0.004201
    74  C    0.492073   0.009277
    76  N   -0.468189   0.084860
    77  C    0.180039   0.001431
 Electronic spatial extent (au):  <R**2>=          19712.4645
 Charge=             -0.0000 electrons
 Dipole moment (field-independent basis, Debye):
    X=              2.2879    Y=              0.1236    Z=              3.5939  Tot=              4.2621
 Quadrupole moment (field-independent basis, Debye-Ang):
   XX=           -245.7673   YY=           -242.3279   ZZ=           -216.6796
   XY=             -0.8373   XZ=              1.4909   YZ=              1.2550
 Traceless Quadrupole moment (field-independent basis, Debye-Ang):
   XX=            -10.8424   YY=             -7.4029   ZZ=             18.2453
   XY=             -0.8373   XZ=              1.4909   YZ=              1.2550
 Octapole moment (field-independent basis, Debye-Ang**2):
  XXX=             46.5862  YYY=            -11.7045  ZZZ=             78.2300  XYY=              8.2041
  XXY=              8.8692  XXZ=              2.4517  XZZ=             31.3550  YZZ=              3.1384
  YYZ=             -2.1444  XYZ=              7.5788
 Hexadecapole moment (field-independent basis, Debye-Ang**3):
 XXXX=         -11946.2108 YYYY=         -11066.7655 ZZZZ=          -2477.4190 XXXY=            -86.7940
 XXXZ=            -91.2839 YYYX=            -43.6183 YYYZ=            -45.9388 ZZZX=             65.9911
 ZZZY=             13.0355 XXYY=          -3812.4981 XXZZ=          -2604.9010 YYZZ=          -2499.7446
 XXYZ=             45.2232 YYXZ=             11.6446 ZZXY=             35.5107
 N-N= 5.984613293810D+03 E-N=-1.897923093025D+04  KE= 2.972752469213D+03
                          Isotropic Fermi Contact Couplings
        Atom                 a.u.       MegaHertz       Gauss      10(-4) cm-1
     1  Fe(57)             0.41305      14.97734       5.34429       4.99590
     2  N(14)             -0.02359      -1.90553      -0.67994      -0.63562
     3  N(14)             -0.02719      -2.19610      -0.78362      -0.73254
     4  N(14)             -0.01535      -1.23995      -0.44244      -0.41360
     5  N(14)             -0.02937      -2.37274      -0.84665      -0.79146
     6  C(13)              0.01927       5.41487       1.93216       1.80621
     7  C(13)             -0.01025      -2.88062      -1.02788      -0.96087
     8  C(13)              0.01742       4.89628       1.74711       1.63322
     9  C(13)             -0.01475      -4.14635      -1.47952      -1.38307
    10  C(13)             -0.01583      -4.45022      -1.58795      -1.48443
    11  C(13)              0.01728       4.85575       1.73265       1.61970
    12  C(13)             -0.00958      -2.69158      -0.96042      -0.89781
    13  C(13)              0.01358       3.81671       1.36190       1.27312
    14  C(13)              0.01378       3.87183       1.38156       1.29150
    15  C(13)             -0.00744      -2.09089      -0.74608      -0.69745
    16  C(13)              0.01575       4.42686       1.57961       1.47664
    17  C(13)             -0.01520      -4.27083      -1.52394      -1.42459
    18  C(13)             -0.01476      -4.14762      -1.47998      -1.38350
    19  C(13)              0.01612       4.53173       1.61703       1.51162
    20  C(13)             -0.01007      -2.83029      -1.00992      -0.94408
    21  C(13)              0.01827       5.13472       1.83220       1.71276
    22  C(13)             -0.01721      -4.83813      -1.72636      -1.61382
    23  H(1)               0.00132       1.47853       0.52757       0.49318
    24  C(13)              0.03548       9.97072       3.55780       3.32587
    25  H(1)              -0.00411      -4.59404      -1.63927      -1.53241
    26  C(13)             -0.01367      -3.84092      -1.37053      -1.28119
    27  H(1)               0.00109       1.22274       0.43630       0.40786
    28  C(13)              0.03564      10.01523       3.57368       3.34072
    29  H(1)              -0.00410      -4.58202      -1.63498      -1.52840
    30  C(13)             -0.00450      -1.26494      -0.45136      -0.42194
    31  H(1)              -0.00000      -0.00521      -0.00186      -0.00174
    32  H(1)               0.00239       2.67608       0.95489       0.89264
    33  H(1)               0.00235       2.62904       0.93811       0.87695
    34  C(13)              0.00068       0.19094       0.06813       0.06369
    35  H(1)              -0.00021      -0.22990      -0.08203      -0.07669
    36  H(1)              -0.00027      -0.29702      -0.10598      -0.09908
    37  H(1)              -0.00021      -0.22936      -0.08184      -0.07651
    38  C(13)             -0.00435      -1.22351      -0.43658      -0.40812
    39  H(1)               0.00206       2.29659       0.81948       0.76606
    40  H(1)               0.00253       2.82691       1.00871       0.94296
    41  H(1)               0.00001       0.00714       0.00255       0.00238
    42  C(13)              0.00126       0.35338       0.12610       0.11788
    43  H(1)              -0.00027      -0.29980      -0.10698      -0.10000
    44  C(13)             -0.00041      -0.11633      -0.04151      -0.03880
    45  H(1)               0.00009       0.10295       0.03674       0.03434
    46  H(1)               0.00012       0.13616       0.04858       0.04542
    47  C(13)              0.00045       0.12609       0.04499       0.04206
    48  H(1)              -0.00010      -0.11731      -0.04186      -0.03913
    49  H(1)               0.00015       0.16693       0.05956       0.05568
    50  H(1)              -0.00009      -0.10159      -0.03625      -0.03389
    51  C(13)             -0.00805      -2.26106      -0.80680      -0.75421
    52  H(1)               0.00116       1.29777       0.46308       0.43289
    53  C(13)              0.00985       2.76832       0.98780       0.92341
    54  H(1)              -0.00106      -1.18825      -0.42400      -0.39636
    55  H(1)              -0.00105      -1.17221      -0.41827      -0.39101
    56  C(13)             -0.00422      -1.18542      -0.42299      -0.39541
    57  H(1)               0.00216       2.40932       0.85970       0.80366
    58  H(1)               0.00224       2.50291       0.89310       0.83488
    59  H(1)              -0.00002      -0.02742      -0.00978      -0.00915
    60  C(13)              0.00063       0.17760       0.06337       0.05924
    61  H(1)              -0.00020      -0.22026      -0.07860      -0.07347
    62  H(1)              -0.00022      -0.24101      -0.08600      -0.08039
    63  H(1)              -0.00021      -0.23752      -0.08475      -0.07923
    64  O(17)              0.08572     -12.99116      -4.63557      -4.33339
    65  H(1)               0.00012       0.13590       0.04849       0.04533
    66  H(1)               0.00105       1.17424       0.41900       0.39168
    67  C(13)              0.00074       0.20775       0.07413       0.06930
    68  H(1)               0.00005       0.05324       0.01900       0.01776
    69  H(1)               0.00008       0.08623       0.03077       0.02876
    70  H(1)               0.00009       0.09890       0.03529       0.03299
    71  N(14)              0.00958       0.77366       0.27606       0.25807
    72  H(1)               0.00068       0.76336       0.27238       0.25463
    73  C(13)              0.00462       1.29770       0.46305       0.43286
    74  C(13)              0.00642       1.80334       0.64348       0.60153
    75  H(1)               0.00019       0.21709       0.07746       0.07241
    76  N(14)              0.17127      13.83439       4.93645       4.61465
    77  C(13)              0.00208       0.58403       0.20840       0.19481
    78  H(1)               0.00048       0.53216       0.18989       0.17751
 --------------------------------------------------------
       Center         ----  Spin Dipole Couplings  ----
                      3XX-RR        3YY-RR        3ZZ-RR
 --------------------------------------------------------
     1   Atom       -2.390961     -2.547182      4.938144
     2   Atom       -0.022218     -0.051358      0.073575
     3   Atom       -0.053169     -0.021752      0.074921
     4   Atom       -0.024242     -0.070072      0.094314
     5   Atom       -0.056168     -0.025032      0.081199
     6   Atom       -0.057709     -0.093430      0.151139
     7   Atom        0.018604      0.006944     -0.025548
     8   Atom       -0.058240     -0.069845      0.128085
     9   Atom        0.028318      0.014303     -0.042621
    10   Atom        0.012571      0.034504     -0.047075
    11   Atom       -0.070141     -0.056052      0.126193
    12   Atom        0.008465      0.015382     -0.023847
    13   Atom       -0.069847     -0.040825      0.110672
    14   Atom       -0.035751     -0.075039      0.110790
    15   Atom        0.012413     -0.000499     -0.011914
    16   Atom       -0.048110     -0.063256      0.111366
    17   Atom        0.027049      0.014475     -0.041524
    18   Atom        0.007939      0.031031     -0.038971
    19   Atom       -0.065991     -0.050802      0.116793
    20   Atom        0.008693      0.015801     -0.024494
    21   Atom       -0.086221     -0.058996      0.145216
    22   Atom        0.047728      0.043086     -0.090814
    23   Atom        0.004169      0.002990     -0.007160
    24   Atom       -0.125457     -0.118338      0.243795
    25   Atom       -0.001584      0.007606     -0.006022
    26   Atom        0.039506      0.035737     -0.075244
    27   Atom        0.004190      0.002704     -0.006894
    28   Atom       -0.126155     -0.119665      0.245820
    29   Atom       -0.002122      0.008361     -0.006239
    30   Atom        0.005773     -0.001893     -0.003880
    31   Atom        0.005490     -0.002575     -0.002916
    32   Atom        0.004441     -0.000606     -0.003836
    33   Atom        0.004130     -0.000556     -0.003575
    34   Atom        0.005492     -0.002529     -0.002963
    35   Atom        0.004375     -0.001623     -0.002752
    36   Atom        0.004582     -0.001657     -0.002925
    37   Atom        0.004511     -0.001908     -0.002603
    38   Atom       -0.002842      0.006764     -0.003922
    39   Atom       -0.002032      0.005965     -0.003933
    40   Atom       -0.002090      0.005458     -0.003368
    41   Atom       -0.003118      0.006049     -0.002931
    42   Atom       -0.001747      0.002885     -0.001138
    43   Atom       -0.001211      0.003862     -0.002651
    44   Atom       -0.000998      0.002582     -0.001584
    45   Atom        0.000864      0.001617     -0.002481
    46   Atom       -0.000070      0.001318     -0.001248
    47   Atom        0.005449     -0.002258     -0.003192
    48   Atom        0.004213     -0.001122     -0.003091
    49   Atom        0.004463     -0.001590     -0.002873
    50   Atom        0.004169     -0.001441     -0.002728
    51   Atom        0.018990      0.003719     -0.022710
    52   Atom        0.005732     -0.001477     -0.004256
    53   Atom       -0.016546     -0.016949      0.033496
    54   Atom        0.001160      0.000525     -0.001685
    55   Atom        0.001793      0.000732     -0.002525
    56   Atom       -0.003034      0.006900     -0.003865
    57   Atom       -0.002140      0.005921     -0.003780
    58   Atom       -0.002075      0.005736     -0.003661
    59   Atom       -0.003087      0.005989     -0.002902
    60   Atom       -0.001354      0.004202     -0.002847
    61   Atom       -0.000275      0.003190     -0.002915
    62   Atom       -0.001241      0.003808     -0.002566
    63   Atom       -0.000411      0.003131     -0.002721
    64   Atom       -0.090409     -0.060518      0.150927
    65   Atom       -0.008043     -0.025794      0.033836
    66   Atom       -0.011929     -0.021819      0.033749
    67   Atom       -0.003639     -0.002891      0.006530
    68   Atom       -0.002362     -0.001552      0.003914
    69   Atom       -0.002049     -0.002160      0.004208
    70   Atom       -0.002306     -0.001750      0.004055
    71   Atom       -0.007061     -0.008644      0.015705
    72   Atom       -0.003918     -0.003758      0.007676
    73   Atom       -0.007561     -0.007539      0.015099
    74   Atom       -0.009750     -0.010877      0.020627
    75   Atom       -0.007708     -0.001938      0.009646
    76   Atom       -0.132333     -0.138369      0.270702
    77   Atom       -0.017840     -0.007996      0.025836
    78   Atom       -0.007740     -0.000968      0.008708
 --------------------------------------------------------
                        XY            XZ            YZ
 --------------------------------------------------------
     1   Atom        0.035658      0.028482     -0.195152
     2   Atom        0.004493     -0.044779     -0.001053
     3   Atom       -0.000132     -0.002014      0.000692
     4   Atom        0.006855      0.007511     -0.008614
     5   Atom       -0.003663     -0.001111      0.030168
     6   Atom       -0.007191      0.011751     -0.000682
     7   Atom       -0.003376      0.000717      0.000511
     8   Atom        0.005122      0.009006     -0.000802
     9   Atom        0.011858     -0.000760      0.003357
    10   Atom        0.008198     -0.001500      0.004780
    11   Atom        0.001462      0.010688     -0.014720
    12   Atom       -0.005242     -0.002183      0.003546
    13   Atom       -0.013687     -0.001360     -0.016575
    14   Atom       -0.007504     -0.027299     -0.007897
    15   Atom       -0.003256      0.001441      0.000604
    16   Atom        0.004665     -0.022889      0.001130
    17   Atom        0.012776      0.006540      0.000312
    18   Atom        0.008282      0.001504     -0.002053
    19   Atom        0.001064     -0.014853      0.019031
    20   Atom       -0.005562      0.000188     -0.003809
    21   Atom       -0.014128     -0.005446      0.020907
    22   Atom       -0.010761     -0.003510     -0.001591
    23   Atom       -0.002682     -0.000315     -0.000088
    24   Atom        0.016618      0.013598     -0.016481
    25   Atom        0.022379      0.000557     -0.000214
    26   Atom       -0.012296      0.007823      0.003958
    27   Atom       -0.003510      0.000081      0.000656
    28   Atom        0.018111     -0.024440     -0.005967
    29   Atom        0.022777      0.001307      0.001851
    30   Atom        0.003628     -0.000145      0.000005
    31   Atom        0.002252     -0.000312     -0.000069
    32   Atom        0.004210      0.001603      0.000975
    33   Atom        0.004185     -0.002273     -0.001281
    34   Atom       -0.002329     -0.000068      0.000053
    35   Atom       -0.002699     -0.001521      0.000750
    36   Atom       -0.002748      0.001088     -0.000551
    37   Atom       -0.001129     -0.000202      0.000030
    38   Atom        0.001756      0.000027      0.000413
    39   Atom        0.002864     -0.000576     -0.001566
    40   Atom        0.002755      0.000769      0.002591
    41   Atom        0.000434      0.000013      0.000400
    42   Atom       -0.002608      0.002463      0.002113
    43   Atom       -0.002265      0.000170     -0.000203
    44   Atom       -0.005645     -0.003060     -0.001066
    45   Atom       -0.003750     -0.002049      0.002333
    46   Atom       -0.001874     -0.000566      0.000576
    47   Atom       -0.002056      0.000785     -0.000442
    48   Atom       -0.003206      0.001389     -0.000818
    49   Atom       -0.001996     -0.000826      0.000443
    50   Atom       -0.000829      0.001224     -0.000540
    51   Atom        0.007631     -0.008875      0.012159
    52   Atom        0.005166      0.001395      0.000751
    53   Atom       -0.012086      0.029489     -0.033327
    54   Atom       -0.002203     -0.000937      0.001646
    55   Atom        0.004976      0.002169     -0.000331
    56   Atom        0.001694      0.000013     -0.000202
    57   Atom        0.002739      0.000655      0.001839
    58   Atom        0.002934     -0.000720     -0.002427
    59   Atom        0.000454     -0.000025     -0.000382
    60   Atom       -0.003664      0.000317     -0.000286
    61   Atom       -0.003663     -0.000597      0.000758
    62   Atom       -0.002284      0.000209     -0.000436
    63   Atom       -0.003747      0.001210     -0.001538
    64   Atom        0.003567     -0.022280     -0.000418
    65   Atom       -0.001038     -0.024660      0.001983
    66   Atom       -0.000480      0.015594     -0.001884
    67   Atom        0.000597     -0.001440     -0.002905
    68   Atom        0.000980     -0.001725     -0.002740
    69   Atom        0.000166     -0.001377     -0.000664
    70   Atom       -0.000053      0.000272     -0.002022
    71   Atom       -0.002921      0.001990      0.000565
    72   Atom        0.000775      0.002372      0.002305
    73   Atom        0.000325     -0.000241     -0.002600
    74   Atom        0.007022      0.014853      0.018873
    75   Atom        0.010389      0.010769      0.014804
    76   Atom       -0.009398      0.010393     -0.015402
    77   Atom        0.011001     -0.013983     -0.022431
    78   Atom        0.010698     -0.010770     -0.015235
 --------------------------------------------------------


 ---------------------------------------------------------------------------------
              Anisotropic Spin Dipole Couplings in Principal Axis System
 ---------------------------------------------------------------------------------

       Atom             a.u.   MegaHertz   Gauss  10(-4) cm-1        Axes

              Baa    -2.5601   -44.323   -15.815   -14.784 -0.2104  0.9773  0.0262
     1 Fe(57) Bbb    -2.3832   -41.261   -14.723   -13.763  0.9776  0.2105  0.0018
              Bcc     4.9433    85.583    30.538    28.547  0.0038 -0.0260  0.9997
 
              Baa    -0.0525    -2.026    -0.723    -0.676 -0.2735  0.9577 -0.0891
     2 N(14)  Bbb    -0.0388    -1.495    -0.533    -0.499  0.8889  0.2871  0.3570
              Bcc     0.0913     3.521     1.256     1.175 -0.3675 -0.0184  0.9298
 
              Baa    -0.0532    -2.052    -0.732    -0.684  0.9999  0.0039  0.0157
     3 N(14)  Bbb    -0.0218    -0.839    -0.299    -0.280 -0.0037  1.0000 -0.0072
              Bcc     0.0750     2.891     1.032     0.964 -0.0157  0.0072  0.9999
 
              Baa    -0.0716    -2.763    -0.986    -0.922 -0.1519  0.9867  0.0581
     4 N(14)  Bbb    -0.0236    -0.909    -0.324    -0.303  0.9866  0.1549 -0.0515
              Bcc     0.0952     3.671     1.310     1.225  0.0599 -0.0495  0.9970
 
              Baa    -0.0566    -2.185    -0.780    -0.729  0.9905  0.1354 -0.0217
     5 N(14)  Bbb    -0.0326    -1.255    -0.448    -0.419 -0.1365  0.9572 -0.2552
              Bcc     0.0892     3.440     1.228     1.147 -0.0138  0.2557  0.9666
 
              Baa    -0.0948   -12.726    -4.541    -4.245  0.1921  0.9813 -0.0065
     6 C(13)  Bbb    -0.0570    -7.645    -2.728    -2.550  0.9798 -0.1922 -0.0560
              Bcc     0.1518    20.370     7.269     6.795  0.0562 -0.0044  0.9984
 
              Baa    -0.0256    -3.431    -1.224    -1.145 -0.0176 -0.0175  0.9997
     7 C(13)  Bbb     0.0061     0.812     0.290     0.271  0.2585  0.9658  0.0215
              Bcc     0.0195     2.619     0.935     0.874  0.9658 -0.2588  0.0124
 
              Baa    -0.0719    -9.643    -3.441    -3.217 -0.3635  0.9314  0.0201
     8 C(13)  Bbb    -0.0567    -7.603    -2.713    -2.536  0.9304  0.3640 -0.0438
              Bcc     0.1285    17.246     6.154     5.753  0.0481 -0.0028  0.9988
 
              Baa    -0.0428    -5.750    -2.052    -1.918  0.0212 -0.0630  0.9978
     9 C(13)  Bbb     0.0078     1.040     0.371     0.347 -0.4966  0.8655  0.0652
              Bcc     0.0351     4.710     1.681     1.571  0.8677  0.4969  0.0130
 
              Baa    -0.0474    -6.363    -2.271    -2.123  0.0334 -0.0615  0.9975
    10 C(13)  Bbb     0.0100     1.341     0.479     0.447  0.9501 -0.3079 -0.0508
              Bcc     0.0374     5.022     1.792     1.675  0.3102  0.9494  0.0482
 
              Baa    -0.0711    -9.539    -3.404    -3.182  0.9850 -0.1597 -0.0653
    11 C(13)  Bbb    -0.0568    -7.628    -2.722    -2.545  0.1641  0.9840  0.0695
              Bcc     0.1279    17.168     6.126     5.727  0.0531 -0.0792  0.9954
 
              Baa    -0.0243    -3.255    -1.161    -1.086  0.0533 -0.0820  0.9952
    12 C(13)  Bbb     0.0056     0.757     0.270     0.253  0.8793  0.4762 -0.0078
              Bcc     0.0186     2.497     0.891     0.833 -0.4733  0.8755  0.0975
 
              Baa    -0.0756   -10.143    -3.619    -3.383  0.9229  0.3829  0.0408
    13 C(13)  Bbb    -0.0369    -4.949    -1.766    -1.651 -0.3850  0.9175  0.0995
              Bcc     0.1125    15.092     5.385     5.034  0.0007 -0.1076  0.9942
 
              Baa    -0.0774   -10.381    -3.704    -3.463  0.2233  0.9720  0.0732
    14 C(13)  Bbb    -0.0386    -5.176    -1.847    -1.726  0.9588 -0.2326  0.1629
              Bcc     0.1159    15.556     5.551     5.189 -0.1754 -0.0338  0.9839
 
              Baa    -0.0121    -1.618    -0.577    -0.540 -0.0681 -0.0712  0.9951
    15 C(13)  Bbb    -0.0012    -0.160    -0.057    -0.053  0.2233  0.9710  0.0848
              Bcc     0.0133     1.778     0.635     0.593  0.9724 -0.2280  0.0502
 
              Baa    -0.0649    -8.714    -3.109    -2.907 -0.3277  0.9435 -0.0486
    16 C(13)  Bbb    -0.0497    -6.663    -2.377    -2.222  0.9345  0.3313  0.1305
              Bcc     0.1146    15.377     5.487     5.129 -0.1392  0.0026  0.9903
 
              Baa    -0.0422    -5.657    -2.019    -1.887 -0.0971  0.0164  0.9951
    17 C(13)  Bbb     0.0067     0.903     0.322     0.301 -0.5162  0.8540 -0.0645
              Bcc     0.0354     4.754     1.696     1.586  0.8509  0.5200  0.0744
 
              Baa    -0.0391    -5.246    -1.872    -1.750 -0.0379  0.0337  0.9987
    18 C(13)  Bbb     0.0054     0.721     0.257     0.240  0.9517 -0.3035  0.0463
              Bcc     0.0337     4.526     1.615     1.510  0.3046  0.9522 -0.0206
 
              Baa    -0.0676    -9.077    -3.239    -3.028  0.9805 -0.1712  0.0966
    19 C(13)  Bbb    -0.0524    -7.037    -2.511    -2.347  0.1802  0.9791 -0.0943
              Bcc     0.1201    16.113     5.750     5.375 -0.0785  0.1099  0.9908
 
              Baa    -0.0249    -3.335    -1.190    -1.113  0.0101  0.0946  0.9955
    20 C(13)  Bbb     0.0057     0.770     0.275     0.257  0.8824  0.4674 -0.0534
              Bcc     0.0191     2.566     0.915     0.856 -0.4704  0.8790 -0.0788
 
              Baa    -0.0923   -12.382    -4.418    -4.130  0.9172  0.3982 -0.0140
    21 C(13)  Bbb    -0.0553    -7.416    -2.646    -2.474 -0.3974  0.9115 -0.1059
              Bcc     0.1475    19.798     7.064     6.604 -0.0294  0.1027  0.9943
 
              Baa    -0.0909   -12.202    -4.354    -4.070  0.0264  0.0140  0.9996
    22 C(13)  Bbb     0.0345     4.629     1.652     1.544  0.6262  0.7791 -0.0274
              Bcc     0.0564     7.573     2.702     2.526  0.7792 -0.6267 -0.0118
 
              Baa    -0.0072    -3.826    -1.365    -1.276  0.0318  0.0170  0.9994
    23 H(1)   Bbb     0.0008     0.450     0.160     0.150  0.6254  0.7796 -0.0331
              Bcc     0.0063     3.377     1.205     1.126  0.7797 -0.6260 -0.0141
 
              Baa    -0.1400   -18.791    -6.705    -6.268  0.7723 -0.6329 -0.0545
    24 C(13)  Bbb    -0.1050   -14.084    -5.025    -4.698  0.6343  0.7730  0.0118
              Bcc     0.2450    32.875    11.731    10.966  0.0347 -0.0437  0.9984
 
              Baa    -0.0199   -10.595    -3.781    -3.534  0.7744 -0.6314 -0.0409
    25 H(1)   Bbb    -0.0060    -3.201    -1.142    -1.068  0.0280 -0.0304  0.9991
              Bcc     0.0259    13.797     4.923     4.602  0.6321  0.7749  0.0059
 
              Baa    -0.0760   -10.196    -3.638    -3.401 -0.0721 -0.0432  0.9965
    26 C(13)  Bbb     0.0258     3.466     1.237     1.156  0.6409  0.7635  0.0795
              Bcc     0.0502     6.730     2.401     2.245  0.7642 -0.6444  0.0273
 
              Baa    -0.0069    -3.707    -1.323    -1.237 -0.0323 -0.0795  0.9963
    27 H(1)   Bbb    -0.0001    -0.051    -0.018    -0.017  0.6306  0.7717  0.0820
              Bcc     0.0070     3.758     1.341     1.254  0.7754 -0.6309 -0.0252
 
              Baa    -0.1419   -19.042    -6.795    -6.352  0.7799 -0.6246  0.0395
    28 C(13)  Bbb    -0.1057   -14.178    -5.059    -4.729  0.6224  0.7807  0.0565
              Bcc     0.2476    33.220    11.854    11.081 -0.0662 -0.0195  0.9976
 
              Baa    -0.0203   -10.807    -3.856    -3.605  0.7821 -0.6231  0.0094
    29 H(1)   Bbb    -0.0064    -3.411    -1.217    -1.138 -0.0501 -0.0478  0.9976
              Bcc     0.0266    14.218     5.073     4.743  0.6212  0.7807  0.0686
 
              Baa    -0.0039    -0.522    -0.186    -0.174  0.0499 -0.0930  0.9944
    30 C(13)  Bbb    -0.0033    -0.447    -0.160    -0.149 -0.3667  0.9244  0.1049
              Bcc     0.0072     0.969     0.346     0.323  0.9290  0.3699 -0.0120
 
              Baa    -0.0032    -1.687    -0.602    -0.563 -0.2533  0.9661 -0.0494
    31 H(1)   Bbb    -0.0029    -1.561    -0.557    -0.521  0.0218  0.0567  0.9981
              Bcc     0.0061     3.248     1.159     1.084  0.9671  0.2518 -0.0355
 
              Baa    -0.0042    -2.219    -0.792    -0.740 -0.1221 -0.1254  0.9846
    32 H(1)   Bbb    -0.0030    -1.594    -0.569    -0.532 -0.5003  0.8645  0.0480
              Bcc     0.0071     3.813     1.361     1.272  0.8572  0.4867  0.1683
 
              Baa    -0.0042    -2.245    -0.801    -0.749  0.2208  0.0876  0.9714
    33 H(1)   Bbb    -0.0030    -1.605    -0.573    -0.535 -0.4972  0.8669  0.0348
              Bcc     0.0072     3.849     1.374     1.284  0.8391  0.4907 -0.2350
 
              Baa    -0.0032    -0.424    -0.151    -0.142  0.2550  0.9526 -0.1660
    34 C(13)  Bbb    -0.0030    -0.397    -0.142    -0.132  0.0515  0.1580  0.9861
              Bcc     0.0061     0.821     0.293     0.274  0.9656 -0.2600 -0.0087
 
              Baa    -0.0031    -1.673    -0.597    -0.558  0.0633 -0.3502  0.9345
    35 H(1)   Bbb    -0.0026    -1.393    -0.497    -0.465  0.3998  0.8669  0.2977
              Bcc     0.0057     3.066     1.094     1.023  0.9144 -0.3548 -0.1949
 
              Baa    -0.0031    -1.671    -0.596    -0.557 -0.0228  0.3121  0.9498
    36 H(1)   Bbb    -0.0027    -1.418    -0.506    -0.473  0.3773  0.8825 -0.2809
              Bcc     0.0058     3.089     1.102     1.030  0.9258 -0.3519  0.1379
 
              Baa    -0.0026    -1.392    -0.497    -0.464  0.0289  0.0035  0.9996
    37 H(1)   Bbb    -0.0021    -1.121    -0.400    -0.374  0.1681  0.9857 -0.0083
              Bcc     0.0047     2.513     0.897     0.838  0.9853 -0.1683 -0.0279
 
              Baa    -0.0039    -0.529    -0.189    -0.176  0.0496 -0.0466  0.9977
    38 C(13)  Bbb    -0.0032    -0.423    -0.151    -0.141  0.9835 -0.1718 -0.0569
              Bcc     0.0071     0.951     0.340     0.317  0.1741  0.9840  0.0373
 
              Baa    -0.0042    -2.234    -0.797    -0.745  0.0982  0.1246  0.9873
    39 H(1)   Bbb    -0.0029    -1.573    -0.561    -0.525  0.9478 -0.3141 -0.0546
              Bcc     0.0071     3.807     1.358     1.270  0.3034  0.9412 -0.1490
 
              Baa    -0.0041    -2.173    -0.775    -0.725 -0.0160 -0.2581  0.9660
    40 H(1)   Bbb    -0.0030    -1.592    -0.568    -0.531  0.9543 -0.2923 -0.0623
              Bcc     0.0071     3.765     1.343     1.256  0.2984  0.9209  0.2509
 
              Baa    -0.0031    -1.675    -0.598    -0.559  0.9984 -0.0485  0.0303
    41 H(1)   Bbb    -0.0029    -1.573    -0.561    -0.525 -0.0324 -0.0428  0.9986
              Bcc     0.0061     3.248     1.159     1.083  0.0471  0.9979  0.0443
 
              Baa    -0.0053    -0.711    -0.254    -0.237  0.6989  0.3793 -0.6063
    42 C(13)  Bbb     0.0010     0.139     0.050     0.046  0.6440  0.0349  0.7642
              Bcc     0.0043     0.572     0.204     0.191 -0.3110  0.9246  0.2199
 
              Baa    -0.0027    -1.426    -0.509    -0.476 -0.1460 -0.0200  0.9891
    43 H(1)   Bbb    -0.0021    -1.100    -0.393    -0.367  0.9228  0.3577  0.1435
              Bcc     0.0047     2.526     0.901     0.843 -0.3566  0.9336 -0.0338
 
              Baa    -0.0069    -0.932    -0.332    -0.311  0.7167  0.4812  0.5049
    44 C(13)  Bbb     0.0001     0.015     0.005     0.005 -0.3352 -0.3972  0.8543
              Bcc     0.0068     0.917     0.327     0.306 -0.6116  0.7815  0.1234
 
              Baa    -0.0036    -1.922    -0.686    -0.641  0.1979 -0.2780  0.9400
    45 H(1)   Bbb    -0.0025    -1.348    -0.481    -0.450  0.7512  0.6591  0.0368
              Bcc     0.0061     3.270     1.167     1.091 -0.6297  0.6988  0.3392
 
              Baa    -0.0015    -0.813    -0.290    -0.271  0.6260  0.2641  0.7338
    46 H(1)   Bbb    -0.0013    -0.670    -0.239    -0.224 -0.5369 -0.5365  0.6511
              Bcc     0.0028     1.483     0.529     0.495 -0.5656  0.8015  0.1940
 
              Baa    -0.0034    -0.452    -0.161    -0.151  0.0062  0.3796  0.9251
    47 C(13)  Bbb    -0.0027    -0.359    -0.128    -0.120  0.2613  0.8924 -0.3679
              Bcc     0.0060     0.811     0.289     0.271  0.9652 -0.2440  0.0937
 
              Baa    -0.0034    -1.816    -0.648    -0.606 -0.0745  0.2423  0.9673
    48 H(1)   Bbb    -0.0026    -1.385    -0.494    -0.462  0.4491  0.8742 -0.1844
              Bcc     0.0060     3.201     1.142     1.068  0.8903 -0.4207  0.1739
 
              Baa    -0.0030    -1.611    -0.575    -0.537  0.0428 -0.2406  0.9697
    49 H(1)   Bbb    -0.0021    -1.146    -0.409    -0.382  0.3069  0.9268  0.2165
              Bcc     0.0052     2.757     0.984     0.920  0.9508 -0.2883 -0.1135
 
              Baa    -0.0030    -1.623    -0.579    -0.541 -0.1334  0.2544  0.9579
    50 H(1)   Bbb    -0.0015    -0.788    -0.281    -0.263  0.1895  0.9552 -0.2273
              Bcc     0.0045     2.411     0.860     0.804  0.9728 -0.1512  0.1756
 
              Baa    -0.0300    -4.021    -1.435    -1.341  0.2217 -0.3751  0.9001
    51 C(13)  Bbb     0.0075     1.001     0.357     0.334 -0.2495  0.8705  0.4243
              Bcc     0.0225     3.020     1.078     1.007  0.9427  0.3186 -0.0993
 
              Baa    -0.0045    -2.376    -0.848    -0.792 -0.0747 -0.1202  0.9899
    52 H(1)   Bbb    -0.0042    -2.225    -0.794    -0.742 -0.4693  0.8802  0.0714
              Bcc     0.0086     4.600     1.642     1.535  0.8799  0.4592  0.1221
 
              Baa    -0.0344    -4.619    -1.648    -1.541 -0.3601  0.7662  0.5323
    53 C(13)  Bbb    -0.0284    -3.809    -1.359    -1.271  0.8555  0.4987 -0.1391
              Bcc     0.0628     8.428     3.007     2.811  0.3720 -0.4053  0.8351
 
              Baa    -0.0026    -1.377    -0.491    -0.459 -0.0904 -0.5157  0.8520
    54 H(1)   Bbb    -0.0011    -0.582    -0.208    -0.194  0.7188  0.5583  0.4142
              Bcc     0.0037     1.960     0.699     0.654  0.6893 -0.6499 -0.3202
 
              Baa    -0.0050    -2.665    -0.951    -0.889 -0.5909  0.5477  0.5924
    55 H(1)   Bbb    -0.0015    -0.797    -0.285    -0.266  0.2933 -0.5382  0.7902
              Bcc     0.0065     3.462     1.235     1.155  0.7516  0.6406  0.1574
 
              Baa    -0.0039    -0.520    -0.185    -0.173 -0.0787  0.0310  0.9964
    56 C(13)  Bbb    -0.0033    -0.444    -0.159    -0.148  0.9834 -0.1615  0.0827
              Bcc     0.0072     0.964     0.344     0.322  0.1635  0.9864 -0.0178
 
              Baa    -0.0041    -2.206    -0.787    -0.736 -0.1208 -0.1466  0.9818
    57 H(1)   Bbb    -0.0030    -1.589    -0.567    -0.530  0.9491 -0.3069  0.0709
              Bcc     0.0071     3.795     1.354     1.266  0.2909  0.9404  0.1762
 
              Baa    -0.0043    -2.268    -0.809    -0.757  0.0050  0.2348  0.9720
    58 H(1)   Bbb    -0.0030    -1.627    -0.580    -0.543  0.9518 -0.2993  0.0674
              Bcc     0.0073     3.895     1.390     1.299  0.3068  0.9248 -0.2250
 
              Baa    -0.0031    -1.659    -0.592    -0.553  0.9984 -0.0486  0.0304
    59 H(1)   Bbb    -0.0029    -1.557    -0.556    -0.519 -0.0282  0.0442  0.9986
              Bcc     0.0060     3.216     1.148     1.073  0.0498  0.9978 -0.0428
 
              Baa    -0.0032    -0.435    -0.155    -0.145  0.8337  0.3957 -0.3853
    60 C(13)  Bbb    -0.0028    -0.376    -0.134    -0.125  0.3269  0.2088  0.9217
              Bcc     0.0060     0.810     0.289     0.270 -0.4451  0.8944 -0.0447
 
              Baa    -0.0030    -1.624    -0.580    -0.542  0.2375  0.0214  0.9712
    61 H(1)   Bbb    -0.0026    -1.373    -0.490    -0.458  0.8123  0.5439 -0.2106
              Bcc     0.0056     2.997     1.070     1.000 -0.5328  0.8388  0.1118
 
              Baa    -0.0026    -1.388    -0.495    -0.463 -0.0971  0.0330  0.9947
    62 H(1)   Bbb    -0.0021    -1.130    -0.403    -0.377  0.9282  0.3636  0.0786
              Bcc     0.0047     2.518     0.899     0.840 -0.3591  0.9310 -0.0659
 
              Baa    -0.0032    -1.729    -0.617    -0.577 -0.4374 -0.0404  0.8983
    63 H(1)   Bbb    -0.0027    -1.442    -0.514    -0.481  0.7291  0.5688  0.3806
              Bcc     0.0059     3.170     1.131     1.058 -0.5263  0.8215 -0.2194
 
              Baa    -0.0928     6.717     2.397     2.241  0.9900 -0.1081  0.0903
    64 O(17)  Bbb    -0.0601     4.352     1.553     1.452  0.1074  0.9941  0.0133
              Bcc     0.1530   -11.069    -3.950    -3.692 -0.0912 -0.0035  0.9958
 
              Baa    -0.0259   -13.801    -4.924    -4.603  0.0286  0.9994 -0.0214
    65 H(1)   Bbb    -0.0195   -10.379    -3.703    -3.462  0.9072 -0.0170  0.4204
              Bcc     0.0453    24.179     8.628     8.065 -0.4198  0.0314  0.9071
 
              Baa    -0.0219   -11.676    -4.166    -3.895 -0.0085  0.9993  0.0362
    66 H(1)   Bbb    -0.0167    -8.934    -3.188    -2.980  0.9555  0.0188 -0.2944
              Bcc     0.0386    20.610     7.354     6.875  0.2949 -0.0321  0.9550
 
              Baa    -0.0040    -0.534    -0.190    -0.178  0.8168 -0.5750 -0.0470
    67 C(13)  Bbb    -0.0036    -0.482    -0.172    -0.161  0.5605  0.7715  0.3012
              Bcc     0.0076     1.016     0.362     0.339 -0.1369 -0.2723  0.9524
 
              Baa    -0.0030    -1.612    -0.575    -0.538  0.7908 -0.6105 -0.0445
    68 H(1)   Bbb    -0.0025    -1.345    -0.480    -0.449  0.5623  0.6957  0.4470
              Bcc     0.0055     2.957     1.055     0.986 -0.2419 -0.3785  0.8934
 
              Baa    -0.0023    -1.251    -0.446    -0.417  0.9594 -0.2174  0.1796
    69 H(1)   Bbb    -0.0022    -1.186    -0.423    -0.396  0.1935  0.9708  0.1416
              Bcc     0.0046     2.437     0.870     0.813 -0.2051 -0.1011  0.9735
 
              Baa    -0.0024    -1.279    -0.456    -0.427 -0.3576  0.8867  0.2930
    70 H(1)   Bbb    -0.0023    -1.230    -0.439    -0.410  0.9330  0.3525  0.0722
              Bcc     0.0047     2.508     0.895     0.837  0.0392 -0.2992  0.9534
 
              Baa    -0.0110    -0.424    -0.151    -0.141  0.6164  0.7849 -0.0626
    71 N(14)  Bbb    -0.0049    -0.189    -0.067    -0.063  0.7828 -0.6195 -0.0586
              Bcc     0.0159     0.613     0.219     0.204  0.0848  0.0128  0.9963
 
              Baa    -0.0046    -2.468    -0.881    -0.823  0.7964 -0.6034 -0.0405
    72 H(1)   Bbb    -0.0040    -2.127    -0.759    -0.710  0.5728  0.7742 -0.2695
              Bcc     0.0086     4.595     1.640     1.533  0.1940  0.1914  0.9622
 
              Baa    -0.0080    -1.077    -0.384    -0.359 -0.5412  0.8362  0.0884
    73 C(13)  Bbb    -0.0074    -0.989    -0.353    -0.330  0.8408  0.5367  0.0711
              Bcc     0.0154     2.066     0.737     0.689 -0.0120 -0.1128  0.9935
 
              Baa    -0.0197    -2.645    -0.944    -0.882 -0.0147  0.9077 -0.4193
    74 C(13)  Bbb    -0.0157    -2.110    -0.753    -0.704  0.9397 -0.1308 -0.3161
              Bcc     0.0354     4.755     1.697     1.586  0.3417  0.3987  0.8511
 
              Baa    -0.0156    -8.334    -2.974    -2.780  0.7748 -0.6310  0.0395
    75 H(1)   Bbb    -0.0106    -5.645    -2.014    -1.883 -0.4893 -0.5588  0.6696
              Bcc     0.0262    13.979     4.988     4.663  0.4004  0.5381  0.7417
 
              Baa    -0.1453    -5.605    -2.000    -1.870  0.5778  0.8160  0.0158
    76 N(14)  Bbb    -0.1262    -4.869    -1.737    -1.624  0.8157 -0.5768 -0.0437
              Bcc     0.2716    10.474     3.737     3.494  0.0266 -0.0381  0.9989
 
              Baa    -0.0250    -3.352    -1.196    -1.118  0.8261 -0.5632 -0.0213
    77 C(13)  Bbb    -0.0171    -2.297    -0.820    -0.766  0.4891  0.6976  0.5235
              Bcc     0.0421     5.649     2.016     1.884 -0.2800 -0.4429  0.8517
 
              Baa    -0.0156    -8.316    -2.967    -2.774  0.7884 -0.6141 -0.0356
    78 H(1)   Bbb    -0.0109    -5.805    -2.071    -1.936  0.4647  0.5568  0.6885
              Bcc     0.0265    14.122     5.039     4.710 -0.4030 -0.5594  0.7243
 

 ---------------------------------------------------------------------------------

 Unable to Open any file for archive entry.
 1\1\GINC-BGN1034\SP\UAPFD\Gen\C34H36Fe1N6O1(5)\BECSLEIP\05-Oct-2024\0\
 \# apfd/gen scf=maxcycle=999 geom=check\\5jqr_II_Q\\0,5\Fe,0,95.557310
 0227,26.9227749862,19.3034842326\N,0,96.8782340182,28.3698500968,18.79
 42575826\N,0,94.4673309558,27.368909535,17.6861321349\N,0,94.234636613
 2,25.5203963039,19.8231923418\N,0,96.6775489792,26.5145083199,20.90428
 73924\C,0,98.0368570342,28.6808142688,19.4347245469\C,0,98.7746496502,
 29.6871498348,18.7060222597\C,0,98.0396005855,29.9668002284,17.5944381
 579\C,0,96.8662567813,29.1280268255,17.6641406735\C,0,94.7275098087,28
 .3315496397,16.760263292\C,0,93.6518984427,28.4294146792,15.8097762049
 \C,0,92.7114667318,27.5135436181,16.1949710556\C,0,93.2506097212,26.85
 57856764,17.3694327893\C,0,93.1368482089,25.1336656871,19.1162334158\C
 ,0,92.5362081983,23.96081777,19.7023823705\C,0,93.2754686259,23.668621
 7237,20.8196482949\C,0,94.3455736283,24.6529563275,20.861442419\C,0,96
 .3821529018,25.5990226703,21.8643313663\C,0,97.3256224949,25.685894911
 1,22.9618553096\C,0,98.2006266066,26.6746327874,22.6374308182\C,0,97.7
 727705408,27.1838861813,21.3528091046\C,0,98.456180462,28.1501329737,2
 0.6423287968\H,0,99.3791459744,28.5285824305,21.0560455757\C,0,95.8520
 251905,29.1384198108,16.7254903918\H,0,95.9350700333,29.8351396009,15.
 9039179358\C,0,92.6526415835,25.7757807929,17.9908501333\H,0,91.757763
 6832,25.3833987001,17.5368246461\C,0,95.3268402541,24.7025845434,21.83
 75960407\H,0,95.259054914,23.990770522,22.6479923326\C,0,98.3147854044
 ,30.932916448,16.4928661724\H,0,99.2510732421,31.4564734037,16.6674665
 624\H,0,97.5185544258,31.6745574315,16.4194229797\H,0,98.3819804561,30
 .4113397516,15.5379635219\C,0,100.0654331167,30.286918664,19.153087907
 9\H,0,100.8406157171,29.5253353192,19.2369511832\H,0,99.9507123625,30.
 7567426913,20.1304716551\H,0,100.4048410256,31.0430083641,18.448345127
 7\C,0,93.6125250943,29.3547911098,14.6422134685\H,0,94.5009035387,29.2
 275466191,14.0223227045\H,0,93.575173207,30.3942994548,14.9684011589\H
 ,0,92.7330557521,29.1593024314,14.0343078282\C,0,91.4330134899,27.2653
 187629,15.5641396657\H,0,91.4307984857,27.3109755592,14.4805505028\C,0
 ,90.2960639998,27.0377093335,16.210198968\H,0,90.2553135535,27.0225882
 933,17.2853487354\H,0,89.368588728,26.8780877313,15.6874707688\C,0,91.
 3424125488,23.2414296248,19.1761274385\H,0,91.3120521167,23.2612733097
 ,18.0883919782\H,0,90.4244714074,23.6996499261,19.5482314476\H,0,91.35
 97031724,22.203650058,19.5022443839\C,0,93.0776824753,22.6169362899,21
 .7931771192\H,0,93.9768201715,22.2476141121,22.2730920813\C,0,91.91444
 79137,22.0910450694,22.1685259042\H,0,90.9613582754,22.4428089205,21.8
 139354458\H,0,91.8807082556,21.2883557734,22.8870454996\C,0,97.2941609
 714,24.818922205,24.1749620222\H,0,97.3785550507,23.7690039356,23.8934
 105775\H,0,96.3560046182,24.9514405024,24.7144157272\H,0,98.1162105308
 ,25.0632611046,24.8450424047\C,0,99.37322555,27.1925198882,23.40206522
 58\H,0,100.3050258231,27.0507889338,22.8511899523\H,0,99.4666298702,26
 .6793996607,24.3561020075\H,0,99.252361498,28.2596631064,23.589755396\
 O,0,96.782,25.374,18.1\H,0,97.604,25.815,17.886\H,0,96.561,24.54,17.88
 6\C,0,92.9176513566,29.7306339924,23.3284303082\H,0,92.9291087575,28.8
 947212481,24.0205053311\H,0,91.8874996664,30.0554200948,23.1868720072\
 H,0,93.4783763816,30.5550197943,23.7687389251\N,0,93.595777631,30.1460
 815297,20.9531986592\H,0,93.2607372221,31.0939578634,20.9124214794\C,0
 ,93.5231396541,29.3139048432,22.0390919268\C,0,94.2114620549,29.468999
 537,19.958449738\H,0,94.3944980765,29.8682122813,18.982368535\N,0,94.5
 375108514,28.2616726531,20.3508595551\C,0,94.1090364328,28.1470376307,
 21.6408280022\H,0,94.2441690156,27.2389236127,22.1911796249\\Version=E
 S64L-G16RevC.02\State=5-A\HF=-2983.3495882\S2=6.079108\S2-1=0.\S2A=6.0
 01851\RMSD=4.800e-09\Dipole=-0.1155942,1.5898153,0.5204893\Quadrupole=
 -1.5998787,3.3954113,-1.7955326,-8.2248707,-3.7295105,7.2050757\PG=C01
  [X(C34H36Fe1N6O1)]\\@
 The archive entry for this job was punched.


 IT IS THE BEHAVIOR AND DISTRIBUTION OF THE ELECTRONS 
 AROUND THE NUCLEUS THAT GIVES THE FUNDAMENTAL 
 CHARACTER OF AN ATOM:  IT MUST BE THE SAME FOR MOLECULES.

                               -- C. A. COULSON, 1951
 Job cpu time:       0 days  4 hours 50 minutes 36.9 seconds.
 Elapsed time:       0 days  0 hours  4 minutes 55.4 seconds.
 File lengths (MBytes):  RWF=    430 Int=      0 D2E=      0 Chk=    155 Scr=      1
 Normal termination of Gaussian 16 at Sat Oct  5 23:04:41 2024.
