 Entering Gaussian System, Link 0=g16
 Input=5jqr16.com
 Output=5jqr16.log
 Initial command:
 /sw/chem/gaussian/g16_C02/a100/g16/l1.exe "/local/becsleip_8040238/Gau-173436.inp" -scrdir="/local/becsleip_8040238/"
 Entering Link 1 = /sw/chem/gaussian/g16_C02/a100/g16/l1.exe PID=    173437.
  
 Copyright (c) 1988-2021, Gaussian, Inc.  All Rights Reserved.
  
 This is part of the Gaussian(R) 16 program.  It is based on
 the Gaussian(R) 09 system (copyright 2009, Gaussian, Inc.),
 the Gaussian(R) 03 system (copyright 2003, Gaussian, Inc.),
 the Gaussian(R) 98 system (copyright 1998, Gaussian, Inc.),
 the Gaussian(R) 94 system (copyright 1995, Gaussian, Inc.),
 the Gaussian 92(TM) system (copyright 1992, Gaussian, Inc.),
 the Gaussian 90(TM) system (copyright 1990, Gaussian, Inc.),
 the Gaussian 88(TM) system (copyright 1988, Gaussian, Inc.),
 the Gaussian 86(TM) system (copyright 1986, Carnegie Mellon
 University), and the Gaussian 82(TM) system (copyright 1983,
 Carnegie Mellon University). Gaussian is a federally registered
 trademark of Gaussian, Inc.
  
 This software contains proprietary and confidential information,
 including trade secrets, belonging to Gaussian, Inc.
  
 This software is provided under written license and may be
 used, copied, transmitted, or stored only in accord with that
 written license.
  
 The following legend is applicable only to US Government
 contracts under FAR:
  
                    RESTRICTED RIGHTS LEGEND
  
 Use, reproduction and disclosure by the US Government is
 subject to restrictions as set forth in subparagraphs (a)
 and (c) of the Commercial Computer Software - Restricted
 Rights clause in FAR 52.227-19.
  
 Gaussian, Inc.
 340 Quinnipiac St., Bldg. 40, Wallingford CT 06492
  
  
 ---------------------------------------------------------------
 Warning -- This program may not be used in any manner that
 competes with the business of Gaussian, Inc. or will provide
 assistance to any competitor of Gaussian, Inc.  The licensee
 of this program is prohibited from giving any competitor of
 Gaussian, Inc. access to this program.  By using this program,
 the user acknowledges that Gaussian, Inc. is engaged in the
 business of creating and licensing software in the field of
 computational chemistry and represents and warrants to the
 licensee that it is not a competitor of Gaussian, Inc. and that
 it will not use this program in any manner prohibited above.
 ---------------------------------------------------------------
  

 Cite this work as:
 Gaussian 16, Revision C.02,
 M. J. Frisch, G. W. Trucks, H. B. Schlegel, G. E. Scuseria, 
 M. A. Robb, J. R. Cheeseman, G. Scalmani, V. Barone, 
 G. A. Petersson, H. Nakatsuji, X. Li, M. Caricato, A. V. Marenich, 
 J. Bloino, B. G. Janesko, R. Gomperts, B. Mennucci, H. P. Hratchian, 
 J. V. Ortiz, A. F. Izmaylov, J. L. Sonnenberg, D. Williams-Young, 
 F. Ding, F. Lipparini, F. Egidi, J. Goings, B. Peng, A. Petrone, 
 T. Henderson, D. Ranasinghe, V. G. Zakrzewski, J. Gao, N. Rega, 
 G. Zheng, W. Liang, M. Hada, M. Ehara, K. Toyota, R. Fukuda, 
 J. Hasegawa, M. Ishida, T. Nakajima, Y. Honda, O. Kitao, H. Nakai, 
 T. Vreven, K. Throssell, J. A. Montgomery, Jr., J. E. Peralta, 
 F. Ogliaro, M. J. Bearpark, J. J. Heyd, E. N. Brothers, K. N. Kudin, 
 V. N. Staroverov, T. A. Keith, R. Kobayashi, J. Normand, 
 K. Raghavachari, A. P. Rendell, J. C. Burant, S. S. Iyengar, 
 J. Tomasi, M. Cossi, J. M. Millam, M. Klene, C. Adamo, R. Cammi, 
 J. W. Ochterski, R. L. Martin, K. Morokuma, O. Farkas, 
 J. B. Foresman, and D. J. Fox, Gaussian, Inc., Wallingford CT, 2019.
 
 ******************************************
 Gaussian 16:  ES64L-G16RevC.02  7-Dec-2021
                 8-Oct-2024 
 ******************************************
 %mem=16GB
 %CPU=0-71
 SetSPE:  set environment variable "OMP_PROC_BIND" = "true"
 SetSPE:  set environment variable "OMP_PLACES" = "{0},{1},{2},{3},{4},{5},{6},{7},{8},{9},{10},{11},{12},{13},{14},{15},{16},{17},{18},{19},{20},{21},{22},{23},{24},{25},{26},{27},{28},{29},{30},{31},{32},{33},{34},{35},{36},{37},{38},{39},{40},{41},{42},{43},{44},{45},{46},{47},{48},{49},{50},{51},{52},{53},{54},{55},{56},{57},{58},{59},{60},{61},{62},{63},{64},{65},{66},{67},{68},{69},{70},{71}"
 Will use up to   72 processors via shared memory.
 %gpucpu=0,1,2,3=0,1,2,3
 Will use    4 GPUs:
 Thread  CPU   GPU
      0    0     0
      1    1     1
      2    2     2
      3    3     3
      4    4    -1
      5    5    -1
      6    6    -1
      7    7    -1
      8    8    -1
      9    9    -1
     10   10    -1
     11   11    -1
     12   12    -1
     13   13    -1
     14   14    -1
     15   15    -1
     16   16    -1
     17   17    -1
     18   18    -1
     19   19    -1
     20   20    -1
     21   21    -1
     22   22    -1
     23   23    -1
     24   24    -1
     25   25    -1
     26   26    -1
     27   27    -1
     28   28    -1
     29   29    -1
     30   30    -1
     31   31    -1
     32   32    -1
     33   33    -1
     34   34    -1
     35   35    -1
     36   36    -1
     37   37    -1
     38   38    -1
     39   39    -1
     40   40    -1
     41   41    -1
     42   42    -1
     43   43    -1
     44   44    -1
     45   45    -1
     46   46    -1
     47   47    -1
     48   48    -1
     49   49    -1
     50   50    -1
     51   51    -1
     52   52    -1
     53   53    -1
     54   54    -1
     55   55    -1
     56   56    -1
     57   57    -1
     58   58    -1
     59   59    -1
     60   60    -1
     61   61    -1
     62   62    -1
     63   63    -1
     64   64    -1
     65   65    -1
     66   66    -1
     67   67    -1
     68   68    -1
     69   69    -1
     70   70    -1
     71   71    -1
 SetGPE:  set environment variable "OMP_PROC_BIND" = "true"
 SetGPE:  set environment variable "OMP_PLACES" = "{0},{1},{2},{3},{4},{5},{6},{7},{8},{9},{10},{11},{12},{13},{14},{15},{16},{17},{18},{19},{20},{21},{22},{23},{24},{25},{26},{27},{28},{29},{30},{31},{32},{33},{34},{35},{36},{37},{38},{39},{40},{41},{42},{43},{44},{45},{46},{47},{48},{49},{50},{51},{52},{53},{54},{55},{56},{57},{58},{59},{60},{61},{62},{63},{64},{65},{66},{67},{68},{69},{70},{71}"
 %oldchk=5jqr_III_Dre.chk
 %chk=5jqr_III_Hn.chk
 Properties for Device   0
 Minimum vector length:                              32
 Maximum vector length:                            1024
 Number of SMPs:                                    108
 Maximum number of threads per SMP:                2048
 Number of ASync Engines:                             5
 Memory:                                           9207742464
 Properties for Device   1
 Minimum vector length:                              32
 Maximum vector length:                            1024
 Number of SMPs:                                    108
 Maximum number of threads per SMP:                2048
 Number of ASync Engines:                             5
 Memory:                                           9207742464
 Properties for Device   2
 Minimum vector length:                              32
 Maximum vector length:                            1024
 Number of SMPs:                                    108
 Maximum number of threads per SMP:                2048
 Number of ASync Engines:                             5
 Memory:                                           9207742464
 Properties for Device   3
 Minimum vector length:                              32
 Maximum vector length:                            1024
 Number of SMPs:                                    108
 Maximum number of threads per SMP:                2048
 Number of ASync Engines:                             5
 Memory:                                           9207742464
   8286968217 words of memory will be used on each GPU.
 Copying data from "5jqr_III_Dre.chk" to current chk file "5jqr_III_Hn.chk"
 IOpt=  2 FromEx=T IUOpen= 4 IOptOp= 5 NList=   0 IFRang= 0 IUIn= 4 IUOut= 2.
 --------------------------------------------------------------
 # apfd/def2TZVP guess=read scf=maxcycle=999 geom=check pop=nbo
 --------------------------------------------------------------
 1/29=2,38=1,172=1/1;
 2/12=2,40=1/2;
 3/5=44,7=101,11=2,14=-4,25=1,30=1,74=-44,116=-2/1,2,3;
 4/5=1/1;
 5/5=2,7=999,38=6/2;
 6/7=2,8=2,9=2,10=2,28=1,40=1/1,7;
 99/5=1,9=1/99;
 ----------
 5jqr_III_H
 ----------
 Structure from the checkpoint file:  "5jqr_III_Hn.chk"
 Charge =  1 Multiplicity = 6
 Z-Matrix found in chk file.
 Fe,0,95.5573100227,26.9227749862,19.3034842326
 N,0,96.8782340182,28.3698500968,18.7942575826
 N,0,94.4673309558,27.368909535,17.6861321349
 N,0,94.2346366132,25.5203963039,19.8231923418
 N,0,96.6775489792,26.5145083199,20.9042873924
 C,0,98.0368570342,28.6808142688,19.4347245469
 C,0,98.7746496502,29.6871498348,18.7060222597
 C,0,98.0396005855,29.9668002284,17.5944381579
 C,0,96.8662567813,29.1280268255,17.6641406735
 C,0,94.7275098087,28.3315496397,16.760263292
 C,0,93.6518984427,28.4294146792,15.8097762049
 C,0,92.7114667318,27.5135436181,16.1949710556
 C,0,93.2506097212,26.8557856764,17.3694327893
 C,0,93.1368482089,25.1336656871,19.1162334158
 C,0,92.5362081983,23.96081777,19.7023823705
 C,0,93.2754686259,23.6686217237,20.8196482949
 C,0,94.3455736283,24.6529563275,20.861442419
 C,0,96.3821529018,25.5990226703,21.8643313663
 C,0,97.3256224949,25.6858949111,22.9618553096
 C,0,98.2006266066,26.6746327874,22.6374308182
 C,0,97.7727705408,27.1838861813,21.3528091046
 C,0,98.456180462,28.1501329737,20.6423287968
 H,0,99.3791459744,28.5285824305,21.0560455757
 C,0,95.8520251905,29.1384198108,16.7254903918
 H,0,95.9350700333,29.8351396009,15.9039179358
 C,0,92.6526415835,25.7757807929,17.9908501333
 H,0,91.7577636832,25.3833987001,17.5368246461
 C,0,95.3268402541,24.7025845434,21.8375960407
 H,0,95.259054914,23.990770522,22.6479923326
 C,0,98.3147854044,30.932916448,16.4928661724
 H,0,99.2510732421,31.4564734037,16.6674665624
 H,0,97.5185544258,31.6745574315,16.4194229797
 H,0,98.3819804561,30.4113397516,15.5379635219
 C,0,100.0654331167,30.286918664,19.1530879079
 H,0,100.8406157171,29.5253353192,19.2369511832
 H,0,99.9507123625,30.7567426913,20.1304716551
 H,0,100.4048410256,31.0430083641,18.4483451277
 C,0,93.6125250943,29.3547911098,14.6422134685
 H,0,94.5009035387,29.2275466191,14.0223227045
 H,0,93.575173207,30.3942994548,14.9684011589
 H,0,92.7330557521,29.1593024314,14.0343078282
 C,0,91.4330134899,27.2653187629,15.5641396657
 H,0,91.4307984857,27.3109755592,14.4805505028
 C,0,90.2960639998,27.0377093335,16.210198968
 H,0,90.2553135535,27.0225882933,17.2853487354
 H,0,89.368588728,26.8780877313,15.6874707688
 C,0,91.3424125488,23.2414296248,19.1761274385
 H,0,91.3120521167,23.2612733097,18.0883919782
 H,0,90.4244714074,23.6996499261,19.5482314476
 H,0,91.3597031724,22.203650058,19.5022443839
 C,0,93.0776824753,22.6169362899,21.7931771192
 H,0,93.9768201715,22.2476141121,22.2730920813
 C,0,91.9144479137,22.0910450694,22.1685259042
 H,0,90.9613582754,22.4428089205,21.8139354458
 H,0,91.8807082556,21.2883557734,22.8870454996
 C,0,97.2941609714,24.818922205,24.1749620222
 H,0,97.3785550507,23.7690039356,23.8934105775
 H,0,96.3560046182,24.9514405024,24.7144157272
 H,0,98.1162105308,25.0632611046,24.8450424047
 C,0,99.37322555,27.1925198882,23.4020652258
 H,0,100.3050258231,27.0507889338,22.8511899523
 H,0,99.4666298702,26.6793996607,24.3561020075
 H,0,99.252361498,28.2596631064,23.589755396
 O,0,96.782,25.374,18.1
 H,0,97.604,25.815,17.886
 H,0,96.561,24.54,17.886
 C,0,92.9176513566,29.7306339924,23.3284303082
 H,0,92.9291087575,28.8947212481,24.0205053311
 H,0,91.8874996664,30.0554200948,23.1868720072
 H,0,93.4783763816,30.5550197943,23.7687389251
 N,0,93.595777631,30.1460815297,20.9531986592
 H,0,93.2607372221,31.0939578634,20.9124214794
 C,0,93.5231396541,29.3139048432,22.0390919268
 C,0,94.2114620549,29.468999537,19.958449738
 H,0,94.3944980765,29.8682122813,18.982368535
 N,0,94.5375108514,28.2616726531,20.3508595551
 C,0,94.1090364328,28.1470376307,21.6408280022
 H,0,94.2441690156,27.2389236127,22.1911796249
 Recover connectivity data from disk.
 Stoichiometry    C34H36FeN6O(1+,6)
 Framework group  C1[X(C34H36FeN6O)]
 Deg. of freedom   228
 Full point group                 C1      NOp   1
 Largest Abelian subgroup         C1      NOp   1
 Largest concise Abelian subgroup C1      NOp   1
                         Standard orientation:                         
 ---------------------------------------------------------------------
 Center     Atomic      Atomic             Coordinates (Angstroms)
 Number     Number       Type             X           Y           Z
 ---------------------------------------------------------------------
      1         26           0        0.188226   -0.015945   -0.470087
      2          7           0        2.202070    0.186024   -0.427427
      3          7           0        0.002137    1.975595   -0.424724
      4          7           0       -1.798495   -0.213760   -0.475899
      5          7           0        0.424518   -1.997472   -0.513741
      6          6           0        3.124840   -0.810919   -0.489905
      7          6           0        4.463427   -0.270874   -0.557677
      8          6           0        4.327327    1.083957   -0.552276
      9          6           0        2.909411    1.347498   -0.480205
     10          6           0        1.005528    2.893371   -0.374758
     11          6           0        0.474346    4.223048   -0.234233
     12          6           0       -0.886062    4.091290   -0.174773
     13          6           0       -1.157022    2.672717   -0.304824
     14          6           0       -2.717185    0.789971   -0.530893
     15          6           0       -4.044977    0.260218   -0.721261
     16          6           0       -3.915381   -1.104772   -0.734531
     17          6           0       -2.492655   -1.374090   -0.596314
     18          6           0       -0.578232   -2.914654   -0.495656
     19          6           0       -0.042736   -4.255789   -0.365886
     20          6           0        1.309376   -4.124645   -0.310393
     21          6           0        1.579040   -2.705991   -0.396148
     22          6           0        2.848398   -2.166661   -0.453746
     23          1           0        3.689275   -2.844219   -0.463395
     24          6           0        2.360724    2.614691   -0.425402
     25          1           0        3.038958    3.455591   -0.411919
     26          6           0       -2.426395    2.137291   -0.415030
     27          1           0       -3.249417    2.831778   -0.450130
     28          6           0       -1.933608   -2.641047   -0.573732
     29          1           0       -2.609159   -3.483807   -0.611193
     30          6           0        5.375305    2.143325   -0.597560
     31          1           0        6.366801    1.699926   -0.637100
     32          1           0        5.321971    2.779769    0.286467
     33          1           0        5.241569    2.772743   -1.477528
     34          6           0        5.710719   -1.088749   -0.590174
     35          1           0        5.733658   -1.729503   -1.471570
     36          1           0        5.771463   -1.728845    0.290599
     37          1           0        6.591208   -0.450086   -0.609692
     38          6           0        1.282010    5.474262   -0.177510
     39          1           0        1.941352    5.544300   -1.043555
     40          1           0        1.900390    5.500010    0.719883
     41          1           0        0.630857    6.344356   -0.164580
     42          6           0       -1.853650    5.153349   -0.002115
     43          1           0       -1.629938    6.077568   -0.523677
     44          6           0       -2.935329    5.081429    0.763817
     45          1           0       -3.167536    4.192739    1.324306
     46          1           0       -3.611761    5.912176    0.869801
     47          6           0       -5.289780    1.066693   -0.861536
     48          1           0       -5.102889    2.000577   -1.388239
     49          1           0       -5.701764    1.308699    0.119659
     50          1           0       -6.038334    0.502544   -1.413841
     51          6           0       -4.943045   -2.116044   -0.853509
     52          1           0       -4.637166   -3.041223   -1.328533
     53          6           0       -6.196809   -2.029141   -0.416376
     54          1           0       -6.575574   -1.188780    0.138766
     55          1           0       -6.893077   -2.835324   -0.580690
     56          6           0       -0.869614   -5.496213   -0.322524
     57          1           0       -1.469461   -5.584358   -1.228689
     58          1           0       -1.546496   -5.473876    0.531900
     59          1           0       -0.237547   -6.378380   -0.240379
     60          6           0        2.359900   -5.176289   -0.175092
     61          1           0        3.028058   -5.188550   -1.038352
     62          1           0        1.908143   -6.161358   -0.087020
     63          1           0        2.962206   -4.987477    0.713844
     64          8           0        0.230247    0.000778   -2.781991
     65          1           0        1.153985   -0.084852   -3.017228
     66          1           0       -0.453616    0.057666   -3.347046
     67          6           0       -0.517996   -1.398839    4.881634
     68          1           0       -1.199738   -2.213007    4.657561
     69          1           0       -1.008255   -0.708742    5.567308
     70          1           0        0.361309   -1.807801    5.379098
     71          7           0        0.673447    0.392584    3.598885
     72          1           0        1.083106    0.841420    4.400828
     73          6           0       -0.136456   -0.712160    3.622439
     74          6           0        0.833205    0.756145    2.306858
     75          1           0        1.409186    1.599218    1.985795
     76          7           0        0.178442   -0.054515    1.511844
     77          6           0       -0.436471   -0.969055    2.315739
     78          1           0       -1.053358   -1.741688    1.905487
 ---------------------------------------------------------------------
 Rotational constants (GHZ):           0.0959772           0.0917270           0.0599958
 Standard basis: def2TZVP (5D, 7F)
 There are  1744 symmetry adapted cartesian basis functions of A   symmetry.
 There are  1532 symmetry adapted basis functions of A   symmetry.
  1532 basis functions,  2481 primitive gaussians,  1744 cartesian basis functions
   160 alpha electrons      155 beta electrons
       nuclear repulsion energy      5984.7666949809 Hartrees.
 NAtoms=   78 NActive=   78 NUniq=   78 SFac= 1.00D+00 NAtFMM=   60 NAOKFM=T Big=T
 Integral buffers will be    131072 words long.
 Raffenetti 2 integral format.
 Two-electron integral symmetry is turned on.
 R6APFD:  NTU= -4 IXU= 1 FactS= 1.050
 Nuclear repulsion after empirical dispersion term =     5984.6132938095 Hartrees.
 One-electron integrals computed using PRISM.
   1 Symmetry operations used in ECPInt.
 ECPInt:  NShTT=  186355 NPrTT=  576197 LenC2=  147905 LenP2D=  302791.
 LDataN:  DoStor=T MaxTD1= 6 Len=  172
 Number of processors reduced to  23 by ecpmxn.
 NBasis=  1532 RedAO= T EigKep=  3.17D-06  NBF=  1532
 NBsUse=  1532 1.00D-06 EigRej= -1.00D+00 NBFU=  1532
 Initial guess from the checkpoint file:  "5jqr_III_Hn.chk"
 B after Tr=    -0.000000   -0.000000   -0.000000
         Rot=    1.000000   -0.000000    0.000000    0.000000 Ang=   0.00 deg.
 Initial guess <Sx>= 0.0000 <Sy>= 0.0000 <Sz>= 2.5000 <S**2>= 8.7584 S= 2.5014
 Requested convergence on RMS density matrix=1.00D-08 within 999 cycles.
 Requested convergence on MAX density matrix=1.00D-06.
 Requested convergence on             energy=1.00D-06.
 No special actions if energy rises.
 SCF Done:  E(UAPFD) =  -2983.83306023     A.U. after   17 cycles
            NFock= 17  Conv=0.58D-08     -V/T= 2.0031
 <Sx>= 0.0000 <Sy>= 0.0000 <Sz>= 2.5000 <S**2>= 8.7589 S= 2.5015
 <L.S>=  0.00000000000    
 Annihilation of the first spin contaminant:
 S**2 before annihilation     8.7589,   after     8.7500

 **********************************************************************

            Population analysis using the SCF Density.

 **********************************************************************

 Orbital symmetries:
 Alpha Orbitals:
       Occupied  (A) (A) (A) (A) (A) (A) (A) (A) (A) (A) (A) (A)
                 (A) (A) (A) (A) (A) (A) (A) (A) (A) (A) (A) (A)
                 (A) (A) (A) (A) (A) (A) (A) (A) (A) (A) (A) (A)
                 (A) (A) (A) (A) (A) (A) (A) (A) (A) (A) (A) (A)
                 (A) (A) (A) (A) (A) (A) (A) (A) (A) (A) (A) (A)
                 (A) (A) (A) (A) (A) (A) (A) (A) (A) (A) (A) (A)
                 (A) (A) (A) (A) (A) (A) (A) (A) (A) (A) (A) (A)
                 (A) (A) (A) (A) (A) (A) (A) (A) (A) (A) (A) (A)
                 (A) (A) (A) (A) (A) (A) (A) (A) (A) (A) (A) (A)
                 (A) (A) (A) (A) (A) (A) (A) (A) (A) (A) (A) (A)
                 (A) (A) (A) (A) (A) (A) (A) (A) (A) (A) (A) (A)
                 (A) (A) (A) (A) (A) (A) (A) (A) (A) (A) (A) (A)
                 (A) (A) (A) (A) (A) (A) (A) (A) (A) (A) (A) (A)
                 (A) (A) (A) (A)
       Virtual   (A) (A) (A) (A) (A) (A) (A) (A) (A) (A) (A) (A)
                 (A) (A) (A) (A) (A) (A) (A) (A) (A) (A) (A) (A)
                 (A) (A) (A) (A) (A) (A) (A) (A) (A) (A) (A) (A)
                 (A) (A) (A) (A) (A) (A) (A) (A) (A) (A) (A) (A)
                 (A) (A) (A) (A) (A) (A) (A) (A) (A) (A) (A) (A)
                 (A) (A) (A) (A) (A) (A) (A) (A) (A) (A) (A) (A)
                 (A) (A) (A) (A) (A) (A) (A) (A) (A) (A) (A) (A)
                 (A) (A) (A) (A) (A) (A) (A) (A) (A) (A) (A) (A)
                 (A) (A) (A) (A) (A) (A) (A) (A) (A) (A) (A) (A)
                 (A) (A) (A) (A) (A) (A) (A) (A) (A) (A) (A) (A)
                 (A) (A) (A) (A) (A) (A) (A) (A) (A) (A) (A) (A)
                 (A) (A) (A) (A) (A) (A) (A) (A) (A) (A) (A) (A)
                 (A) (A) (A) (A) (A) (A) (A) (A) (A) (A) (A) (A)
                 (A) (A) (A) (A) (A) (A) (A) (A) (A) (A) (A) (A)
                 (A) (A) (A) (A) (A) (A) (A) (A) (A) (A) (A) (A)
                 (A) (A) (A) (A) (A) (A) (A) (A) (A) (A) (A) (A)
                 (A) (A) (A) (A) (A) (A) (A) (A) (A) (A) (A) (A)
                 (A) (A) (A) (A) (A) (A) (A) (A) (A) (A) (A) (A)
                 (A) (A) (A) (A) (A) (A) (A) (A) (A) (A) (A) (A)
                 (A) (A) (A) (A) (A) (A) (A) (A) (A) (A) (A) (A)
                 (A) (A) (A) (A) (A) (A) (A) (A) (A) (A) (A) (A)
                 (A) (A) (A) (A) (A) (A) (A) (A) (A) (A) (A) (A)
                 (A) (A) (A) (A) (A) (A) (A) (A) (A) (A) (A) (A)
                 (A) (A) (A) (A) (A) (A) (A) (A) (A) (A) (A) (A)
                 (A) (A) (A) (A) (A) (A) (A) (A) (A) (A) (A) (A)
                 (A) (A) (A) (A) (A) (A) (A) (A) (A) (A) (A) (A)
                 (A) (A) (A) (A) (A) (A) (A) (A) (A) (A) (A) (A)
                 (A) (A) (A) (A) (A) (A) (A) (A) (A) (A) (A) (A)
                 (A) (A) (A) (A) (A) (A) (A) (A) (A) (A) (A) (A)
                 (A) (A) (A) (A) (A) (A) (A) (A) (A) (A) (A) (A)
                 (A) (A) (A) (A) (A) (A) (A) (A) (A) (A) (A) (A)
                 (A) (A) (A) (A) (A) (A) (A) (A) (A) (A) (A) (A)
                 (A) (A) (A) (A) (A) (A) (A) (A) (A) (A) (A) (A)
                 (A) (A) (A) (A) (A) (A) (A) (A) (A) (A) (A) (A)
                 (A) (A) (A) (A) (A) (A) (A) (A) (A) (A) (A) (A)
                 (A) (A) (A) (A) (A) (A) (A) (A) (A) (A) (A) (A)
                 (A) (A) (A) (A) (A) (A) (A) (A) (A) (A) (A) (A)
                 (A) (A) (A) (A) (A) (A) (A) (A) (A) (A) (A) (A)
                 (A) (A) (A) (A) (A) (A) (A) (A) (A) (A) (A) (A)
                 (A) (A) (A) (A) (A) (A) (A) (A) (A) (A) (A) (A)
                 (A) (A) (A) (A) (A) (A) (A) (A) (A) (A) (A) (A)
                 (A) (A) (A) (A) (A) (A) (A) (A) (A) (A) (A) (A)
                 (A) (A) (A) (A) (A) (A) (A) (A) (A) (A) (A) (A)
                 (A) (A) (A) (A) (A) (A) (A) (A) (A) (A) (A) (A)
                 (A) (A) (A) (A) (A) (A) (A) (A) (A) (A) (A) (A)
                 (A) (A) (A) (A) (A) (A) (A) (A) (A) (A) (A) (A)
                 (A) (A) (A) (A) (A) (A) (A) (A) (A) (A) (A) (A)
                 (A) (A) (A) (A) (A) (A) (A) (A) (A) (A) (A) (A)
                 (A) (A) (A) (A) (A) (A) (A) (A) (A) (A) (A) (A)
                 (A) (A) (A) (A) (A) (A) (A) (A) (A) (A) (A) (A)
                 (A) (A) (A) (A) (A) (A) (A) (A) (A) (A) (A) (A)
                 (A) (A) (A) (A) (A) (A) (A) (A) (A) (A) (A) (A)
                 (A) (A) (A) (A) (A) (A) (A) (A) (A) (A) (A) (A)
                 (A) (A) (A) (A) (A) (A) (A) (A) (A) (A) (A) (A)
                 (A) (A) (A) (A) (A) (A) (A) (A) (A) (A) (A) (A)
                 (A) (A) (A) (A) (A) (A) (A) (A) (A) (A) (A) (A)
                 (A) (A) (A) (A) (A) (A) (A) (A) (A) (A) (A) (A)
                 (A) (A) (A) (A) (A) (A) (A) (A) (A) (A) (A) (A)
                 (A) (A) (A) (A) (A) (A) (A) (A) (A) (A) (A) (A)
                 (A) (A) (A) (A) (A) (A) (A) (A) (A) (A) (A) (A)
                 (A) (A) (A) (A) (A) (A) (A) (A) (A) (A) (A) (A)
                 (A) (A) (A) (A) (A) (A) (A) (A) (A) (A) (A) (A)
                 (A) (A) (A) (A) (A) (A) (A) (A) (A) (A) (A) (A)
                 (A) (A) (A) (A) (A) (A) (A) (A) (A) (A) (A) (A)
                 (A) (A) (A) (A) (A) (A) (A) (A) (A) (A) (A) (A)
                 (A) (A) (A) (A) (A) (A) (A) (A) (A) (A) (A) (A)
                 (A) (A) (A) (A) (A) (A) (A) (A) (A) (A) (A) (A)
                 (A) (A) (A) (A) (A) (A) (A) (A) (A) (A) (A) (A)
                 (A) (A) (A) (A) (A) (A) (A) (A) (A) (A) (A) (A)
                 (A) (A) (A) (A) (A) (A) (A) (A) (A) (A) (A) (A)
                 (A) (A) (A) (A) (A) (A) (A) (A) (A) (A) (A) (A)
                 (A) (A) (A) (A) (A) (A) (A) (A) (A) (A) (A) (A)
                 (A) (A) (A) (A) (A) (A) (A) (A) (A) (A) (A) (A)
                 (A) (A) (A) (A) (A) (A) (A) (A) (A) (A) (A) (A)
                 (A) (A) (A) (A) (A) (A) (A) (A) (A) (A) (A) (A)
                 (A) (A) (A) (A) (A) (A) (A) (A) (A) (A) (A) (A)
                 (A) (A) (A) (A) (A) (A) (A) (A) (A) (A) (A) (A)
                 (A) (A) (A) (A) (A) (A) (A) (A) (A) (A) (A) (A)
                 (A) (A) (A) (A) (A) (A) (A) (A) (A) (A) (A) (A)
                 (A) (A) (A) (A) (A) (A) (A) (A) (A) (A) (A) (A)
                 (A) (A) (A) (A) (A) (A) (A) (A) (A) (A) (A) (A)
                 (A) (A) (A) (A) (A) (A) (A) (A) (A) (A) (A) (A)
                 (A) (A) (A) (A) (A) (A) (A) (A) (A) (A) (A) (A)
                 (A) (A) (A) (A) (A) (A) (A) (A) (A) (A) (A) (A)
                 (A) (A) (A) (A) (A) (A) (A) (A) (A) (A) (A) (A)
                 (A) (A) (A) (A) (A) (A) (A) (A) (A) (A) (A) (A)
                 (A) (A) (A) (A) (A) (A) (A) (A) (A) (A) (A) (A)
                 (A) (A) (A) (A) (A) (A) (A) (A) (A) (A) (A) (A)
                 (A) (A) (A) (A) (A) (A) (A) (A) (A) (A) (A) (A)
                 (A) (A) (A) (A) (A) (A) (A) (A) (A) (A) (A) (A)
                 (A) (A) (A) (A) (A) (A) (A) (A) (A) (A) (A) (A)
                 (A) (A) (A) (A) (A) (A) (A) (A) (A) (A) (A) (A)
                 (A) (A) (A) (A) (A) (A) (A) (A) (A) (A) (A) (A)
                 (A) (A) (A) (A) (A) (A) (A) (A) (A) (A) (A) (A)
                 (A) (A) (A) (A) (A) (A) (A) (A) (A) (A) (A) (A)
                 (A) (A) (A) (A) (A) (A) (A) (A) (A) (A) (A) (A)
                 (A) (A) (A) (A) (A) (A) (A) (A) (A) (A) (A) (A)
                 (A) (A) (A) (A) (A) (A) (A) (A) (A) (A) (A) (A)
                 (A) (A) (A) (A) (A) (A) (A) (A) (A) (A) (A) (A)
                 (A) (A) (A) (A) (A) (A) (A) (A) (A) (A) (A) (A)
                 (A) (A) (A) (A) (A) (A) (A) (A) (A) (A) (A) (A)
                 (A) (A) (A) (A) (A) (A) (A) (A) (A) (A) (A) (A)
                 (A) (A) (A) (A) (A) (A) (A) (A) (A) (A) (A) (A)
                 (A) (A) (A) (A) (A) (A) (A) (A) (A) (A) (A) (A)
                 (A) (A) (A) (A) (A) (A) (A) (A) (A) (A) (A) (A)
                 (A) (A) (A) (A) (A) (A) (A) (A) (A) (A) (A) (A)
                 (A) (A) (A) (A) (A) (A) (A) (A) (A) (A) (A) (A)
                 (A) (A) (A) (A) (A) (A) (A) (A) (A) (A) (A) (A)
                 (A) (A) (A) (A) (A) (A) (A) (A) (A) (A) (A) (A)
                 (A) (A) (A) (A) (A) (A) (A) (A) (A) (A) (A) (A)
                 (A) (A) (A) (A) (A) (A) (A) (A) (A) (A) (A) (A)
                 (A) (A) (A) (A) (A) (A) (A) (A) (A) (A) (A) (A)
                 (A) (A) (A) (A) (A) (A) (A) (A) (A) (A) (A) (A)
                 (A) (A) (A) (A) (A) (A) (A) (A) (A) (A) (A) (A)
                 (A) (A) (A) (A)
 Beta  Orbitals:
       Occupied  (A) (A) (A) (A) (A) (A) (A) (A) (A) (A) (A) (A)
                 (A) (A) (A) (A) (A) (A) (A) (A) (A) (A) (A) (A)
                 (A) (A) (A) (A) (A) (A) (A) (A) (A) (A) (A) (A)
                 (A) (A) (A) (A) (A) (A) (A) (A) (A) (A) (A) (A)
                 (A) (A) (A) (A) (A) (A) (A) (A) (A) (A) (A) (A)
                 (A) (A) (A) (A) (A) (A) (A) (A) (A) (A) (A) (A)
                 (A) (A) (A) (A) (A) (A) (A) (A) (A) (A) (A) (A)
                 (A) (A) (A) (A) (A) (A) (A) (A) (A) (A) (A) (A)
                 (A) (A) (A) (A) (A) (A) (A) (A) (A) (A) (A) (A)
                 (A) (A) (A) (A) (A) (A) (A) (A) (A) (A) (A) (A)
                 (A) (A) (A) (A) (A) (A) (A) (A) (A) (A) (A) (A)
                 (A) (A) (A) (A) (A) (A) (A) (A) (A) (A) (A) (A)
                 (A) (A) (A) (A) (A) (A) (A) (A) (A) (A) (A)
       Virtual   (A) (A) (A) (A) (A) (A) (A) (A) (A) (A) (A) (A)
                 (A) (A) (A) (A) (A) (A) (A) (A) (A) (A) (A) (A)
                 (A) (A) (A) (A) (A) (A) (A) (A) (A) (A) (A) (A)
                 (A) (A) (A) (A) (A) (A) (A) (A) (A) (A) (A) (A)
                 (A) (A) (A) (A) (A) (A) (A) (A) (A) (A) (A) (A)
                 (A) (A) (A) (A) (A) (A) (A) (A) (A) (A) (A) (A)
                 (A) (A) (A) (A) (A) (A) (A) (A) (A) (A) (A) (A)
                 (A) (A) (A) (A) (A) (A) (A) (A) (A) (A) (A) (A)
                 (A) (A) (A) (A) (A) (A) (A) (A) (A) (A) (A) (A)
                 (A) (A) (A) (A) (A) (A) (A) (A) (A) (A) (A) (A)
                 (A) (A) (A) (A) (A) (A) (A) (A) (A) (A) (A) (A)
                 (A) (A) (A) (A) (A) (A) (A) (A) (A) (A) (A) (A)
                 (A) (A) (A) (A) (A) (A) (A) (A) (A) (A) (A) (A)
                 (A) (A) (A) (A) (A) (A) (A) (A) (A) (A) (A) (A)
                 (A) (A) (A) (A) (A) (A) (A) (A) (A) (A) (A) (A)
                 (A) (A) (A) (A) (A) (A) (A) (A) (A) (A) (A) (A)
                 (A) (A) (A) (A) (A) (A) (A) (A) (A) (A) (A) (A)
                 (A) (A) (A) (A) (A) (A) (A) (A) (A) (A) (A) (A)
                 (A) (A) (A) (A) (A) (A) (A) (A) (A) (A) (A) (A)
                 (A) (A) (A) (A) (A) (A) (A) (A) (A) (A) (A) (A)
                 (A) (A) (A) (A) (A) (A) (A) (A) (A) (A) (A) (A)
                 (A) (A) (A) (A) (A) (A) (A) (A) (A) (A) (A) (A)
                 (A) (A) (A) (A) (A) (A) (A) (A) (A) (A) (A) (A)
                 (A) (A) (A) (A) (A) (A) (A) (A) (A) (A) (A) (A)
                 (A) (A) (A) (A) (A) (A) (A) (A) (A) (A) (A) (A)
                 (A) (A) (A) (A) (A) (A) (A) (A) (A) (A) (A) (A)
                 (A) (A) (A) (A) (A) (A) (A) (A) (A) (A) (A) (A)
                 (A) (A) (A) (A) (A) (A) (A) (A) (A) (A) (A) (A)
                 (A) (A) (A) (A) (A) (A) (A) (A) (A) (A) (A) (A)
                 (A) (A) (A) (A) (A) (A) (A) (A) (A) (A) (A) (A)
                 (A) (A) (A) (A) (A) (A) (A) (A) (A) (A) (A) (A)
                 (A) (A) (A) (A) (A) (A) (A) (A) (A) (A) (A) (A)
                 (A) (A) (A) (A) (A) (A) (A) (A) (A) (A) (A) (A)
                 (A) (A) (A) (A) (A) (A) (A) (A) (A) (A) (A) (A)
                 (A) (A) (A) (A) (A) (A) (A) (A) (A) (A) (A) (A)
                 (A) (A) (A) (A) (A) (A) (A) (A) (A) (A) (A) (A)
                 (A) (A) (A) (A) (A) (A) (A) (A) (A) (A) (A) (A)
                 (A) (A) (A) (A) (A) (A) (A) (A) (A) (A) (A) (A)
                 (A) (A) (A) (A) (A) (A) (A) (A) (A) (A) (A) (A)
                 (A) (A) (A) (A) (A) (A) (A) (A) (A) (A) (A) (A)
                 (A) (A) (A) (A) (A) (A) (A) (A) (A) (A) (A) (A)
                 (A) (A) (A) (A) (A) (A) (A) (A) (A) (A) (A) (A)
                 (A) (A) (A) (A) (A) (A) (A) (A) (A) (A) (A) (A)
                 (A) (A) (A) (A) (A) (A) (A) (A) (A) (A) (A) (A)
                 (A) (A) (A) (A) (A) (A) (A) (A) (A) (A) (A) (A)
                 (A) (A) (A) (A) (A) (A) (A) (A) (A) (A) (A) (A)
                 (A) (A) (A) (A) (A) (A) (A) (A) (A) (A) (A) (A)
                 (A) (A) (A) (A) (A) (A) (A) (A) (A) (A) (A) (A)
                 (A) (A) (A) (A) (A) (A) (A) (A) (A) (A) (A) (A)
                 (A) (A) (A) (A) (A) (A) (A) (A) (A) (A) (A) (A)
                 (A) (A) (A) (A) (A) (A) (A) (A) (A) (A) (A) (A)
                 (A) (A) (A) (A) (A) (A) (A) (A) (A) (A) (A) (A)
                 (A) (A) (A) (A) (A) (A) (A) (A) (A) (A) (A) (A)
                 (A) (A) (A) (A) (A) (A) (A) (A) (A) (A) (A) (A)
                 (A) (A) (A) (A) (A) (A) (A) (A) (A) (A) (A) (A)
                 (A) (A) (A) (A) (A) (A) (A) (A) (A) (A) (A) (A)
                 (A) (A) (A) (A) (A) (A) (A) (A) (A) (A) (A) (A)
                 (A) (A) (A) (A) (A) (A) (A) (A) (A) (A) (A) (A)
                 (A) (A) (A) (A) (A) (A) (A) (A) (A) (A) (A) (A)
                 (A) (A) (A) (A) (A) (A) (A) (A) (A) (A) (A) (A)
                 (A) (A) (A) (A) (A) (A) (A) (A) (A) (A) (A) (A)
                 (A) (A) (A) (A) (A) (A) (A) (A) (A) (A) (A) (A)
                 (A) (A) (A) (A) (A) (A) (A) (A) (A) (A) (A) (A)
                 (A) (A) (A) (A) (A) (A) (A) (A) (A) (A) (A) (A)
                 (A) (A) (A) (A) (A) (A) (A) (A) (A) (A) (A) (A)
                 (A) (A) (A) (A) (A) (A) (A) (A) (A) (A) (A) (A)
                 (A) (A) (A) (A) (A) (A) (A) (A) (A) (A) (A) (A)
                 (A) (A) (A) (A) (A) (A) (A) (A) (A) (A) (A) (A)
                 (A) (A) (A) (A) (A) (A) (A) (A) (A) (A) (A) (A)
                 (A) (A) (A) (A) (A) (A) (A) (A) (A) (A) (A) (A)
                 (A) (A) (A) (A) (A) (A) (A) (A) (A) (A) (A) (A)
                 (A) (A) (A) (A) (A) (A) (A) (A) (A) (A) (A) (A)
                 (A) (A) (A) (A) (A) (A) (A) (A) (A) (A) (A) (A)
                 (A) (A) (A) (A) (A) (A) (A) (A) (A) (A) (A) (A)
                 (A) (A) (A) (A) (A) (A) (A) (A) (A) (A) (A) (A)
                 (A) (A) (A) (A) (A) (A) (A) (A) (A) (A) (A) (A)
                 (A) (A) (A) (A) (A) (A) (A) (A) (A) (A) (A) (A)
                 (A) (A) (A) (A) (A) (A) (A) (A) (A) (A) (A) (A)
                 (A) (A) (A) (A) (A) (A) (A) (A) (A) (A) (A) (A)
                 (A) (A) (A) (A) (A) (A) (A) (A) (A) (A) (A) (A)
                 (A) (A) (A) (A) (A) (A) (A) (A) (A) (A) (A) (A)
                 (A) (A) (A) (A) (A) (A) (A) (A) (A) (A) (A) (A)
                 (A) (A) (A) (A) (A) (A) (A) (A) (A) (A) (A) (A)
                 (A) (A) (A) (A) (A) (A) (A) (A) (A) (A) (A) (A)
                 (A) (A) (A) (A) (A) (A) (A) (A) (A) (A) (A) (A)
                 (A) (A) (A) (A) (A) (A) (A) (A) (A) (A) (A) (A)
                 (A) (A) (A) (A) (A) (A) (A) (A) (A) (A) (A) (A)
                 (A) (A) (A) (A) (A) (A) (A) (A) (A) (A) (A) (A)
                 (A) (A) (A) (A) (A) (A) (A) (A) (A) (A) (A) (A)
                 (A) (A) (A) (A) (A) (A) (A) (A) (A) (A) (A) (A)
                 (A) (A) (A) (A) (A) (A) (A) (A) (A) (A) (A) (A)
                 (A) (A) (A) (A) (A) (A) (A) (A) (A) (A) (A) (A)
                 (A) (A) (A) (A) (A) (A) (A) (A) (A) (A) (A) (A)
                 (A) (A) (A) (A) (A) (A) (A) (A) (A) (A) (A) (A)
                 (A) (A) (A) (A) (A) (A) (A) (A) (A) (A) (A) (A)
                 (A) (A) (A) (A) (A) (A) (A) (A) (A) (A) (A) (A)
                 (A) (A) (A) (A) (A) (A) (A) (A) (A) (A) (A) (A)
                 (A) (A) (A) (A) (A) (A) (A) (A) (A) (A) (A) (A)
                 (A) (A) (A) (A) (A) (A) (A) (A) (A) (A) (A) (A)
                 (A) (A) (A) (A) (A) (A) (A) (A) (A) (A) (A) (A)
                 (A) (A) (A) (A) (A) (A) (A) (A) (A) (A) (A) (A)
                 (A) (A) (A) (A) (A) (A) (A) (A) (A) (A) (A) (A)
                 (A) (A) (A) (A) (A) (A) (A) (A) (A) (A) (A) (A)
                 (A) (A) (A) (A) (A) (A) (A) (A) (A) (A) (A) (A)
                 (A) (A) (A) (A) (A) (A) (A) (A) (A) (A) (A) (A)
                 (A) (A) (A) (A) (A) (A) (A) (A) (A) (A) (A) (A)
                 (A) (A) (A) (A) (A) (A) (A) (A) (A) (A) (A) (A)
                 (A) (A) (A) (A) (A) (A) (A) (A) (A) (A) (A) (A)
                 (A) (A) (A) (A) (A) (A) (A) (A) (A) (A) (A) (A)
                 (A) (A) (A) (A) (A) (A) (A) (A) (A) (A) (A) (A)
                 (A) (A) (A) (A) (A) (A) (A) (A) (A) (A) (A) (A)
                 (A) (A) (A) (A) (A) (A) (A) (A) (A) (A) (A) (A)
                 (A) (A) (A) (A) (A) (A) (A) (A) (A) (A) (A) (A)
                 (A) (A) (A) (A) (A) (A) (A) (A) (A) (A) (A) (A)
                 (A) (A) (A) (A) (A) (A) (A) (A) (A)
 The electronic state is 6-A.
 Alpha  occ. eigenvalues -- -256.42433 -30.33330 -26.16367 -26.16232 -26.16193
 Alpha  occ. eigenvalues --  -19.29172 -14.52532 -14.47672 -14.44941 -14.44939
 Alpha  occ. eigenvalues --  -14.44898 -14.44756 -10.37030 -10.34326 -10.32953
 Alpha  occ. eigenvalues --  -10.32824 -10.32672 -10.32649 -10.32615 -10.32614
 Alpha  occ. eigenvalues --  -10.32569 -10.32563 -10.31759 -10.29972 -10.29946
 Alpha  occ. eigenvalues --  -10.29856 -10.29759 -10.29681 -10.29674 -10.29639
 Alpha  occ. eigenvalues --  -10.29634 -10.29620 -10.29598 -10.29550 -10.29437
 Alpha  occ. eigenvalues --  -10.29385 -10.28980 -10.28841 -10.28074 -10.28042
 Alpha  occ. eigenvalues --  -10.28022 -10.27924 -10.27903 -10.27632 -10.27624
 Alpha  occ. eigenvalues --  -10.27550  -3.78639  -2.55311  -2.55178  -2.55114
 Alpha  occ. eigenvalues --   -1.17111  -1.16559  -1.09076  -1.08064  -1.08010
 Alpha  occ. eigenvalues --   -1.07061  -1.02471  -0.93587  -0.92418  -0.92107
 Alpha  occ. eigenvalues --   -0.91557  -0.91245  -0.90798  -0.90738  -0.90475
 Alpha  occ. eigenvalues --   -0.87040  -0.85788  -0.85235  -0.84446  -0.83014
 Alpha  occ. eigenvalues --   -0.82060  -0.81159  -0.80295  -0.78759  -0.78535
 Alpha  occ. eigenvalues --   -0.78352  -0.75901  -0.75407  -0.75109  -0.72605
 Alpha  occ. eigenvalues --   -0.72266  -0.71035  -0.70623  -0.68723  -0.68478
 Alpha  occ. eigenvalues --   -0.66925  -0.65254  -0.64979  -0.64312  -0.63694
 Alpha  occ. eigenvalues --   -0.62296  -0.62113  -0.61736  -0.61273  -0.60283
 Alpha  occ. eigenvalues --   -0.59020  -0.58565  -0.58380  -0.58167  -0.56856
 Alpha  occ. eigenvalues --   -0.56422  -0.56284  -0.56058  -0.55689  -0.55123
 Alpha  occ. eigenvalues --   -0.55094  -0.54575  -0.54295  -0.53701  -0.53618
 Alpha  occ. eigenvalues --   -0.53462  -0.53283  -0.53044  -0.52917  -0.52714
 Alpha  occ. eigenvalues --   -0.52329  -0.52094  -0.51789  -0.51484  -0.51149
 Alpha  occ. eigenvalues --   -0.50826  -0.50617  -0.50339  -0.50058  -0.49833
 Alpha  occ. eigenvalues --   -0.49736  -0.49470  -0.49302  -0.49220  -0.49015
 Alpha  occ. eigenvalues --   -0.48775  -0.48441  -0.48167  -0.47919  -0.47184
 Alpha  occ. eigenvalues --   -0.47048  -0.46825  -0.46136  -0.45683  -0.45208
 Alpha  occ. eigenvalues --   -0.45070  -0.44113  -0.43795  -0.43255  -0.42852
 Alpha  occ. eigenvalues --   -0.42478  -0.41511  -0.39948  -0.39502  -0.38141
 Alpha  occ. eigenvalues --   -0.37726  -0.37546  -0.34933  -0.34130  -0.33778
 Alpha  occ. eigenvalues --   -0.33144  -0.32582  -0.32393  -0.29827  -0.29067
 Alpha virt. eigenvalues --   -0.18028  -0.17859  -0.12267  -0.09699  -0.09220
 Alpha virt. eigenvalues --   -0.08001  -0.07742  -0.06001  -0.05943  -0.05481
 Alpha virt. eigenvalues --   -0.04326  -0.03971  -0.03194  -0.02803  -0.02603
 Alpha virt. eigenvalues --   -0.02413  -0.01942  -0.01269  -0.00729  -0.00424
 Alpha virt. eigenvalues --   -0.00285  -0.00069   0.00342   0.00534   0.01100
 Alpha virt. eigenvalues --    0.01666   0.01884   0.02113   0.02261   0.02483
 Alpha virt. eigenvalues --    0.02633   0.02818   0.03191   0.03360   0.03502
 Alpha virt. eigenvalues --    0.03758   0.04053   0.04224   0.04418   0.04715
 Alpha virt. eigenvalues --    0.05026   0.05255   0.05381   0.05597   0.05736
 Alpha virt. eigenvalues --    0.05820   0.05956   0.06456   0.06937   0.07160
 Alpha virt. eigenvalues --    0.07385   0.07462   0.07502   0.08017   0.08145
 Alpha virt. eigenvalues --    0.08320   0.08601   0.08648   0.09091   0.09350
 Alpha virt. eigenvalues --    0.09529   0.09754   0.09920   0.10432   0.10556
 Alpha virt. eigenvalues --    0.10833   0.10881   0.11025   0.11239   0.11661
 Alpha virt. eigenvalues --    0.12192   0.12237   0.12343   0.12650   0.12720
 Alpha virt. eigenvalues --    0.13070   0.13424   0.13733   0.14035   0.14079
 Alpha virt. eigenvalues --    0.14296   0.14587   0.14930   0.15378   0.15577
 Alpha virt. eigenvalues --    0.16046   0.16425   0.16531   0.16665   0.17051
 Alpha virt. eigenvalues --    0.17392   0.17533   0.17807   0.18211   0.18719
 Alpha virt. eigenvalues --    0.18858   0.19460   0.19526   0.19772   0.20017
 Alpha virt. eigenvalues --    0.20204   0.20262   0.20598   0.20961   0.21183
 Alpha virt. eigenvalues --    0.21427   0.21511   0.21521   0.21829   0.22461
 Alpha virt. eigenvalues --    0.22640   0.22885   0.23224   0.23309   0.23660
 Alpha virt. eigenvalues --    0.23822   0.24141   0.24301   0.24865   0.24958
 Alpha virt. eigenvalues --    0.25372   0.25780   0.25916   0.26250   0.26301
 Alpha virt. eigenvalues --    0.26869   0.26942   0.27170   0.27588   0.27949
 Alpha virt. eigenvalues --    0.28211   0.28552   0.28707   0.29051   0.29375
 Alpha virt. eigenvalues --    0.29533   0.29759   0.30048   0.30216   0.30423
 Alpha virt. eigenvalues --    0.30588   0.30994   0.31086   0.31171   0.31606
 Alpha virt. eigenvalues --    0.31705   0.32245   0.32357   0.32522   0.32817
 Alpha virt. eigenvalues --    0.32950   0.33217   0.33432   0.33809   0.34053
 Alpha virt. eigenvalues --    0.34333   0.34510   0.34634   0.34674   0.34728
 Alpha virt. eigenvalues --    0.35254   0.35338   0.35834   0.35900   0.36213
 Alpha virt. eigenvalues --    0.36633   0.36744   0.37268   0.37352   0.37634
 Alpha virt. eigenvalues --    0.37775   0.37941   0.38024   0.38308   0.38557
 Alpha virt. eigenvalues --    0.38668   0.38961   0.39088   0.39493   0.39637
 Alpha virt. eigenvalues --    0.39741   0.40052   0.40137   0.40390   0.40473
 Alpha virt. eigenvalues --    0.40846   0.41132   0.41263   0.41327   0.41690
 Alpha virt. eigenvalues --    0.41945   0.42116   0.42483   0.42548   0.42669
 Alpha virt. eigenvalues --    0.42770   0.43142   0.43189   0.43428   0.43880
 Alpha virt. eigenvalues --    0.43908   0.44437   0.44504   0.44800   0.44882
 Alpha virt. eigenvalues --    0.45438   0.45651   0.45751   0.46189   0.46404
 Alpha virt. eigenvalues --    0.46624   0.46685   0.46839   0.47453   0.47557
 Alpha virt. eigenvalues --    0.47868   0.48040   0.48231   0.48471   0.48840
 Alpha virt. eigenvalues --    0.49279   0.49473   0.50120   0.50202   0.50392
 Alpha virt. eigenvalues --    0.50699   0.50924   0.51184   0.51610   0.51775
 Alpha virt. eigenvalues --    0.52329   0.52537   0.52937   0.53039   0.53588
 Alpha virt. eigenvalues --    0.54181   0.54327   0.54399   0.54548   0.54785
 Alpha virt. eigenvalues --    0.55090   0.55190   0.55610   0.55974   0.56317
 Alpha virt. eigenvalues --    0.56538   0.56871   0.56914   0.57217   0.57852
 Alpha virt. eigenvalues --    0.58055   0.58605   0.58663   0.58914   0.59634
 Alpha virt. eigenvalues --    0.60081   0.60443   0.60563   0.61049   0.61168
 Alpha virt. eigenvalues --    0.61476   0.61532   0.62123   0.62501   0.62838
 Alpha virt. eigenvalues --    0.63173   0.63390   0.63506   0.63788   0.64114
 Alpha virt. eigenvalues --    0.64335   0.64721   0.65442   0.65666   0.66197
 Alpha virt. eigenvalues --    0.66289   0.66944   0.67243   0.67293   0.67498
 Alpha virt. eigenvalues --    0.67580   0.67956   0.68221   0.69125   0.69287
 Alpha virt. eigenvalues --    0.69611   0.69883   0.70075   0.70327   0.71155
 Alpha virt. eigenvalues --    0.71651   0.71870   0.71943   0.72807   0.73128
 Alpha virt. eigenvalues --    0.73586   0.73849   0.74164   0.74764   0.75120
 Alpha virt. eigenvalues --    0.75745   0.76247   0.76588   0.76691   0.77107
 Alpha virt. eigenvalues --    0.77415   0.77814   0.78027   0.78410   0.78695
 Alpha virt. eigenvalues --    0.79222   0.79330   0.80200   0.80566   0.80982
 Alpha virt. eigenvalues --    0.81215   0.81732   0.82074   0.82213   0.82530
 Alpha virt. eigenvalues --    0.83590   0.83776   0.84059   0.84406   0.84496
 Alpha virt. eigenvalues --    0.84744   0.85154   0.85836   0.86092   0.86343
 Alpha virt. eigenvalues --    0.86519   0.87192   0.87610   0.87778   0.88240
 Alpha virt. eigenvalues --    0.88585   0.88682   0.88919   0.89478   0.89861
 Alpha virt. eigenvalues --    0.90152   0.90667   0.90895   0.91385   0.91429
 Alpha virt. eigenvalues --    0.91940   0.92019   0.92286   0.92650   0.92985
 Alpha virt. eigenvalues --    0.93213   0.93405   0.93895   0.94076   0.94463
 Alpha virt. eigenvalues --    0.94672   0.95072   0.95467   0.95533   0.95832
 Alpha virt. eigenvalues --    0.96281   0.97077   0.97189   0.97309   0.98133
 Alpha virt. eigenvalues --    0.98221   0.98559   0.98907   0.99238   0.99575
 Alpha virt. eigenvalues --    1.00302   1.00603   1.01251   1.01730   1.02259
 Alpha virt. eigenvalues --    1.02457   1.02815   1.03258   1.04123   1.04570
 Alpha virt. eigenvalues --    1.05462   1.05893   1.06322   1.06676   1.07128
 Alpha virt. eigenvalues --    1.07408   1.07622   1.07792   1.08309   1.08407
 Alpha virt. eigenvalues --    1.08832   1.09229   1.09884   1.10159   1.10339
 Alpha virt. eigenvalues --    1.10829   1.11357   1.11699   1.11915   1.12729
 Alpha virt. eigenvalues --    1.12958   1.13238   1.13924   1.14246   1.14665
 Alpha virt. eigenvalues --    1.15047   1.15625   1.15945   1.16739   1.16868
 Alpha virt. eigenvalues --    1.17248   1.17467   1.17817   1.17887   1.18482
 Alpha virt. eigenvalues --    1.18710   1.18876   1.19923   1.20310   1.20487
 Alpha virt. eigenvalues --    1.20764   1.21213   1.21516   1.21675   1.21936
 Alpha virt. eigenvalues --    1.23003   1.23436   1.23604   1.24199   1.24796
 Alpha virt. eigenvalues --    1.25933   1.26099   1.26627   1.26766   1.27525
 Alpha virt. eigenvalues --    1.28363   1.28601   1.29459   1.29740   1.30398
 Alpha virt. eigenvalues --    1.31239   1.31801   1.32531   1.32813   1.33169
 Alpha virt. eigenvalues --    1.33824   1.34169   1.34396   1.34657   1.35298
 Alpha virt. eigenvalues --    1.35689   1.36182   1.36650   1.37038   1.37404
 Alpha virt. eigenvalues --    1.37847   1.38095   1.38450   1.39104   1.39319
 Alpha virt. eigenvalues --    1.39654   1.39876   1.39947   1.40575   1.40876
 Alpha virt. eigenvalues --    1.41083   1.41648   1.41823   1.42104   1.42684
 Alpha virt. eigenvalues --    1.42909   1.43176   1.43415   1.43505   1.43889
 Alpha virt. eigenvalues --    1.43973   1.44317   1.44626   1.44937   1.45130
 Alpha virt. eigenvalues --    1.45467   1.45936   1.46097   1.46165   1.46478
 Alpha virt. eigenvalues --    1.46713   1.46861   1.47322   1.47450   1.47577
 Alpha virt. eigenvalues --    1.48076   1.48200   1.48442   1.48488   1.48994
 Alpha virt. eigenvalues --    1.49289   1.49347   1.49911   1.50088   1.50358
 Alpha virt. eigenvalues --    1.50878   1.51337   1.51537   1.51845   1.52134
 Alpha virt. eigenvalues --    1.52559   1.52859   1.53138   1.53244   1.53575
 Alpha virt. eigenvalues --    1.53873   1.54111   1.54518   1.54598   1.55104
 Alpha virt. eigenvalues --    1.55380   1.55743   1.55872   1.56230   1.56651
 Alpha virt. eigenvalues --    1.57346   1.57881   1.57960   1.58419   1.58658
 Alpha virt. eigenvalues --    1.59240   1.59268   1.59681   1.60068   1.60501
 Alpha virt. eigenvalues --    1.60648   1.60868   1.61337   1.61918   1.62205
 Alpha virt. eigenvalues --    1.62686   1.63305   1.63528   1.63719   1.64036
 Alpha virt. eigenvalues --    1.64604   1.65317   1.65442   1.65614   1.66584
 Alpha virt. eigenvalues --    1.67542   1.68427   1.68929   1.69219   1.69806
 Alpha virt. eigenvalues --    1.70517   1.71164   1.71795   1.72179   1.72632
 Alpha virt. eigenvalues --    1.73081   1.73531   1.73849   1.73930   1.74746
 Alpha virt. eigenvalues --    1.74795   1.75176   1.75695   1.76206   1.76481
 Alpha virt. eigenvalues --    1.76858   1.77367   1.77720   1.77875   1.78378
 Alpha virt. eigenvalues --    1.78917   1.79413   1.80005   1.80145   1.80664
 Alpha virt. eigenvalues --    1.81502   1.82039   1.82423   1.82868   1.83342
 Alpha virt. eigenvalues --    1.83695   1.84275   1.85135   1.85693   1.86251
 Alpha virt. eigenvalues --    1.86608   1.86865   1.87236   1.87867   1.88340
 Alpha virt. eigenvalues --    1.88525   1.89051   1.89202   1.89690   1.90219
 Alpha virt. eigenvalues --    1.90463   1.90916   1.91389   1.91539   1.91818
 Alpha virt. eigenvalues --    1.92200   1.92652   1.93479   1.93871   1.94352
 Alpha virt. eigenvalues --    1.94437   1.95548   1.96281   1.97124   1.97213
 Alpha virt. eigenvalues --    1.97766   1.98114   1.98228   1.98982   1.99248
 Alpha virt. eigenvalues --    1.99617   2.00286   2.00593   2.00868   2.01134
 Alpha virt. eigenvalues --    2.01688   2.02274   2.02581   2.02777   2.03422
 Alpha virt. eigenvalues --    2.03676   2.04528   2.04650   2.05014   2.06056
 Alpha virt. eigenvalues --    2.06199   2.06318   2.07586   2.07732   2.08081
 Alpha virt. eigenvalues --    2.08418   2.09154   2.09503   2.09889   2.10388
 Alpha virt. eigenvalues --    2.10832   2.11681   2.12131   2.12415   2.12758
 Alpha virt. eigenvalues --    2.13622   2.14541   2.15003   2.15443   2.15775
 Alpha virt. eigenvalues --    2.15965   2.16670   2.16816   2.17552   2.17846
 Alpha virt. eigenvalues --    2.18109   2.18478   2.18899   2.19492   2.19644
 Alpha virt. eigenvalues --    2.20407   2.20508   2.21226   2.21408   2.22414
 Alpha virt. eigenvalues --    2.22983   2.23291   2.23410   2.23885   2.24755
 Alpha virt. eigenvalues --    2.25153   2.25527   2.25865   2.26071   2.26540
 Alpha virt. eigenvalues --    2.26888   2.27814   2.27841   2.28091   2.28490
 Alpha virt. eigenvalues --    2.29014   2.29264   2.29758   2.30110   2.30836
 Alpha virt. eigenvalues --    2.30995   2.31489   2.31902   2.32662   2.32724
 Alpha virt. eigenvalues --    2.33547   2.33604   2.34256   2.34740   2.35145
 Alpha virt. eigenvalues --    2.35574   2.36166   2.36370   2.36509   2.37048
 Alpha virt. eigenvalues --    2.37757   2.37940   2.38355   2.38933   2.39350
 Alpha virt. eigenvalues --    2.39660   2.39832   2.40697   2.41172   2.41480
 Alpha virt. eigenvalues --    2.41942   2.42174   2.43197   2.43645   2.43652
 Alpha virt. eigenvalues --    2.43956   2.44164   2.44204   2.45043   2.45411
 Alpha virt. eigenvalues --    2.46437   2.46703   2.46864   2.46992   2.47323
 Alpha virt. eigenvalues --    2.47468   2.47862   2.48249   2.48689   2.49290
 Alpha virt. eigenvalues --    2.49663   2.50117   2.50438   2.50713   2.50891
 Alpha virt. eigenvalues --    2.51277   2.51706   2.51965   2.52833   2.53006
 Alpha virt. eigenvalues --    2.53673   2.54094   2.54771   2.55016   2.55450
 Alpha virt. eigenvalues --    2.55780   2.56094   2.56637   2.57233   2.57265
 Alpha virt. eigenvalues --    2.57400   2.57960   2.58350   2.58634   2.59167
 Alpha virt. eigenvalues --    2.59336   2.59987   2.60351   2.60823   2.60843
 Alpha virt. eigenvalues --    2.61319   2.62063   2.62092   2.62568   2.63181
 Alpha virt. eigenvalues --    2.63513   2.64293   2.64522   2.64733   2.65534
 Alpha virt. eigenvalues --    2.65904   2.66337   2.66569   2.66956   2.67424
 Alpha virt. eigenvalues --    2.68027   2.68816   2.69204   2.69767   2.69853
 Alpha virt. eigenvalues --    2.70098   2.70510   2.70799   2.71211   2.71863
 Alpha virt. eigenvalues --    2.72402   2.73137   2.73538   2.73648   2.73943
 Alpha virt. eigenvalues --    2.74226   2.74854   2.75479   2.75661   2.75771
 Alpha virt. eigenvalues --    2.76051   2.76462   2.77238   2.77683   2.78064
 Alpha virt. eigenvalues --    2.78245   2.78676   2.78805   2.79229   2.79628
 Alpha virt. eigenvalues --    2.79714   2.80405   2.81223   2.81398   2.81609
 Alpha virt. eigenvalues --    2.82057   2.82586   2.82728   2.82902   2.83240
 Alpha virt. eigenvalues --    2.83952   2.84559   2.84642   2.84945   2.85339
 Alpha virt. eigenvalues --    2.85544   2.86051   2.86239   2.86732   2.87044
 Alpha virt. eigenvalues --    2.87439   2.87596   2.88400   2.88599   2.89276
 Alpha virt. eigenvalues --    2.89653   2.89750   2.90472   2.90696   2.91146
 Alpha virt. eigenvalues --    2.91434   2.92025   2.92317   2.92963   2.93402
 Alpha virt. eigenvalues --    2.93589   2.93879   2.94213   2.94741   2.95097
 Alpha virt. eigenvalues --    2.95338   2.95983   2.96164   2.96638   2.96814
 Alpha virt. eigenvalues --    2.97308   2.97701   2.97831   2.98085   2.98780
 Alpha virt. eigenvalues --    2.99025   2.99354   2.99429   2.99848   2.99951
 Alpha virt. eigenvalues --    3.00486   3.00645   3.01012   3.01337   3.01769
 Alpha virt. eigenvalues --    3.01931   3.02315   3.02715   3.03687   3.03764
 Alpha virt. eigenvalues --    3.04169   3.04248   3.04739   3.05143   3.05796
 Alpha virt. eigenvalues --    3.05952   3.06142   3.06379   3.06526   3.06641
 Alpha virt. eigenvalues --    3.07437   3.07825   3.08341   3.08673   3.09058
 Alpha virt. eigenvalues --    3.09243   3.09478   3.09865   3.09945   3.10476
 Alpha virt. eigenvalues --    3.10577   3.10967   3.11286   3.11607   3.11965
 Alpha virt. eigenvalues --    3.12549   3.13070   3.13204   3.13278   3.13830
 Alpha virt. eigenvalues --    3.14221   3.14335   3.14579   3.14909   3.15166
 Alpha virt. eigenvalues --    3.15546   3.15645   3.15789   3.16331   3.16399
 Alpha virt. eigenvalues --    3.16919   3.17186   3.17352   3.17576   3.17930
 Alpha virt. eigenvalues --    3.18157   3.18504   3.19186   3.19314   3.19644
 Alpha virt. eigenvalues --    3.19722   3.20483   3.20632   3.20861   3.21300
 Alpha virt. eigenvalues --    3.21536   3.21775   3.21849   3.22186   3.22440
 Alpha virt. eigenvalues --    3.22828   3.22984   3.23191   3.23362   3.23460
 Alpha virt. eigenvalues --    3.23731   3.24186   3.24812   3.25002   3.25201
 Alpha virt. eigenvalues --    3.25443   3.25511   3.25731   3.25865   3.26365
 Alpha virt. eigenvalues --    3.26382   3.26800   3.27339   3.27682   3.27981
 Alpha virt. eigenvalues --    3.28193   3.28332   3.28745   3.28939   3.29366
 Alpha virt. eigenvalues --    3.29698   3.30068   3.30337   3.30672   3.30864
 Alpha virt. eigenvalues --    3.31248   3.31504   3.31811   3.32393   3.32573
 Alpha virt. eigenvalues --    3.32865   3.33135   3.33794   3.34165   3.34529
 Alpha virt. eigenvalues --    3.35174   3.35482   3.35927   3.36218   3.36861
 Alpha virt. eigenvalues --    3.37294   3.37667   3.38273   3.38451   3.38755
 Alpha virt. eigenvalues --    3.39252   3.40005   3.41003   3.41019   3.41478
 Alpha virt. eigenvalues --    3.42375   3.42731   3.43449   3.43491   3.43893
 Alpha virt. eigenvalues --    3.44319   3.44604   3.45222   3.45786   3.46159
 Alpha virt. eigenvalues --    3.46602   3.47150   3.47338   3.48005   3.48145
 Alpha virt. eigenvalues --    3.48898   3.49314   3.49470   3.50093   3.50501
 Alpha virt. eigenvalues --    3.50786   3.51213   3.51691   3.52634   3.52923
 Alpha virt. eigenvalues --    3.53200   3.54273   3.54606   3.55029   3.55283
 Alpha virt. eigenvalues --    3.55483   3.56228   3.56747   3.57117   3.57532
 Alpha virt. eigenvalues --    3.57757   3.58329   3.58456   3.59416   3.60118
 Alpha virt. eigenvalues --    3.60539   3.60662   3.61217   3.61633   3.61819
 Alpha virt. eigenvalues --    3.61919   3.62258   3.62416   3.63143   3.63735
 Alpha virt. eigenvalues --    3.64050   3.64520   3.64785   3.65405   3.65793
 Alpha virt. eigenvalues --    3.66018   3.66516   3.67113   3.67837   3.68378
 Alpha virt. eigenvalues --    3.69169   3.69477   3.70275   3.70664   3.70971
 Alpha virt. eigenvalues --    3.71141   3.71550   3.72228   3.72393   3.73174
 Alpha virt. eigenvalues --    3.73485   3.75083   3.75662   3.75973   3.76652
 Alpha virt. eigenvalues --    3.77561   3.78253   3.78941   3.79296   3.79786
 Alpha virt. eigenvalues --    3.80036   3.80370   3.80854   3.81332   3.81907
 Alpha virt. eigenvalues --    3.82302   3.82571   3.83547   3.84223   3.84363
 Alpha virt. eigenvalues --    3.85098   3.86078   3.86153   3.86961   3.87372
 Alpha virt. eigenvalues --    3.88269   3.88636   3.89352   3.89417   3.89670
 Alpha virt. eigenvalues --    3.89875   3.91112   3.91208   3.92034   3.92303
 Alpha virt. eigenvalues --    3.92925   3.93788   3.94459   3.94962   3.95597
 Alpha virt. eigenvalues --    3.95981   3.96300   3.97930   3.98142   3.99382
 Alpha virt. eigenvalues --    3.99658   3.99751   4.00483   4.01161   4.02169
 Alpha virt. eigenvalues --    4.03085   4.03894   4.04484   4.04545   4.04734
 Alpha virt. eigenvalues --    4.06217   4.06427   4.06752   4.07470   4.07698
 Alpha virt. eigenvalues --    4.08435   4.08753   4.09502   4.10171   4.10482
 Alpha virt. eigenvalues --    4.10530   4.11208   4.12034   4.12887   4.13342
 Alpha virt. eigenvalues --    4.13607   4.13748   4.14040   4.15305   4.15759
 Alpha virt. eigenvalues --    4.16386   4.17268   4.19366   4.19478   4.19695
 Alpha virt. eigenvalues --    4.20194   4.20995   4.21620   4.22392   4.22937
 Alpha virt. eigenvalues --    4.23434   4.24055   4.24505   4.24837   4.25379
 Alpha virt. eigenvalues --    4.26046   4.27249   4.27964   4.29210   4.29466
 Alpha virt. eigenvalues --    4.30114   4.30203   4.30773   4.31088   4.31423
 Alpha virt. eigenvalues --    4.31994   4.32393   4.32917   4.33087   4.33799
 Alpha virt. eigenvalues --    4.34024   4.34635   4.35299   4.35542   4.35904
 Alpha virt. eigenvalues --    4.36013   4.36725   4.37861   4.38244   4.39780
 Alpha virt. eigenvalues --    4.41093   4.41741   4.43172   4.43601   4.44596
 Alpha virt. eigenvalues --    4.45880   4.46382   4.47051   4.48079   4.49044
 Alpha virt. eigenvalues --    4.50254   4.51945   4.52145   4.52984   4.54481
 Alpha virt. eigenvalues --    4.54770   4.55155   4.56531   4.57628   4.58024
 Alpha virt. eigenvalues --    4.58344   4.58901   4.59804   4.61091   4.61423
 Alpha virt. eigenvalues --    4.62485   4.63142   4.64210   4.64758   4.65364
 Alpha virt. eigenvalues --    4.65501   4.67108   4.68387   4.68961   4.70090
 Alpha virt. eigenvalues --    4.70298   4.71837   4.72528   4.72946   4.73696
 Alpha virt. eigenvalues --    4.74145   4.74249   4.75049   4.75717   4.76428
 Alpha virt. eigenvalues --    4.76832   4.77385   4.78773   4.79112   4.80337
 Alpha virt. eigenvalues --    4.81749   4.82522   4.83302   4.83539   4.83876
 Alpha virt. eigenvalues --    4.84376   4.85426   4.86146   4.86927   4.88225
 Alpha virt. eigenvalues --    4.90889   4.91368   4.91597   4.91684   4.92213
 Alpha virt. eigenvalues --    4.93197   4.93995   4.95553   4.95845   4.96376
 Alpha virt. eigenvalues --    4.97705   4.98224   4.99516   4.99942   5.00799
 Alpha virt. eigenvalues --    5.01072   5.03303   5.03612   5.06145   5.07526
 Alpha virt. eigenvalues --    5.08157   5.09148   5.09891   5.10413   5.10599
 Alpha virt. eigenvalues --    5.12158   5.12967   5.13979   5.15220   5.16407
 Alpha virt. eigenvalues --    5.17828   5.18586   5.19313   5.21992   5.23635
 Alpha virt. eigenvalues --    5.25027   5.25601   5.26168   5.26635   5.26994
 Alpha virt. eigenvalues --    5.27722   5.28417   5.29798   5.30366   5.31731
 Alpha virt. eigenvalues --    5.32669   5.33723   5.36209   5.36683   5.38372
 Alpha virt. eigenvalues --    5.38942   5.39856   5.40392   5.40700   5.41321
 Alpha virt. eigenvalues --    5.44137   5.46082   5.49356   5.50245   5.50870
 Alpha virt. eigenvalues --    5.51195   5.51508   5.52379   5.52615   5.54391
 Alpha virt. eigenvalues --    5.55908   5.57206   5.57388   5.59782   5.63473
 Alpha virt. eigenvalues --    5.64550   5.65797   5.66580   5.69378   5.71148
 Alpha virt. eigenvalues --    5.78477   5.80556   5.80988   5.82901   5.86413
 Alpha virt. eigenvalues --    5.89633   5.90567   5.91748   5.98163   5.98628
 Alpha virt. eigenvalues --    6.00565   6.01077   6.01766   6.06358   6.07202
 Alpha virt. eigenvalues --    6.12330   6.14979   6.22780   6.23370   6.29961
 Alpha virt. eigenvalues --    6.35217   6.38860   6.41298   6.52640   6.83066
 Alpha virt. eigenvalues --    7.15510  22.25831  22.27696  22.35425  22.36530
 Alpha virt. eigenvalues --   22.37336  22.43957  22.45637  22.52941  22.53558
 Alpha virt. eigenvalues --   22.67850  22.75690  22.78266  22.81253  22.82784
 Alpha virt. eigenvalues --   22.84596  22.85733  22.86471  22.93128  22.93963
 Alpha virt. eigenvalues --   22.99530  23.04582  23.15760  23.18381  23.18912
 Alpha virt. eigenvalues --   23.20473  23.29839  23.31350  23.40317  23.41898
 Alpha virt. eigenvalues --   23.46602  23.63564  23.67283  23.69421  23.78004
 Alpha virt. eigenvalues --   32.30423  32.67932  32.80387  32.84746  32.91930
 Alpha virt. eigenvalues --   32.99061  43.92675
  Beta  occ. eigenvalues -- -256.42278 -30.23655 -26.08286 -26.08139 -26.08115
  Beta  occ. eigenvalues --  -19.29037 -14.52515 -14.47305 -14.44638 -14.44631
  Beta  occ. eigenvalues --  -14.44603 -14.44459 -10.37012 -10.34310 -10.32930
  Beta  occ. eigenvalues --  -10.32802 -10.32649 -10.32626 -10.32597 -10.32596
  Beta  occ. eigenvalues --  -10.32547 -10.32539 -10.31757 -10.29944 -10.29936
  Beta  occ. eigenvalues --  -10.29821 -10.29727 -10.29675 -10.29651 -10.29605
  Beta  occ. eigenvalues --  -10.29602 -10.29598 -10.29588 -10.29517 -10.29443
  Beta  occ. eigenvalues --  -10.29387 -10.28985 -10.28849 -10.28073 -10.28042
  Beta  occ. eigenvalues --  -10.28021 -10.27923 -10.27903 -10.27624 -10.27619
  Beta  occ. eigenvalues --  -10.27533  -3.55857  -2.31145  -2.30766  -2.30712
  Beta  occ. eigenvalues --   -1.16886  -1.16361  -1.08706  -1.07699  -1.07649
  Beta  occ. eigenvalues --   -1.06672  -1.02106  -0.93528  -0.92248  -0.91949
  Beta  occ. eigenvalues --   -0.91380  -0.91072  -0.90698  -0.90628  -0.90423
  Beta  occ. eigenvalues --   -0.86978  -0.85716  -0.85181  -0.84387  -0.82983
  Beta  occ. eigenvalues --   -0.81962  -0.81049  -0.80157  -0.78602  -0.78416
  Beta  occ. eigenvalues --   -0.78148  -0.75514  -0.75309  -0.75014  -0.72462
  Beta  occ. eigenvalues --   -0.72152  -0.70856  -0.70435  -0.68608  -0.68060
  Beta  occ. eigenvalues --   -0.66706  -0.65120  -0.64786  -0.64111  -0.62993
  Beta  occ. eigenvalues --   -0.61932  -0.61664  -0.61072  -0.59072  -0.58780
  Beta  occ. eigenvalues --   -0.58491  -0.58166  -0.57916  -0.56356  -0.55889
  Beta  occ. eigenvalues --   -0.55097  -0.54846  -0.54422  -0.54107  -0.53665
  Beta  occ. eigenvalues --   -0.53553  -0.53412  -0.53348  -0.52977  -0.52870
  Beta  occ. eigenvalues --   -0.52654  -0.52437  -0.51972  -0.51364  -0.51142
  Beta  occ. eigenvalues --   -0.50807  -0.50607  -0.50459  -0.50178  -0.50064
  Beta  occ. eigenvalues --   -0.49917  -0.49681  -0.49646  -0.49561  -0.49184
  Beta  occ. eigenvalues --   -0.48657  -0.48303  -0.48023  -0.47866  -0.47649
  Beta  occ. eigenvalues --   -0.47207  -0.47070  -0.46891  -0.46142  -0.45930
  Beta  occ. eigenvalues --   -0.45596  -0.44939  -0.44249  -0.44007  -0.43276
  Beta  occ. eigenvalues --   -0.43026  -0.42748  -0.41658  -0.41169  -0.39676
  Beta  occ. eigenvalues --   -0.39391  -0.37762  -0.37602  -0.35011  -0.34061
  Beta  occ. eigenvalues --   -0.34033  -0.32836  -0.32421  -0.29830  -0.28960
  Beta virt. eigenvalues --   -0.21098  -0.20961  -0.19607  -0.16738  -0.16623
  Beta virt. eigenvalues --   -0.14488  -0.12123  -0.11576  -0.09164  -0.08979
  Beta virt. eigenvalues --   -0.07831  -0.07420  -0.05904  -0.05609  -0.05252
  Beta virt. eigenvalues --   -0.04301  -0.03923  -0.03164  -0.02596  -0.02357
  Beta virt. eigenvalues --   -0.02133  -0.01870  -0.01218  -0.00609  -0.00352
  Beta virt. eigenvalues --   -0.00236  -0.00034   0.00377   0.00579   0.01137
  Beta virt. eigenvalues --    0.01691   0.01911   0.02282   0.02348   0.02541
  Beta virt. eigenvalues --    0.02662   0.02897   0.03408   0.03482   0.03580
  Beta virt. eigenvalues --    0.03841   0.04076   0.04262   0.04465   0.04753
  Beta virt. eigenvalues --    0.05078   0.05351   0.05474   0.05656   0.05801
  Beta virt. eigenvalues --    0.05925   0.06023   0.06511   0.06982   0.07209
  Beta virt. eigenvalues --    0.07444   0.07513   0.07560   0.08079   0.08189
  Beta virt. eigenvalues --    0.08391   0.08700   0.08752   0.09166   0.09405
  Beta virt. eigenvalues --    0.09587   0.09828   0.10161   0.10570   0.10598
  Beta virt. eigenvalues --    0.10894   0.10990   0.11135   0.11300   0.11821
  Beta virt. eigenvalues --    0.12262   0.12330   0.12732   0.12751   0.13169
  Beta virt. eigenvalues --    0.13478   0.13539   0.13952   0.14149   0.14387
  Beta virt. eigenvalues --    0.14511   0.14764   0.15081   0.15538   0.15837
  Beta virt. eigenvalues --    0.16144   0.16580   0.16736   0.17041   0.17478
  Beta virt. eigenvalues --    0.17554   0.17663   0.17907   0.18552   0.18951
  Beta virt. eigenvalues --    0.19047   0.19596   0.19675   0.19932   0.20177
  Beta virt. eigenvalues --    0.20431   0.20504   0.20807   0.21101   0.21343
  Beta virt. eigenvalues --    0.21515   0.21582   0.21700   0.22031   0.22620
  Beta virt. eigenvalues --    0.22974   0.23113   0.23388   0.23741   0.23770
  Beta virt. eigenvalues --    0.24132   0.24368   0.24473   0.24933   0.25088
  Beta virt. eigenvalues --    0.25530   0.26021   0.26101   0.26415   0.26502
  Beta virt. eigenvalues --    0.27002   0.27083   0.27343   0.27791   0.28033
  Beta virt. eigenvalues --    0.28403   0.28859   0.28958   0.29253   0.29516
  Beta virt. eigenvalues --    0.29602   0.29883   0.30123   0.30400   0.30553
  Beta virt. eigenvalues --    0.30782   0.31164   0.31208   0.31369   0.31758
  Beta virt. eigenvalues --    0.31898   0.32357   0.32562   0.32690   0.32886
  Beta virt. eigenvalues --    0.33278   0.33342   0.33724   0.33963   0.34171
  Beta virt. eigenvalues --    0.34591   0.34645   0.34673   0.34824   0.35082
  Beta virt. eigenvalues --    0.35392   0.35528   0.35983   0.36028   0.36332
  Beta virt. eigenvalues --    0.36747   0.36872   0.37399   0.37548   0.37722
  Beta virt. eigenvalues --    0.37894   0.38045   0.38107   0.38384   0.38645
  Beta virt. eigenvalues --    0.38752   0.39030   0.39184   0.39628   0.39703
  Beta virt. eigenvalues --    0.39856   0.40147   0.40276   0.40462   0.40550
  Beta virt. eigenvalues --    0.40977   0.41265   0.41369   0.41459   0.41857
  Beta virt. eigenvalues --    0.42044   0.42164   0.42547   0.42625   0.42909
  Beta virt. eigenvalues --    0.42970   0.43221   0.43300   0.43658   0.44014
  Beta virt. eigenvalues --    0.44110   0.44509   0.44610   0.44970   0.45021
  Beta virt. eigenvalues --    0.45532   0.45773   0.45904   0.46364   0.46502
  Beta virt. eigenvalues --    0.46747   0.46877   0.46971   0.47576   0.47637
  Beta virt. eigenvalues --    0.47952   0.48150   0.48335   0.48616   0.48959
  Beta virt. eigenvalues --    0.49366   0.49615   0.50271   0.50295   0.50516
  Beta virt. eigenvalues --    0.50906   0.51067   0.51305   0.51739   0.51891
  Beta virt. eigenvalues --    0.52442   0.52701   0.53063   0.53206   0.53702
  Beta virt. eigenvalues --    0.54343   0.54510   0.54565   0.54710   0.54915
  Beta virt. eigenvalues --    0.55252   0.55320   0.55768   0.56079   0.56426
  Beta virt. eigenvalues --    0.56679   0.57018   0.57088   0.57369   0.57988
  Beta virt. eigenvalues --    0.58135   0.58774   0.58808   0.59084   0.59777
  Beta virt. eigenvalues --    0.60204   0.60711   0.60844   0.61233   0.61357
  Beta virt. eigenvalues --    0.61628   0.61685   0.62217   0.62754   0.62983
  Beta virt. eigenvalues --    0.63283   0.63604   0.63936   0.64001   0.64247
  Beta virt. eigenvalues --    0.64660   0.64867   0.65674   0.65865   0.66397
  Beta virt. eigenvalues --    0.66515   0.67039   0.67316   0.67393   0.67601
  Beta virt. eigenvalues --    0.67696   0.68048   0.68327   0.69231   0.69407
  Beta virt. eigenvalues --    0.69722   0.69977   0.70183   0.70618   0.71269
  Beta virt. eigenvalues --    0.71744   0.71977   0.72042   0.72939   0.73196
  Beta virt. eigenvalues --    0.73675   0.74096   0.74233   0.74887   0.75293
  Beta virt. eigenvalues --    0.75869   0.76339   0.76739   0.76878   0.77220
  Beta virt. eigenvalues --    0.77604   0.78092   0.78139   0.78484   0.78896
  Beta virt. eigenvalues --    0.79396   0.79474   0.80341   0.80880   0.81149
  Beta virt. eigenvalues --    0.81378   0.81848   0.82202   0.82406   0.82661
  Beta virt. eigenvalues --    0.83754   0.83950   0.84169   0.84537   0.84775
  Beta virt. eigenvalues --    0.85086   0.85281   0.85931   0.86192   0.86472
  Beta virt. eigenvalues --    0.86684   0.87428   0.87730   0.88091   0.88404
  Beta virt. eigenvalues --    0.88740   0.88819   0.89050   0.89714   0.89971
  Beta virt. eigenvalues --    0.90346   0.90891   0.91001   0.91536   0.91594
  Beta virt. eigenvalues --    0.92113   0.92256   0.92523   0.92885   0.93084
  Beta virt. eigenvalues --    0.93387   0.93643   0.94002   0.94212   0.94620
  Beta virt. eigenvalues --    0.94995   0.95286   0.95607   0.95790   0.96107
  Beta virt. eigenvalues --    0.96557   0.97332   0.97412   0.97840   0.98326
  Beta virt. eigenvalues --    0.98535   0.98817   0.99229   0.99507   0.99995
  Beta virt. eigenvalues --    1.00795   1.00894   1.01539   1.01862   1.02412
  Beta virt. eigenvalues --    1.02768   1.03140   1.03582   1.04617   1.04807
  Beta virt. eigenvalues --    1.05626   1.06206   1.06661   1.06907   1.07333
  Beta virt. eigenvalues --    1.07644   1.07782   1.07936   1.08406   1.08764
  Beta virt. eigenvalues --    1.09294   1.09482   1.10179   1.10290   1.10510
  Beta virt. eigenvalues --    1.11000   1.11589   1.11883   1.12163   1.13055
  Beta virt. eigenvalues --    1.13271   1.13463   1.14069   1.14489   1.14879
  Beta virt. eigenvalues --    1.15420   1.15888   1.16132   1.17078   1.17469
  Beta virt. eigenvalues --    1.17566   1.17798   1.18011   1.18160   1.18622
  Beta virt. eigenvalues --    1.18869   1.19039   1.20126   1.20456   1.20680
  Beta virt. eigenvalues --    1.21151   1.21387   1.21698   1.21861   1.22131
  Beta virt. eigenvalues --    1.23174   1.23687   1.23846   1.24371   1.24974
  Beta virt. eigenvalues --    1.26123   1.26240   1.27019   1.27185   1.27744
  Beta virt. eigenvalues --    1.28550   1.28810   1.29601   1.29875   1.30609
  Beta virt. eigenvalues --    1.31483   1.31921   1.32649   1.32888   1.33531
  Beta virt. eigenvalues --    1.33982   1.34375   1.34715   1.35001   1.35501
  Beta virt. eigenvalues --    1.35845   1.36457   1.36797   1.37332   1.37614
  Beta virt. eigenvalues --    1.38155   1.38386   1.38556   1.39245   1.39503
  Beta virt. eigenvalues --    1.39792   1.39998   1.40199   1.40785   1.41078
  Beta virt. eigenvalues --    1.41275   1.41848   1.41971   1.42228   1.42980
  Beta virt. eigenvalues --    1.43031   1.43252   1.43523   1.43665   1.44012
  Beta virt. eigenvalues --    1.44231   1.44594   1.44794   1.45169   1.45250
  Beta virt. eigenvalues --    1.45558   1.46008   1.46198   1.46311   1.46521
  Beta virt. eigenvalues --    1.46821   1.46926   1.47424   1.47650   1.47737
  Beta virt. eigenvalues --    1.48152   1.48313   1.48502   1.48675   1.49085
  Beta virt. eigenvalues --    1.49391   1.49431   1.49995   1.50180   1.50488
  Beta virt. eigenvalues --    1.51010   1.51445   1.51673   1.51966   1.52288
  Beta virt. eigenvalues --    1.52742   1.52956   1.53245   1.53330   1.53692
  Beta virt. eigenvalues --    1.53993   1.54201   1.54696   1.54727   1.55304
  Beta virt. eigenvalues --    1.55507   1.55900   1.55946   1.56325   1.56783
  Beta virt. eigenvalues --    1.57555   1.57969   1.58034   1.58505   1.58727
  Beta virt. eigenvalues --    1.59310   1.59395   1.59824   1.60155   1.60629
  Beta virt. eigenvalues --    1.60795   1.61008   1.61474   1.62025   1.62355
  Beta virt. eigenvalues --    1.62879   1.63385   1.63601   1.63791   1.64155
  Beta virt. eigenvalues --    1.64746   1.65434   1.65728   1.65831   1.66696
  Beta virt. eigenvalues --    1.67701   1.68538   1.69026   1.69305   1.69898
  Beta virt. eigenvalues --    1.70602   1.71290   1.71881   1.72264   1.72785
  Beta virt. eigenvalues --    1.73322   1.73619   1.74064   1.74233   1.74830
  Beta virt. eigenvalues --    1.74925   1.75264   1.75796   1.76329   1.76726
  Beta virt. eigenvalues --    1.76952   1.77482   1.77878   1.77967   1.78586
  Beta virt. eigenvalues --    1.79009   1.79558   1.80119   1.80245   1.80795
  Beta virt. eigenvalues --    1.81806   1.82412   1.82712   1.83207   1.83609
  Beta virt. eigenvalues --    1.83883   1.84383   1.85476   1.85832   1.86456
  Beta virt. eigenvalues --    1.86870   1.86990   1.87595   1.88066   1.88514
  Beta virt. eigenvalues --    1.88712   1.89203   1.89330   1.89918   1.90416
  Beta virt. eigenvalues --    1.90678   1.91219   1.91464   1.91661   1.91925
  Beta virt. eigenvalues --    1.92368   1.92901   1.93649   1.94130   1.94548
  Beta virt. eigenvalues --    1.94889   1.95872   1.96442   1.97297   1.97389
  Beta virt. eigenvalues --    1.98059   1.98297   1.98548   1.99159   1.99358
  Beta virt. eigenvalues --    1.99781   2.00479   2.00831   2.01044   2.01373
  Beta virt. eigenvalues --    2.01896   2.02652   2.02829   2.02927   2.03576
  Beta virt. eigenvalues --    2.04235   2.04784   2.04801   2.05352   2.06150
  Beta virt. eigenvalues --    2.06355   2.06669   2.07682   2.07991   2.08244
  Beta virt. eigenvalues --    2.08704   2.09332   2.09659   2.10020   2.10586
  Beta virt. eigenvalues --    2.10952   2.11891   2.12290   2.12723   2.13094
  Beta virt. eigenvalues --    2.13824   2.14666   2.15145   2.15582   2.15825
  Beta virt. eigenvalues --    2.16145   2.16788   2.16935   2.17649   2.17947
  Beta virt. eigenvalues --    2.18192   2.18602   2.19117   2.19815   2.19900
  Beta virt. eigenvalues --    2.20508   2.20650   2.21469   2.21532   2.22665
  Beta virt. eigenvalues --    2.23155   2.23533   2.23901   2.24023   2.24867
  Beta virt. eigenvalues --    2.25383   2.25687   2.26050   2.26216   2.26576
  Beta virt. eigenvalues --    2.26957   2.27864   2.28142   2.28244   2.28590
  Beta virt. eigenvalues --    2.29150   2.29395   2.29910   2.30242   2.30990
  Beta virt. eigenvalues --    2.31232   2.31585   2.32103   2.32875   2.32939
  Beta virt. eigenvalues --    2.33677   2.34212   2.34554   2.35017   2.35393
  Beta virt. eigenvalues --    2.35795   2.36344   2.36716   2.37023   2.37259
  Beta virt. eigenvalues --    2.37928   2.38140   2.38583   2.39220   2.39487
  Beta virt. eigenvalues --    2.39815   2.40014   2.40889   2.41570   2.42059
  Beta virt. eigenvalues --    2.42291   2.42440   2.43296   2.43713   2.43957
  Beta virt. eigenvalues --    2.44072   2.44389   2.44558   2.45209   2.45671
  Beta virt. eigenvalues --    2.46556   2.46887   2.46996   2.47278   2.47468
  Beta virt. eigenvalues --    2.47629   2.48206   2.48470   2.48903   2.49414
  Beta virt. eigenvalues --    2.49902   2.50339   2.50522   2.50852   2.51017
  Beta virt. eigenvalues --    2.51398   2.51919   2.52213   2.53025   2.53238
  Beta virt. eigenvalues --    2.53833   2.54392   2.54891   2.55090   2.55621
  Beta virt. eigenvalues --    2.55906   2.56186   2.56893   2.57370   2.57512
  Beta virt. eigenvalues --    2.57559   2.58088   2.58505   2.58780   2.59320
  Beta virt. eigenvalues --    2.59457   2.60316   2.60770   2.61010   2.61070
  Beta virt. eigenvalues --    2.61523   2.62237   2.62252   2.62723   2.63536
  Beta virt. eigenvalues --    2.63795   2.64537   2.64755   2.64873   2.65912
  Beta virt. eigenvalues --    2.66120   2.66538   2.66793   2.67038   2.67755
  Beta virt. eigenvalues --    2.68209   2.68933   2.69380   2.69878   2.70068
  Beta virt. eigenvalues --    2.70186   2.70685   2.71076   2.71435   2.72200
  Beta virt. eigenvalues --    2.72721   2.73309   2.73706   2.73805   2.74205
  Beta virt. eigenvalues --    2.74406   2.75054   2.75743   2.75816   2.75931
  Beta virt. eigenvalues --    2.76228   2.76763   2.77637   2.77816   2.78194
  Beta virt. eigenvalues --    2.78460   2.78842   2.78967   2.79512   2.79745
  Beta virt. eigenvalues --    2.79944   2.80594   2.81499   2.81541   2.81733
  Beta virt. eigenvalues --    2.82550   2.82758   2.83022   2.83126   2.83581
  Beta virt. eigenvalues --    2.84580   2.84728   2.84797   2.85109   2.85517
  Beta virt. eigenvalues --    2.85900   2.86310   2.86484   2.87065   2.87164
  Beta virt. eigenvalues --    2.87533   2.87800   2.88492   2.88685   2.89411
  Beta virt. eigenvalues --    2.89810   2.90007   2.90742   2.90831   2.91274
  Beta virt. eigenvalues --    2.91560   2.92113   2.92511   2.93192   2.93529
  Beta virt. eigenvalues --    2.93813   2.94052   2.94509   2.94914   2.95189
  Beta virt. eigenvalues --    2.95495   2.96111   2.96323   2.96740   2.97067
  Beta virt. eigenvalues --    2.97466   2.97798   2.97966   2.98268   2.98890
  Beta virt. eigenvalues --    2.99133   2.99453   2.99539   2.99954   3.00151
  Beta virt. eigenvalues --    3.00609   3.00729   3.01108   3.01476   3.01882
  Beta virt. eigenvalues --    3.02007   3.02451   3.02845   3.03801   3.03889
  Beta virt. eigenvalues --    3.04322   3.04382   3.04857   3.05275   3.05925
  Beta virt. eigenvalues --    3.06057   3.06280   3.06491   3.06663   3.06721
  Beta virt. eigenvalues --    3.07535   3.07912   3.08441   3.08766   3.09222
  Beta virt. eigenvalues --    3.09341   3.09608   3.09983   3.10059   3.10589
  Beta virt. eigenvalues --    3.10679   3.11087   3.11386   3.11773   3.12146
  Beta virt. eigenvalues --    3.12670   3.13219   3.13309   3.13355   3.14093
  Beta virt. eigenvalues --    3.14412   3.14430   3.14786   3.15009   3.15242
  Beta virt. eigenvalues --    3.15726   3.15755   3.15923   3.16485   3.16502
  Beta virt. eigenvalues --    3.17057   3.17298   3.17510   3.17661   3.18116
  Beta virt. eigenvalues --    3.18339   3.18668   3.19343   3.19426   3.19728
  Beta virt. eigenvalues --    3.19815   3.20560   3.20686   3.20904   3.21384
  Beta virt. eigenvalues --    3.21617   3.21838   3.21931   3.22291   3.22561
  Beta virt. eigenvalues --    3.22965   3.23128   3.23294   3.23468   3.23570
  Beta virt. eigenvalues --    3.23821   3.24321   3.24965   3.25129   3.25345
  Beta virt. eigenvalues --    3.25582   3.25693   3.25865   3.26021   3.26484
  Beta virt. eigenvalues --    3.26495   3.26914   3.27484   3.27868   3.28193
  Beta virt. eigenvalues --    3.28321   3.28486   3.28866   3.29068   3.29486
  Beta virt. eigenvalues --    3.29939   3.30167   3.30589   3.30877   3.31027
  Beta virt. eigenvalues --    3.31400   3.31705   3.32072   3.32635   3.32713
  Beta virt. eigenvalues --    3.33061   3.33587   3.33954   3.34427   3.34758
  Beta virt. eigenvalues --    3.35570   3.35750   3.36101   3.36316   3.36984
  Beta virt. eigenvalues --    3.37429   3.38031   3.38520   3.38658   3.39154
  Beta virt. eigenvalues --    3.39410   3.40147   3.41163   3.41300   3.41800
  Beta virt. eigenvalues --    3.42634   3.42910   3.43617   3.43717   3.44207
  Beta virt. eigenvalues --    3.44489   3.44827   3.45415   3.46315   3.46370
  Beta virt. eigenvalues --    3.46752   3.47437   3.47811   3.48249   3.48336
  Beta virt. eigenvalues --    3.49160   3.49567   3.49726   3.50357   3.50825
  Beta virt. eigenvalues --    3.51175   3.51438   3.52147   3.52922   3.53095
  Beta virt. eigenvalues --    3.53680   3.54642   3.55349   3.55460   3.55788
  Beta virt. eigenvalues --    3.55916   3.56668   3.57145   3.57545   3.57777
[...]
  1439. BD*(   1) N   3 - C  10          0.01413     0.39649   
  1440. BD*(   2) N   3 - C  10          0.33085    -0.10106  1456(v),1460(v),155(v)
                                                    151(v),396(g),153(v),736(v)
                                                    395(g),214(g),1446(r)
  1441. BD*(   1) N   3 - C  13          0.01349     0.40399   
  1442. BD*(   1) N   4 - C  14          0.01401     0.39597   
  1443. BD*(   2) N   4 - C  14          0.33324    -0.09812  1468(v),1473(v),152(v)
                                                    500(g),153(v),240(g),241(g)
                                                    1437(r),1523(r)
  1444. BD*(   1) N   4 - C  17          0.01337     0.40080   
  1445. BD*(   1) N   5 - C  18          0.01396     0.40067   
  1446. BD*(   2) N   5 - C  18          0.32664    -0.09877  1473(v),1477(v),1482(v)
                                                    151(v),604(g),153(v),266(g)
                                                    798(v),1440(r)
  1447. BD*(   1) N   5 - C  21          0.01377     0.39953   
  1448. BD*(   1) C   6 - C   7          0.01722     0.38499   
  1449. BD*(   1) C   6 - C  22          0.01015     0.46651   
  1450. BD*(   1) C   7 - C   8          0.01164     0.49227   
  1451. BD*(   2) C   7 - C   8          0.12040    -0.03337  1456(v),1437(v),1489(v)
                                                    1490(v),1491(v),1488(v)
  1452. BD*(   1) C   7 - C  34          0.00807     0.31636   
  1453. BD*(   1) C   8 - C   9          0.01768     0.37802   
  1454. BD*(   1) C   8 - C  30          0.00828     0.31489   
  1455. BD*(   1) C   9 - C  24          0.01029     0.46626   
  1456. BD*(   2) C   9 - C  24          0.19943    -0.06147  1440(v),1451(v),1437(v)
                                                    736(g),372(g)
  1457. BD*(   1) C  10 - C  11          0.01708     0.39309   
  1458. BD*(   1) C  10 - C  24          0.01026     0.46209   
  1459. BD*(   1) C  11 - C  12          0.01117     0.49131   
  1460. BD*(   2) C  11 - C  12          0.13607    -0.03604  1498(v),1440(v),155(v)
                                                    1494(v),1493(v),1496(v)
                                                    1473(r),1468(r)
  1461. BD*(   1) C  11 - C  38          0.00785     0.31811   
  1462. BD*(   1) C  12 - C  13          0.01879     0.38186   
  1463. BD*(   1) C  12 - C  42          0.01306     0.39920   
  1464. BD*(   1) C  13 - C  26          0.00995     0.46768   
  1465. BD*(   1) C  14 - C  15          0.01682     0.39056   
  1466. BD*(   1) C  14 - C  26          0.01040     0.48418   
  1467. BD*(   1) C  15 - C  16          0.01228     0.48887   
  1468. BD*(   2) C  15 - C  16          0.13826    -0.03611  1473(v),1506(v),1443(v)
                                                    1502(v),1460(r)
  1469. BD*(   1) C  15 - C  47          0.00756     0.32095   
  1470. BD*(   1) C  16 - C  17          0.01690     0.39029   
  1471. BD*(   1) C  16 - C  51          0.01338     0.40041   
  1472. BD*(   1) C  17 - C  28          0.01008     0.46198   
  1473. BD*(   2) C  17 - C  28          0.20263    -0.03460  1468(v),1446(v),1443(v)
                                                    1523(r),1530(r),798(g)
                                                    1506(r),1429(r),1528(r)
                                                    1498(r),1482(r),1477(r)
                                                    1520(r),1509(r),1517(r)
                                                    1460(r),580(g),1430(r)
                                                    1522(r),1519(r),1516(r)
                                                    1515(r)
  1474. BD*(   1) C  18 - C  19          0.01791     0.37264   
  1475. BD*(   1) C  18 - C  28          0.01028     0.46287   
  1476. BD*(   1) C  19 - C  20          0.01157     0.51778   
  1477. BD*(   2) C  19 - C  20          0.11685    -0.03039  1482(v),1446(v),1512(v)
                                                    1510(v),1514(v),1473(r)
                                                    1509(v)
  1478. BD*(   1) C  19 - C  56          0.00828     0.31779   
  1479. BD*(   1) C  20 - C  21          0.01723     0.38492   
  1480. BD*(   1) C  20 - C  60          0.00812     0.31776   
  1481. BD*(   1) C  21 - C  22          0.01007     0.47135   
  1482. BD*(   2) C  21 - C  22          0.19570    -0.05438  1437(v),1477(v),1446(v)
                                                    1523(r),705(g),1473(r)
                                                    683(g),1528(r)
  1483. BD*(   1) C  22 - H  23          0.00608     0.32901   
  1484. BD*(   1) C  24 - H  25          0.00617     0.32972   
  1485. BD*(   1) C  26 - H  27          0.00711     0.33903   
  1486. BD*(   1) C  28 - H  29          0.00638     0.33081   
  1487. BD*(   1) C  30 - H  31          0.00302     0.30735   
  1488. BD*(   1) C  30 - H  32          0.00455     0.29024   
  1489. BD*(   1) C  30 - H  33          0.00449     0.29385   
  1490. BD*(   1) C  34 - H  35          0.00458     0.29327   
  1491. BD*(   1) C  34 - H  36          0.00449     0.29161   
  1492. BD*(   1) C  34 - H  37          0.00301     0.30576   
  1493. BD*(   1) C  38 - H  39          0.00428     0.29132   
  1494. BD*(   1) C  38 - H  40          0.00475     0.29074   
  1495. BD*(   1) C  38 - H  41          0.00278     0.30478   
  1496. BD*(   1) C  42 - H  43          0.01051     0.33450   
  1497. BD*(   1) C  42 - C  44          0.00346     0.53372   
  1498. BD*(   2) C  42 - C  44          0.02680    -0.01489   
  1499. BD*(   1) C  44 - H  45          0.00542     0.34622   
  1500. BD*(   1) C  44 - H  46          0.00411     0.35444   
  1501. BD*(   1) C  47 - H  48          0.00412     0.30234   
  1502. BD*(   1) C  47 - H  49          0.00533     0.29168   
  1503. BD*(   1) C  47 - H  50          0.00365     0.30689   
  1504. BD*(   1) C  51 - H  52          0.01008     0.33387   
  1505. BD*(   1) C  51 - C  53          0.00362     0.54286   
  1506. BD*(   2) C  51 - C  53          0.03011    -0.03023   
  1507. BD*(   1) C  53 - H  54          0.00531     0.35089   
  1508. BD*(   1) C  53 - H  55          0.00378     0.38997   
  1509. BD*(   1) C  56 - H  57          0.00445     0.48328   
  1510. BD*(   1) C  56 - H  58          0.00452     0.29973   
  1511. BD*(   1) C  56 - H  59          0.00303     0.34731   
  1512. BD*(   1) C  60 - H  61          0.00469     0.30183   
  1513. BD*(   1) C  60 - H  62          0.00299     0.35812   
  1514. BD*(   1) C  60 - H  63          0.00429     0.29410   
  1517. BD*(   1) C  67 - H  68          0.00156     0.34141   
  1518. BD*(   1) C  67 - H  69          0.00488     0.34551   
  1519. BD*(   1) C  67 - H  70          0.00518     0.30204   
  1520. BD*(   1) C  67 - C  73          0.00617     0.35012   
  1521. BD*(   1) N  71 - H  72          0.00652     0.27367   
  1522. BD*(   1) N  71 - C  73          0.01360     0.54433   
  1523. BD*(   2) N  71 - C  73          0.37224    -0.06552  1528(v),1530(v),1529(v)
                                                    1473(r),1430(r),1509(r)
                                                    1522(g),1519(v),1482(r)
                                                    1429(r),1498(r),1524(g)
                                                    1517(v),1423(v),1508(r)
                                                    1424(v),1286(g),1425(v)
                                                    1419(v),1318(g),1404(v)
                                                    1513(r),1409(v),1511(r)
                                                    1400(v),1520(g),1412(v)
                                                    1312(v),1415(v),1426(r)
                                                    1443(r),1420(v),1515(r)
                                                    1321(g),1403(v),1516(r)
                                                    1406(v),1470(r),1323(g)
                                                    1456(r),1401(v)
  1524. BD*(   1) N  71 - C  74          0.01029     0.43401   
  1525. BD*(   1) C  73 - C  77          0.01034     0.46029   
  1526. BD*(   1) C  74 - H  75          0.00834     0.27802   
  1527. BD*(   1) C  74 - N  76          0.00914     0.41298   
  1528. BD*(   2) C  74 - N  76          0.21864     0.40893  1524(g),1509(r),1508(r)
                                                    1522(v),1518(r),1529(g)
                                                    1513(r),1430(r),1511(r)
                                                    1517(r),1441(r),1530(v)
                                                    1523(v),1445(r),1344(g)
                                                    1423(v),1429(r),1470(r)
                                                    1527(g),1516(r),1419(v)
                                                    1425(v),1512(r),1519(r)
                                                    1409(v),1424(v),1515(r)
                                                    1400(v),1426(r),1510(r)
                                                    1404(v),1406(v),1520(r)
                                                    1412(v),1415(v),1273(r)
                                                    798(r),1498(r),1449(r)
                                                    1473(r),1413(v),1479(r)
                                                    1376(g),1480(r),1487(r)
                                                    1410(v),1514(r),1411(v)
                                                    1481(r),1492(r),1321(r)
                                                    1262(r),1489(r),1420(v)
                                                    1312(r),1286(v),1375(g)
                                                    1433(v),1332(r),167(v)
                                                    1482(r),1476(r),1462(r)
                                                    1327(r),1418(v),1454(r)
                                                    1447(r),1095(r),1127(r)
                                                    1158(r),1322(r),1416(v)
                                                    1403(v),1488(r),1368(g)
                                                    1452(r),1380(g),1326(r)
                                                    1381(g),1428(r),1455(r)
                                                    1299(v),1210(r)
  1529. BD*(   1) N  76 - C  77          0.00881     5.82738   
  1530. BD*(   1) C  77 - H  78          0.00680     4.71295   
       -------------------------------
              Total Lewis  145.47538  ( 96.9143%)
        Valence non-Lewis    4.36018  (  2.9047%)
        Rydberg non-Lewis    0.27169  (  0.1810%)
       -------------------------------
            Total unit  1  150.10725  (100.0000%)
           Charge unit  1    2.89275
 
 Molecular unit  2  (H2O)
    85. BD (   1) O  64 - H  65          0.99318    -0.93149  153(r),1435(r),1241(v)
                                                    152(r),151(r),160(r),1375(r)
                                                    162(r),1433(r),242(r),166(r)
                                                    188(r),1432(r),154(r),165(r)
                                                    241(r)
    86. BD (   1) O  64 - H  66          0.99653    -0.99570  153(r),1435(r),1237(v)
                                                    152(r),1515(g),160(r),162(r)
                                                    151(r),188(r),1377(r),190(r)
                                                    1375(r),166(r),154(r),191(r)
                                                    165(r),215(r),1433(r)
   144. CR (   1) O  64                  0.99991   -19.07925  153(r),1435(r),1241(v)
                                                    1237(v),163(r),1433(r)
                                                    1431(r),1432(r),1434(r)
   157. LP (   1) O  64                  0.98389    -0.44943  151(r),152(r),1240(v)
                                                    1236(v),1434(r),1432(r)
                                                    1376(r),214(r),266(r)
   158. LP (   2) O  64                  0.91273    -0.61263  153(r),1435(r),1515(g)
                                                    1241(v),1516(g),1242(v)
                                                    1235(v),1237(v),166(r)
                                                    154(r),152(r),266(r),1377(r)
                                                    190(r),214(r),265(r),213(r)
                                                    165(r),242(r),188(r),187(r)
  1209. RY*(   1) O  64                  0.00102     1.12926   
  1210. RY*(   2) O  64                  0.00033     0.53317   
  1211. RY*(   3) O  64                  0.00016     1.07843   
  1212. RY*(   4) O  64                  0.00009     0.80041   
  1213. RY*(   5) O  64                  0.00002     2.25850   
  1214. RY*(   6) O  64                  0.00002     1.96309   
  1215. RY*(   7) O  64                  0.00000     2.55083   
  1216. RY*(   8) O  64                  0.00001     4.51895   
  1217. RY*(   9) O  64                  0.00001     2.96282   
  1218. RY*(  10) O  64                  0.00000     2.04524   
  1219. RY*(  11) O  64                  0.00000     6.12613   
  1220. RY*(  12) O  64                  0.00000     3.26789   
  1221. RY*(  13) O  64                  0.00000     6.44783   
  1222. RY*(  14) O  64                  0.00000    42.70787   
  1223. RY*(  15) O  64                  0.00000     6.22901   
  1224. RY*(  16) O  64                  0.00001     2.72019   
  1225. RY*(  17) O  64                  0.00000     6.28895   
  1226. RY*(  18) O  64                  0.00000     2.21850   
  1227. RY*(  19) O  64                  0.00000     6.30817   
  1228. RY*(  20) O  64                  0.00000     5.26279   
  1229. RY*(  21) O  64                  0.00000     5.54005   
  1230. RY*(  22) O  64                  0.00000     4.99254   
  1231. RY*(  23) O  64                  0.00000     5.65681   
  1232. RY*(  24) O  64                  0.00000     5.19739   
  1233. RY*(  25) O  64                  0.00000     5.51975   
  1234. RY*(  26) O  64                  0.00000     5.25721   
  1235. RY*(   1) H  65                  0.00040     0.67930   
  1236. RY*(   2) H  65                  0.00039     1.86703   
  1237. RY*(   3) H  65                  0.00029     2.21179   
  1238. RY*(   4) H  65                  0.00008     1.87703   
  1239. RY*(   5) H  65                  0.00000     2.77624   
  1240. RY*(   1) H  66                  0.00042     1.89247   
  1241. RY*(   2) H  66                  0.00036     2.16965   
  1242. RY*(   3) H  66                  0.00028     0.75616   
  1243. RY*(   4) H  66                  0.00011     1.80648   
  1244. RY*(   5) H  66                  0.00000     2.90440   
  1515. BD*(   1) O  64 - H  65          0.00143     0.31827   
  1516. BD*(   1) O  64 - H  66          0.00095     0.48724   
       -------------------------------
              Total Lewis    4.88624  ( 99.8695%)
        Valence non-Lewis    0.00237  (  0.0485%)
        Rydberg non-Lewis    0.00401  (  0.0820%)
       -------------------------------
            Total unit  2    4.89262  (100.0000%)
           Charge unit  2    0.10738
 Unable to Open any file for archive entry.
 1\1\GINC-BGN1032\SP\UAPFD\def2TZVP\C34H36Fe1N6O1(1+,6)\BECSLEIP\08-Oct
 -2024\0\\# apfd/def2TZVP guess=read scf=maxcycle=999 geom=check pop=nb
 o\\5jqr_III_H\\1,6\Fe,0,95.5573100227,26.9227749862,19.3034842326\N,0,
 96.8782340182,28.3698500968,18.7942575826\N,0,94.4673309558,27.3689095
 35,17.6861321349\N,0,94.2346366132,25.5203963039,19.8231923418\N,0,96.
 6775489792,26.5145083199,20.9042873924\C,0,98.0368570342,28.6808142688
 ,19.4347245469\C,0,98.7746496502,29.6871498348,18.7060222597\C,0,98.03
 96005855,29.9668002284,17.5944381579\C,0,96.8662567813,29.1280268255,1
 7.6641406735\C,0,94.7275098087,28.3315496397,16.760263292\C,0,93.65189
 84427,28.4294146792,15.8097762049\C,0,92.7114667318,27.5135436181,16.1
 949710556\C,0,93.2506097212,26.8557856764,17.3694327893\C,0,93.1368482
 089,25.1336656871,19.1162334158\C,0,92.5362081983,23.96081777,19.70238
 23705\C,0,93.2754686259,23.6686217237,20.8196482949\C,0,94.3455736283,
 24.6529563275,20.861442419\C,0,96.3821529018,25.5990226703,21.86433136
 63\C,0,97.3256224949,25.6858949111,22.9618553096\C,0,98.2006266066,26.
 6746327874,22.6374308182\C,0,97.7727705408,27.1838861813,21.3528091046
 \C,0,98.456180462,28.1501329737,20.6423287968\H,0,99.3791459744,28.528
 5824305,21.0560455757\C,0,95.8520251905,29.1384198108,16.7254903918\H,
 0,95.9350700333,29.8351396009,15.9039179358\C,0,92.6526415835,25.77578
 07929,17.9908501333\H,0,91.7577636832,25.3833987001,17.5368246461\C,0,
 95.3268402541,24.7025845434,21.8375960407\H,0,95.259054914,23.99077052
 2,22.6479923326\C,0,98.3147854044,30.932916448,16.4928661724\H,0,99.25
 10732421,31.4564734037,16.6674665624\H,0,97.5185544258,31.6745574315,1
 6.4194229797\H,0,98.3819804561,30.4113397516,15.5379635219\C,0,100.065
 4331167,30.286918664,19.1530879079\H,0,100.8406157171,29.5253353192,19
 .2369511832\H,0,99.9507123625,30.7567426913,20.1304716551\H,0,100.4048
 410256,31.0430083641,18.4483451277\C,0,93.6125250943,29.3547911098,14.
 6422134685\H,0,94.5009035387,29.2275466191,14.0223227045\H,0,93.575173
 207,30.3942994548,14.9684011589\H,0,92.7330557521,29.1593024314,14.034
 3078282\C,0,91.4330134899,27.2653187629,15.5641396657\H,0,91.430798485
 7,27.3109755592,14.4805505028\C,0,90.2960639998,27.0377093335,16.21019
 8968\H,0,90.2553135535,27.0225882933,17.2853487354\H,0,89.368588728,26
 .8780877313,15.6874707688\C,0,91.3424125488,23.2414296248,19.176127438
 5\H,0,91.3120521167,23.2612733097,18.0883919782\H,0,90.4244714074,23.6
 996499261,19.5482314476\H,0,91.3597031724,22.203650058,19.5022443839\C
 ,0,93.0776824753,22.6169362899,21.7931771192\H,0,93.9768201715,22.2476
 141121,22.2730920813\C,0,91.9144479137,22.0910450694,22.1685259042\H,0
 ,90.9613582754,22.4428089205,21.8139354458\H,0,91.8807082556,21.288355
 7734,22.8870454996\C,0,97.2941609714,24.818922205,24.1749620222\H,0,97
 .3785550507,23.7690039356,23.8934105775\H,0,96.3560046182,24.951440502
 4,24.7144157272\H,0,98.1162105308,25.0632611046,24.8450424047\C,0,99.3
 7322555,27.1925198882,23.4020652258\H,0,100.3050258231,27.0507889338,2
 2.8511899523\H,0,99.4666298702,26.6793996607,24.3561020075\H,0,99.2523
 61498,28.2596631064,23.589755396\O,0,96.782,25.374,18.1\H,0,97.604,25.
 815,17.886\H,0,96.561,24.54,17.886\C,0,92.9176513566,29.7306339924,23.
 3284303082\H,0,92.9291087575,28.8947212481,24.0205053311\H,0,91.887499
 6664,30.0554200948,23.1868720072\H,0,93.4783763816,30.5550197943,23.76
 87389251\N,0,93.595777631,30.1460815297,20.9531986592\H,0,93.260737222
 1,31.0939578634,20.9124214794\C,0,93.5231396541,29.3139048432,22.03909
 19268\C,0,94.2114620549,29.468999537,19.958449738\H,0,94.3944980765,29
 .8682122813,18.982368535\N,0,94.5375108514,28.2616726531,20.3508595551
 \C,0,94.1090364328,28.1470376307,21.6408280022\H,0,94.2441690156,27.23
 89236127,22.1911796249\\Version=ES64L-G16RevC.02\State=6-A\HF=-2983.83
 30602\S2=8.758858\S2-1=0.\S2A=8.750024\RMSD=5.819e-09\Dipole=-0.056052
 9,1.3058015,0.4576149\Quadrupole=-0.2043382,0.7902106,-0.5858724,4.492
 9856,2.3419864,-5.9342867\PG=C01 [X(C34H36Fe1N6O1)]\\@
 The archive entry for this job was punched.


 QUHEN THE CAUSS IS TAKEN AWAY THE EFFECT WANISHETH.
 -- PROVERBS AND REASONS OF THE YEAR 1585
           AS REPRINTED IN PAISLEY MAGAZINE 1828.
 Job cpu time:       0 days 12 hours  8 minutes 29.0 seconds.
 Elapsed time:       0 days  0 hours 11 minutes 26.0 seconds.
 File lengths (MBytes):  RWF=   2166 Int=      0 D2E=      0 Chk=    197 Scr=      1
 Normal termination of Gaussian 16 at Tue Oct  8 03:18:09 2024.
