 Entering Gaussian System, Link 0=g16
 Input=5l1s05re.com
 Output=5l1s05re.log
 Initial command:
 /sw/chem/gaussian/g16_C02/a100/g16/l1.exe "/local/becsleip_8038760/Gau-96003.inp" -scrdir="/local/becsleip_8038760/"
 Entering Link 1 = /sw/chem/gaussian/g16_C02/a100/g16/l1.exe PID=     96004.
  
 Copyright (c) 1988-2021, Gaussian, Inc.  All Rights Reserved.
  
 This is part of the Gaussian(R) 16 program.  It is based on
 the Gaussian(R) 09 system (copyright 2009, Gaussian, Inc.),
 the Gaussian(R) 03 system (copyright 2003, Gaussian, Inc.),
 the Gaussian(R) 98 system (copyright 1998, Gaussian, Inc.),
 the Gaussian(R) 94 system (copyright 1995, Gaussian, Inc.),
 the Gaussian 92(TM) system (copyright 1992, Gaussian, Inc.),
 the Gaussian 90(TM) system (copyright 1990, Gaussian, Inc.),
 the Gaussian 88(TM) system (copyright 1988, Gaussian, Inc.),
 the Gaussian 86(TM) system (copyright 1986, Carnegie Mellon
 University), and the Gaussian 82(TM) system (copyright 1983,
 Carnegie Mellon University). Gaussian is a federally registered
 trademark of Gaussian, Inc.
  
 This software contains proprietary and confidential information,
 including trade secrets, belonging to Gaussian, Inc.
  
 This software is provided under written license and may be
 used, copied, transmitted, or stored only in accord with that
 written license.
  
 The following legend is applicable only to US Government
 contracts under FAR:
  
                    RESTRICTED RIGHTS LEGEND
  
 Use, reproduction and disclosure by the US Government is
 subject to restrictions as set forth in subparagraphs (a)
 and (c) of the Commercial Computer Software - Restricted
 Rights clause in FAR 52.227-19.
  
 Gaussian, Inc.
 340 Quinnipiac St., Bldg. 40, Wallingford CT 06492
  
  
 ---------------------------------------------------------------
 Warning -- This program may not be used in any manner that
 competes with the business of Gaussian, Inc. or will provide
 assistance to any competitor of Gaussian, Inc.  The licensee
 of this program is prohibited from giving any competitor of
 Gaussian, Inc. access to this program.  By using this program,
 the user acknowledges that Gaussian, Inc. is engaged in the
 business of creating and licensing software in the field of
 computational chemistry and represents and warrants to the
 licensee that it is not a competitor of Gaussian, Inc. and that
 it will not use this program in any manner prohibited above.
 ---------------------------------------------------------------
  

 Cite this work as:
 Gaussian 16, Revision C.02,
 M. J. Frisch, G. W. Trucks, H. B. Schlegel, G. E. Scuseria, 
 M. A. Robb, J. R. Cheeseman, G. Scalmani, V. Barone, 
 G. A. Petersson, H. Nakatsuji, X. Li, M. Caricato, A. V. Marenich, 
 J. Bloino, B. G. Janesko, R. Gomperts, B. Mennucci, H. P. Hratchian, 
 J. V. Ortiz, A. F. Izmaylov, J. L. Sonnenberg, D. Williams-Young, 
 F. Ding, F. Lipparini, F. Egidi, J. Goings, B. Peng, A. Petrone, 
 T. Henderson, D. Ranasinghe, V. G. Zakrzewski, J. Gao, N. Rega, 
 G. Zheng, W. Liang, M. Hada, M. Ehara, K. Toyota, R. Fukuda, 
 J. Hasegawa, M. Ishida, T. Nakajima, Y. Honda, O. Kitao, H. Nakai, 
 T. Vreven, K. Throssell, J. A. Montgomery, Jr., J. E. Peralta, 
 F. Ogliaro, M. J. Bearpark, J. J. Heyd, E. N. Brothers, K. N. Kudin, 
 V. N. Staroverov, T. A. Keith, R. Kobayashi, J. Normand, 
 K. Raghavachari, A. P. Rendell, J. C. Burant, S. S. Iyengar, 
 J. Tomasi, M. Cossi, J. M. Millam, M. Klene, C. Adamo, R. Cammi, 
 J. W. Ochterski, R. L. Martin, K. Morokuma, O. Farkas, 
 J. B. Foresman, and D. J. Fox, Gaussian, Inc., Wallingford CT, 2019.
 
 ******************************************
 Gaussian 16:  ES64L-G16RevC.02  7-Dec-2021
                 4-Oct-2024 
 ******************************************
 %mem=16GB
 %CPU=0-71
 SetSPE:  set environment variable "OMP_PROC_BIND" = "true"
 SetSPE:  set environment variable "OMP_PLACES" = "{0},{1},{2},{3},{4},{5},{6},{7},{8},{9},{10},{11},{12},{13},{14},{15},{16},{17},{18},{19},{20},{21},{22},{23},{24},{25},{26},{27},{28},{29},{30},{31},{32},{33},{34},{35},{36},{37},{38},{39},{40},{41},{42},{43},{44},{45},{46},{47},{48},{49},{50},{51},{52},{53},{54},{55},{56},{57},{58},{59},{60},{61},{62},{63},{64},{65},{66},{67},{68},{69},{70},{71}"
 Will use up to   72 processors via shared memory.
 %gpucpu=0,1,2,3=0,1,2,3
 Will use    4 GPUs:
 Thread  CPU   GPU
      0    0     0
      1    1     1
      2    2     2
      3    3     3
      4    4    -1
      5    5    -1
      6    6    -1
      7    7    -1
      8    8    -1
      9    9    -1
     10   10    -1
     11   11    -1
     12   12    -1
     13   13    -1
     14   14    -1
     15   15    -1
     16   16    -1
     17   17    -1
     18   18    -1
     19   19    -1
     20   20    -1
     21   21    -1
     22   22    -1
     23   23    -1
     24   24    -1
     25   25    -1
     26   26    -1
     27   27    -1
     28   28    -1
     29   29    -1
     30   30    -1
     31   31    -1
     32   32    -1
     33   33    -1
     34   34    -1
     35   35    -1
     36   36    -1
     37   37    -1
     38   38    -1
     39   39    -1
     40   40    -1
     41   41    -1
     42   42    -1
     43   43    -1
     44   44    -1
     45   45    -1
     46   46    -1
     47   47    -1
     48   48    -1
     49   49    -1
     50   50    -1
     51   51    -1
     52   52    -1
     53   53    -1
     54   54    -1
     55   55    -1
     56   56    -1
     57   57    -1
     58   58    -1
     59   59    -1
     60   60    -1
     61   61    -1
     62   62    -1
     63   63    -1
     64   64    -1
     65   65    -1
     66   66    -1
     67   67    -1
     68   68    -1
     69   69    -1
     70   70    -1
     71   71    -1
 SetGPE:  set environment variable "OMP_PROC_BIND" = "true"
 SetGPE:  set environment variable "OMP_PLACES" = "{0},{1},{2},{3},{4},{5},{6},{7},{8},{9},{10},{11},{12},{13},{14},{15},{16},{17},{18},{19},{20},{21},{22},{23},{24},{25},{26},{27},{28},{29},{30},{31},{32},{33},{34},{35},{36},{37},{38},{39},{40},{41},{42},{43},{44},{45},{46},{47},{48},{49},{50},{51},{52},{53},{54},{55},{56},{57},{58},{59},{60},{61},{62},{63},{64},{65},{66},{67},{68},{69},{70},{71}"
 %oldchk=5l1s_II_S.chk
 %chk=5l1s_II_Sre.chk
 Properties for Device   0
 Minimum vector length:                              32
 Maximum vector length:                            1024
 Number of SMPs:                                    108
 Maximum number of threads per SMP:                2048
 Number of ASync Engines:                             5
 Memory:                                           9207742464
 Properties for Device   1
 Minimum vector length:                              32
 Maximum vector length:                            1024
 Number of SMPs:                                    108
 Maximum number of threads per SMP:                2048
 Number of ASync Engines:                             5
 Memory:                                           9207742464
 Properties for Device   2
 Minimum vector length:                              32
 Maximum vector length:                            1024
 Number of SMPs:                                    108
 Maximum number of threads per SMP:                2048
 Number of ASync Engines:                             5
 Memory:                                           9207742464
 Properties for Device   3
 Minimum vector length:                              32
 Maximum vector length:                            1024
 Number of SMPs:                                    108
 Maximum number of threads per SMP:                2048
 Number of ASync Engines:                             5
 Memory:                                           9207742464
   8286968217 words of memory will be used on each GPU.
 Copying data from "5l1s_II_S.chk" to current chk file "5l1s_II_Sre.chk"
 IOpt=  2 FromEx=T IUOpen= 4 IOptOp= 5 NList=   0 IFRang= 0 IUIn= 4 IUOut= 2.
 --------------------------------------
 # apfd/gen scf=maxcycle=999 geom=check
 --------------------------------------
 1/29=2,38=1,172=1/1;
 2/12=2,40=1/2;
 3/5=7,11=2,14=-4,25=1,30=1,74=-44/1,2,3;
 4//1;
 5/5=2,7=999,38=5/2;
 6/7=2,8=2,9=2,10=2,28=1/1;
 99/5=1,9=1/99;
 ---------
 5l1s_II_Q
 ---------
 Structure from the checkpoint file:  "5l1s_II_Sre.chk"
 Charge =  0 Multiplicity = 5
 Z-Matrix found in chk file.
 Fe,0,25.8306603965,27.999699738,19.1282029513
 N,0,25.9763188071,26.3664153597,20.3169458649
 N,0,24.1412511913,28.4724226026,20.0834643521
 N,0,25.4310931298,29.3547247087,17.7196022218
 N,0,27.2803223454,27.2421489468,17.9793934031
 C,0,26.9716834414,25.4355047256,20.2996578769
 C,0,26.8917463911,24.5677242913,21.4513529075
 C,0,25.8111493418,24.981482083,22.1661953796
 C,0,25.2565040569,26.1039184549,21.4456111466
 C,0,23.6110889429,27.8970153245,21.2018321882
 C,0,22.4793336318,28.6435565786,21.6840651562
 C,0,22.3243343501,29.7009753384,20.8285091993
 C,0,23.3777629924,29.576505306,19.8425043748
 C,0,24.5471083325,30.3856756191,17.842151665
 C,0,24.7704903974,31.3839977488,16.8288374328
 C,0,25.8189800311,30.9331069959,16.0726655547
 C,0,26.2151919788,29.6668425474,16.6535517955
 C,0,27.6896401344,27.7165775126,16.7695387995
 C,0,28.6899120747,26.8519865575,16.1850323548
 C,0,28.8805818172,25.8384137158,17.0700737053
 C,0,27.9915176809,26.0975363638,18.1802410182
 C,0,27.9131275751,25.2945210429,19.2995651608
 H,0,28.6009435516,24.4666079609,19.3725327814
 C,0,24.1259065146,26.7863026078,21.8439154722
 H,0,23.6297746363,26.45067092,22.7410078465
 C,0,23.5586190037,30.4682345433,18.8043761865
 H,0,22.8945233169,31.317341443,18.7605839157
 C,0,27.246482615,28.8823278931,16.1760882016
 H,0,27.7284882766,29.188276545,15.2605989556
 C,0,25.2533899813,24.4395854645,23.436582836
 H,0,25.8538839917,23.6084750755,23.797540861
 H,0,24.233810691,24.0848636011,23.2851941638
 H,0,25.2325112323,25.2095558244,24.208364915
 C,0,27.835906345,23.4495624823,21.7275495573
 H,0,28.8588758777,23.8192792791,21.7977908127
 H,0,27.7973769898,22.7104630347,20.9273526199
 H,0,27.5848725599,22.9540053144,22.6618863071
 C,0,21.6236827204,28.2500122597,22.8363252732
 H,0,22.0762552304,28.5557453993,23.781142373
 H,0,21.4854011031,27.1702502511,22.861599609
 H,0,20.6482280448,28.724716072,22.7537112555
 C,0,21.3250197798,30.7476200787,20.8424310994
 H,0,21.0017431806,31.0998173956,19.8702121883
 C,0,20.7979238939,31.2896770873,21.9348263054
 H,0,21.1149604234,31.0094847554,22.9243578599
 H,0,20.0443783827,32.0569674375,21.8744791033
 C,0,24.0254769836,32.6665164207,16.7117441872
 H,0,23.8011559134,33.0737128993,17.6963373624
 H,0,23.0825037183,32.5202092529,16.1824345157
 H,0,24.6195076917,33.3924327089,16.1606147905
 C,0,26.4638870529,31.5526542564,14.934911836
 H,0,27.529658708,31.3767424131,14.8483809388
 C,0,25.8526125007,32.2914926352,14.0153470435
 H,0,24.7895146606,32.4575034535,14.0278987788
 H,0,26.3955542858,32.7347056885,13.1973042269
 C,0,29.3309014618,27.0861365229,14.8614801405
 H,0,29.8901885194,28.0220600435,14.8677171458
 H,0,28.5768037295,27.1474930439,14.0771431709
 H,0,30.0170167993,26.2793305398,14.6165335689
 C,0,29.7863230492,24.659469149,16.978584496
 H,0,30.5100021248,24.666851373,17.793900511
 H,0,30.3313011513,24.664450521,16.0383360149
 H,0,29.2158866237,23.7329917058,17.0405026969
 C,0,28.1127343616,28.4301862583,21.5942643345
 H,0,28.8215313459,27.8375470385,21.0253817752
 H,0,27.4445423612,27.7766607198,22.1441215965
 H,0,28.636624008,29.1079960746,22.2611636515
 S,0,27.1612892726,29.4090956202,20.3730470248
 H,0,26.3062262936,29.9131673734,21.2754051842
 Recover connectivity data from disk.
 Stoichiometry    C31H32FeN4S(5)
 Framework group  C1[X(C31H32FeN4S)]
 Deg. of freedom   201
 Full point group                 C1      NOp   1
 Largest Abelian subgroup         C1      NOp   1
 Largest concise Abelian subgroup C1      NOp   1
                         Standard orientation:                         
 ---------------------------------------------------------------------
 Center     Atomic      Atomic             Coordinates (Angstroms)
 Number     Number       Type             X           Y           Z
 ---------------------------------------------------------------------
      1         26           0       -0.088950   -0.125295   -0.069138
      2          7           0       -2.093156   -0.309072   -0.295697
      3          7           0       -0.293032    1.838154   -0.374613
      4          7           0        1.888847    0.032633   -0.277171
      5          7           0        0.064651   -2.115124   -0.179383
      6          6           0       -2.818463   -1.459554   -0.206445
      7          6           0       -4.234285   -1.178813   -0.156796
      8          6           0       -4.357771    0.173444   -0.234501
      9          6           0       -3.014029    0.697136   -0.317220
     10          6           0       -1.443874    2.566928   -0.460416
     11          6           0       -1.164105    3.977905   -0.500609
     12          6           0        0.197851    4.101063   -0.437031
     13          6           0        0.718678    2.752421   -0.351515
     14          6           0        2.603886    1.189920   -0.183826
     15          6           0        4.005736    0.920023    0.004125
     16          6           0        4.133925   -0.442982    0.018741
     17          6           0        2.796707   -0.972005   -0.153945
     18          6           0        1.216187   -2.836985   -0.275573
     19          6           0        0.933245   -4.245097   -0.439502
     20          6           0       -0.420634   -4.363396   -0.440028
     21          6           0       -0.944136   -3.025379   -0.279693
     22          6           0       -2.291320   -2.735678   -0.208752
     23          1           0       -2.983385   -3.563266   -0.208802
     24          6           0       -2.721587    2.039775   -0.436979
     25          1           0       -3.549694    2.729757   -0.478623
     26          6           0        2.064954    2.459900   -0.264489
     27          1           0        2.750042    3.292235   -0.222109
     28          6           0        2.493953   -2.318668   -0.196778
     29          1           0        3.314761   -3.018876   -0.190648
     30          6           0       -5.588657    1.012206   -0.239743
     31          1           0       -6.477324    0.393004   -0.147612
     32          1           0       -5.660779    1.578443   -1.168432
     33          1           0       -5.576078    1.721215    0.588560
     34          6           0       -5.293943   -2.220341   -0.055044
     35          1           0       -5.154807   -2.823277    0.842285
     36          1           0       -5.260312   -2.885228   -0.918097
     37          1           0       -6.280161   -1.765119   -0.013474
     38          6           0       -2.184848    5.047352   -0.671156
     39          1           0       -2.658919    5.290146    0.281357
     40          1           0       -2.962254    4.730007   -1.364394
     41          1           0       -1.716695    5.948770   -1.060976
     42          6           0        1.008328    5.299677   -0.464230
     43          1           0        1.961136    5.209662   -0.971985
     44          6           0        0.672250    6.464717    0.078649
     45          1           0       -0.240818    6.597191    0.632679
     46          1           0        1.317140    7.324628    0.008810
     47          6           0        5.056975    1.953454    0.205441
     48          1           0        4.677519    2.777717    0.807235
     49          1           0        5.391284    2.357966   -0.751315
     50          1           0        5.914985    1.517007    0.712297
     51          6           0        5.321285   -1.251798    0.192580
     52          1           0        5.177455   -2.185677    0.723130
     53          6           0        6.534376   -0.937968   -0.249077
     54          1           0        6.722522   -0.046750   -0.821985
     55          1           0        7.380635   -1.581389   -0.075084
     56          6           0        1.975588   -5.298536   -0.585346
     57          1           0        2.597360   -5.347630    0.308959
     58          1           0        2.621828   -5.081626   -1.435603
     59          1           0        1.520332   -6.273585   -0.739326
     60          6           0       -1.264471   -5.581846   -0.588242
     61          1           0       -1.881042   -5.732253    0.298169
     62          1           0       -0.645678   -6.464352   -0.727430
     63          1           0       -1.926197   -5.486635   -1.448849
     64          6           0       -1.669693   -0.487016    2.904924
     65          1           0       -1.748068   -1.553267    2.719968
     66          1           0       -2.469716    0.035107    2.391827
     67          1           0       -1.689948   -0.286276    3.971664
     68         16           0       -0.049987    0.036278    2.228465
     69          1           0       -0.256449    1.344279    2.442892
 ---------------------------------------------------------------------
 Rotational constants (GHZ):           0.1108519           0.1094236           0.0597358
 General basis read from cards:  (5D, 7F)
 There are   644 symmetry adapted cartesian basis functions of A   symmetry.
 There are   605 symmetry adapted basis functions of A   symmetry.
   605 basis functions,  1246 primitive gaussians,   644 cartesian basis functions
   146 alpha electrons      142 beta electrons
       nuclear repulsion energy      5034.5513716731 Hartrees.
 NAtoms=   69 NActive=   69 NUniq=   69 SFac= 1.00D+00 NAtFMM=   60 NAOKFM=T Big=T
 Integral buffers will be    131072 words long.
 Raffenetti 2 integral format.
 Two-electron integral symmetry is turned on.
 R6APFD:  NTU= -4 IXU= 1 FactS= 1.050
 Nuclear repulsion after empirical dispersion term =     5034.4206933315 Hartrees.
 One-electron integrals computed using PRISM.
 NBasis=   605 RedAO= T EigKep=  2.56D-04  NBF=   605
 NBsUse=   605 1.00D-06 EigRej= -1.00D+00 NBFU=   605
 ExpMin= 4.20D-02 ExpMax= 3.01D+05 ExpMxC= 3.30D+03 IAcc=3 IRadAn=         5 AccDes= 0.00D+00
 Harris functional with IExCor= 3731 and IRadAn=       5 diagonalized for initial guess.
 HarFok:  IExCor= 3731 AccDes= 0.00D+00 IRadAn=         5 IDoV= 1 UseB2=F ITyADJ=14
 ICtDFT=  3500011 ScaDFX=  1.000000  1.000000  1.000000  1.000000
 FoFCou: FMM=F IPFlag=           0 FMFlag=      100000 FMFlg1=        2001
         NFxFlg=           0 DoJE=T BraDBF=F KetDBF=T FulRan=T
         wScrn=  0.000000 ICntrl=       500 IOpCl=  0 I1Cent=   200000004 NGrid=           0
         NMat0=    1 NMatS0=      1 NMatT0=    0 NMatD0=    1 NMtDS0=    0 NMtDT0=    0
 Petite list used in FoFCou.
 Initial guess <Sx>= 0.0000 <Sy>= 0.0000 <Sz>= 2.0000 <S**2>= 6.0000 S= 2.0000
 Requested convergence on RMS density matrix=1.00D-08 within 999 cycles.
 Requested convergence on MAX density matrix=1.00D-06.
 Requested convergence on             energy=1.00D-06.
 No special actions if energy rises.
 EnCoef did   100 forward-backward iterations
 EnCoef did   100 forward-backward iterations
 EnCoef did   100 forward-backward iterations
 EnCoef did   100 forward-backward iterations
 EnCoef did     8 forward-backward iterations
 EnCoef did     4 forward-backward iterations
 EnCoef did     2 forward-backward iterations
 Rare condition: small coef for last iteration:  0.000D+00
 Restarting incremental Fock formation.
 Rare condition: small coef for last iteration:  0.000D+00
 Rare condition: small coef for last iteration:  0.000D+00
 EnCoef did   100 forward-backward iterations
 Rare condition: small coef for last iteration:  0.000D+00
 Rare condition: small coef for last iteration:  0.000D+00
 Rare condition: small coef for last iteration:  0.000D+00
 Restarting incremental Fock formation.
 Restarting incremental Fock formation.
 SCF Done:  E(UAPFD) =  -3080.19814361     A.U. after   74 cycles
            NFock= 74  Conv=0.86D-08     -V/T= 2.0032
 <Sx>= 0.0000 <Sy>= 0.0000 <Sz>= 2.0000 <S**2>= 6.0809 S= 2.0161
 <L.S>=  0.00000000000    
 Annihilation of the first spin contaminant:
 S**2 before annihilation     6.0809,   after     6.0020

 **********************************************************************

            Population analysis using the SCF Density.

 **********************************************************************

 Orbital symmetries:
 Alpha Orbitals:
       Occupied  (A) (A) (A) (A) (A) (A) (A) (A) (A) (A) (A) (A)
                 (A) (A) (A) (A) (A) (A) (A) (A) (A) (A) (A) (A)
                 (A) (A) (A) (A) (A) (A) (A) (A) (A) (A) (A) (A)
                 (A) (A) (A) (A) (A) (A) (A) (A) (A) (A) (A) (A)
                 (A) (A) (A) (A) (A) (A) (A) (A) (A) (A) (A) (A)
                 (A) (A) (A) (A) (A) (A) (A) (A) (A) (A) (A) (A)
                 (A) (A) (A) (A) (A) (A) (A) (A) (A) (A) (A) (A)
                 (A) (A) (A) (A) (A) (A) (A) (A) (A) (A) (A) (A)
                 (A) (A) (A) (A) (A) (A) (A) (A) (A) (A) (A) (A)
                 (A) (A) (A) (A) (A) (A) (A) (A) (A) (A) (A) (A)
                 (A) (A) (A) (A) (A) (A) (A) (A) (A) (A) (A) (A)
                 (A) (A) (A) (A) (A) (A) (A) (A) (A) (A) (A) (A)
                 (A) (A)
       Virtual   (A) (A) (A) (A) (A) (A) (A) (A) (A) (A) (A) (A)
                 (A) (A) (A) (A) (A) (A) (A) (A) (A) (A) (A) (A)
                 (A) (A) (A) (A) (A) (A) (A) (A) (A) (A) (A) (A)
                 (A) (A) (A) (A) (A) (A) (A) (A) (A) (A) (A) (A)
                 (A) (A) (A) (A) (A) (A) (A) (A) (A) (A) (A) (A)
                 (A) (A) (A) (A) (A) (A) (A) (A) (A) (A) (A) (A)
                 (A) (A) (A) (A) (A) (A) (A) (A) (A) (A) (A) (A)
                 (A) (A) (A) (A) (A) (A) (A) (A) (A) (A) (A) (A)
                 (A) (A) (A) (A) (A) (A) (A) (A) (A) (A) (A) (A)
                 (A) (A) (A) (A) (A) (A) (A) (A) (A) (A) (A) (A)
                 (A) (A) (A) (A) (A) (A) (A) (A) (A) (A) (A) (A)
                 (A) (A) (A) (A) (A) (A) (A) (A) (A) (A) (A) (A)
                 (A) (A) (A) (A) (A) (A) (A) (A) (A) (A) (A) (A)
                 (A) (A) (A) (A) (A) (A) (A) (A) (A) (A) (A) (A)
                 (A) (A) (A) (A) (A) (A) (A) (A) (A) (A) (A) (A)
                 (A) (A) (A) (A) (A) (A) (A) (A) (A) (A) (A) (A)
                 (A) (A) (A) (A) (A) (A) (A) (A) (A) (A) (A) (A)
                 (A) (A) (A) (A) (A) (A) (A) (A) (A) (A) (A) (A)
                 (A) (A) (A) (A) (A) (A) (A) (A) (A) (A) (A) (A)
                 (A) (A) (A) (A) (A) (A) (A) (A) (A) (A) (A) (A)
                 (A) (A) (A) (A) (A) (A) (A) (A) (A) (A) (A) (A)
                 (A) (A) (A) (A) (A) (A) (A) (A) (A) (A) (A) (A)
                 (A) (A) (A) (A) (A) (A) (A) (A) (A) (A) (A) (A)
                 (A) (A) (A) (A) (A) (A) (A) (A) (A) (A) (A) (A)
                 (A) (A) (A) (A) (A) (A) (A) (A) (A) (A) (A) (A)
                 (A) (A) (A) (A) (A) (A) (A) (A) (A) (A) (A) (A)
                 (A) (A) (A) (A) (A) (A) (A) (A) (A) (A) (A) (A)
                 (A) (A) (A) (A) (A) (A) (A) (A) (A) (A) (A) (A)
                 (A) (A) (A) (A) (A) (A) (A) (A) (A) (A) (A) (A)
                 (A) (A) (A) (A) (A) (A) (A) (A) (A) (A) (A) (A)
                 (A) (A) (A) (A) (A) (A) (A) (A) (A) (A) (A) (A)
                 (A) (A) (A) (A) (A) (A) (A) (A) (A) (A) (A) (A)
                 (A) (A) (A) (A) (A) (A) (A) (A) (A) (A) (A) (A)
                 (A) (A) (A) (A) (A) (A) (A) (A) (A) (A) (A) (A)
                 (A) (A) (A) (A) (A) (A) (A) (A) (A) (A) (A) (A)
                 (A) (A) (A) (A) (A) (A) (A) (A) (A) (A) (A) (A)
                 (A) (A) (A) (A) (A) (A) (A) (A) (A) (A) (A) (A)
                 (A) (A) (A) (A) (A) (A) (A) (A) (A) (A) (A) (A)
                 (A) (A) (A)
 Beta  Orbitals:
       Occupied  (A) (A) (A) (A) (A) (A) (A) (A) (A) (A) (A) (A)
                 (A) (A) (A) (A) (A) (A) (A) (A) (A) (A) (A) (A)
                 (A) (A) (A) (A) (A) (A) (A) (A) (A) (A) (A) (A)
                 (A) (A) (A) (A) (A) (A) (A) (A) (A) (A) (A) (A)
                 (A) (A) (A) (A) (A) (A) (A) (A) (A) (A) (A) (A)
                 (A) (A) (A) (A) (A) (A) (A) (A) (A) (A) (A) (A)
                 (A) (A) (A) (A) (A) (A) (A) (A) (A) (A) (A) (A)
                 (A) (A) (A) (A) (A) (A) (A) (A) (A) (A) (A) (A)
                 (A) (A) (A) (A) (A) (A) (A) (A) (A) (A) (A) (A)
                 (A) (A) (A) (A) (A) (A) (A) (A) (A) (A) (A) (A)
                 (A) (A) (A) (A) (A) (A) (A) (A) (A) (A) (A) (A)
                 (A) (A) (A) (A) (A) (A) (A) (A) (A) (A)
       Virtual   (A) (A) (A) (A) (A) (A) (A) (A) (A) (A) (A) (A)
                 (A) (A) (A) (A) (A) (A) (A) (A) (A) (A) (A) (A)
                 (A) (A) (A) (A) (A) (A) (A) (A) (A) (A) (A) (A)
                 (A) (A) (A) (A) (A) (A) (A) (A) (A) (A) (A) (A)
                 (A) (A) (A) (A) (A) (A) (A) (A) (A) (A) (A) (A)
                 (A) (A) (A) (A) (A) (A) (A) (A) (A) (A) (A) (A)
                 (A) (A) (A) (A) (A) (A) (A) (A) (A) (A) (A) (A)
                 (A) (A) (A) (A) (A) (A) (A) (A) (A) (A) (A) (A)
                 (A) (A) (A) (A) (A) (A) (A) (A) (A) (A) (A) (A)
                 (A) (A) (A) (A) (A) (A) (A) (A) (A) (A) (A) (A)
                 (A) (A) (A) (A) (A) (A) (A) (A) (A) (A) (A) (A)
                 (A) (A) (A) (A) (A) (A) (A) (A) (A) (A) (A) (A)
                 (A) (A) (A) (A) (A) (A) (A) (A) (A) (A) (A) (A)
                 (A) (A) (A) (A) (A) (A) (A) (A) (A) (A) (A) (A)
                 (A) (A) (A) (A) (A) (A) (A) (A) (A) (A) (A) (A)
                 (A) (A) (A) (A) (A) (A) (A) (A) (A) (A) (A) (A)
                 (A) (A) (A) (A) (A) (A) (A) (A) (A) (A) (A) (A)
                 (A) (A) (A) (A) (A) (A) (A) (A) (A) (A) (A) (A)
                 (A) (A) (A) (A) (A) (A) (A) (A) (A) (A) (A) (A)
                 (A) (A) (A) (A) (A) (A) (A) (A) (A) (A) (A) (A)
                 (A) (A) (A) (A) (A) (A) (A) (A) (A) (A) (A) (A)
                 (A) (A) (A) (A) (A) (A) (A) (A) (A) (A) (A) (A)
                 (A) (A) (A) (A) (A) (A) (A) (A) (A) (A) (A) (A)
                 (A) (A) (A) (A) (A) (A) (A) (A) (A) (A) (A) (A)
                 (A) (A) (A) (A) (A) (A) (A) (A) (A) (A) (A) (A)
                 (A) (A) (A) (A) (A) (A) (A) (A) (A) (A) (A) (A)
                 (A) (A) (A) (A) (A) (A) (A) (A) (A) (A) (A) (A)
                 (A) (A) (A) (A) (A) (A) (A) (A) (A) (A) (A) (A)
                 (A) (A) (A) (A) (A) (A) (A) (A) (A) (A) (A) (A)
                 (A) (A) (A) (A) (A) (A) (A) (A) (A) (A) (A) (A)
                 (A) (A) (A) (A) (A) (A) (A) (A) (A) (A) (A) (A)
                 (A) (A) (A) (A) (A) (A) (A) (A) (A) (A) (A) (A)
                 (A) (A) (A) (A) (A) (A) (A) (A) (A) (A) (A) (A)
                 (A) (A) (A) (A) (A) (A) (A) (A) (A) (A) (A) (A)
                 (A) (A) (A) (A) (A) (A) (A) (A) (A) (A) (A) (A)
                 (A) (A) (A) (A) (A) (A) (A) (A) (A) (A) (A) (A)
                 (A) (A) (A) (A) (A) (A) (A) (A) (A) (A) (A) (A)
                 (A) (A) (A) (A) (A) (A) (A) (A) (A) (A) (A) (A)
                 (A) (A) (A) (A) (A) (A) (A)
 The electronic state is 5-A.
 Alpha  occ. eigenvalues -- -256.28500 -88.98518 -30.17324 -26.02150 -25.99875
 Alpha  occ. eigenvalues --  -25.99804 -14.36966 -14.36732 -14.36697 -14.36601
 Alpha  occ. eigenvalues --  -10.24792 -10.22595 -10.22446 -10.22357 -10.22262
 Alpha  occ. eigenvalues --  -10.22168 -10.21907 -10.21715 -10.21687 -10.20532
 Alpha  occ. eigenvalues --  -10.20147 -10.19992 -10.19942 -10.19779 -10.19777
 Alpha  occ. eigenvalues --  -10.19757 -10.19645 -10.19601 -10.19556 -10.19549
 Alpha  occ. eigenvalues --  -10.19381 -10.19328 -10.19306 -10.19271 -10.19212
 Alpha  occ. eigenvalues --  -10.19012 -10.18961 -10.18864 -10.18684 -10.17947
 Alpha  occ. eigenvalues --  -10.17680  -8.01949  -5.96500  -5.96236  -5.95727
 Alpha  occ. eigenvalues --   -3.59606  -2.39961  -2.34061  -2.33912  -0.98158
 Alpha  occ. eigenvalues --   -0.97137  -0.97118  -0.96150  -0.83619  -0.82658
 Alpha  occ. eigenvalues --   -0.82252  -0.81928  -0.81303  -0.80982  -0.80080
 Alpha  occ. eigenvalues --   -0.79825  -0.76966  -0.75938  -0.74582  -0.74216
 Alpha  occ. eigenvalues --   -0.73448  -0.71377  -0.70522  -0.69390  -0.68826
 Alpha  occ. eigenvalues --   -0.68457  -0.68262  -0.64493  -0.64364  -0.60979
 Alpha  occ. eigenvalues --   -0.60338  -0.57946  -0.57349  -0.54876  -0.54096
 Alpha  occ. eigenvalues --   -0.53663  -0.53381  -0.51584  -0.51483  -0.51111
 Alpha  occ. eigenvalues --   -0.49597  -0.49249  -0.48048  -0.47795  -0.47273
 Alpha  occ. eigenvalues --   -0.45995  -0.45234  -0.45013  -0.44748  -0.44409
 Alpha  occ. eigenvalues --   -0.44235  -0.43796  -0.43604  -0.43311  -0.43084
 Alpha  occ. eigenvalues --   -0.42888  -0.42465  -0.42378  -0.41994  -0.41747
 Alpha  occ. eigenvalues --   -0.41544  -0.41335  -0.40890  -0.40791  -0.40594
 Alpha  occ. eigenvalues --   -0.40437  -0.40308  -0.39712  -0.39204  -0.39036
 Alpha  occ. eigenvalues --   -0.38711  -0.38473  -0.38212  -0.37937  -0.37543
 Alpha  occ. eigenvalues --   -0.37515  -0.37314  -0.36921  -0.36444  -0.36162
 Alpha  occ. eigenvalues --   -0.34789  -0.34610  -0.34035  -0.33829  -0.33241
 Alpha  occ. eigenvalues --   -0.32565  -0.32109  -0.31043  -0.30959  -0.29863
 Alpha  occ. eigenvalues --   -0.29148  -0.27607  -0.27073  -0.26819  -0.23498
 Alpha  occ. eigenvalues --   -0.23383  -0.22490  -0.22360  -0.19348  -0.18620
 Alpha  occ. eigenvalues --   -0.10571
 Alpha virt. eigenvalues --   -0.08811  -0.06668  -0.02191   0.00124   0.01320
 Alpha virt. eigenvalues --    0.02841   0.04438   0.05348   0.07870   0.08656
 Alpha virt. eigenvalues --    0.08865   0.09998   0.10608   0.10817   0.11415
 Alpha virt. eigenvalues --    0.11787   0.12129   0.13001   0.13621   0.13897
 Alpha virt. eigenvalues --    0.13981   0.14397   0.14792   0.14966   0.15065
 Alpha virt. eigenvalues --    0.15338   0.15897   0.16126   0.16736   0.16923
 Alpha virt. eigenvalues --    0.17275   0.17561   0.17662   0.17734   0.18589
 Alpha virt. eigenvalues --    0.18660   0.18782   0.18940   0.19586   0.20110
 Alpha virt. eigenvalues --    0.20807   0.21135   0.21220   0.21644   0.21929
 Alpha virt. eigenvalues --    0.22405   0.22504   0.23059   0.24088   0.24386
 Alpha virt. eigenvalues --    0.25076   0.25504   0.25953   0.26173   0.26415
 Alpha virt. eigenvalues --    0.26837   0.27169   0.27412   0.29442   0.29839
 Alpha virt. eigenvalues --    0.30644   0.31427   0.31703   0.32407   0.32861
 Alpha virt. eigenvalues --    0.33558   0.34310   0.34437   0.35312   0.35503
 Alpha virt. eigenvalues --    0.35938   0.36147   0.37247   0.37661   0.37983
 Alpha virt. eigenvalues --    0.39521   0.41695   0.42717   0.43113   0.43982
 Alpha virt. eigenvalues --    0.44599   0.45467   0.45742   0.46169   0.46339
 Alpha virt. eigenvalues --    0.47995   0.48183   0.48819   0.49753   0.49991
 Alpha virt. eigenvalues --    0.50825   0.51738   0.52192   0.52473   0.52949
 Alpha virt. eigenvalues --    0.53235   0.53374   0.53602   0.54123   0.54573
 Alpha virt. eigenvalues --    0.55045   0.55271   0.56067   0.57015   0.57472
 Alpha virt. eigenvalues --    0.58018   0.58505   0.58843   0.59111   0.59725
 Alpha virt. eigenvalues --    0.60218   0.60470   0.60781   0.61089   0.61727
 Alpha virt. eigenvalues --    0.62452   0.62575   0.63005   0.63496   0.63608
 Alpha virt. eigenvalues --    0.64058   0.64881   0.65200   0.65554   0.65884
 Alpha virt. eigenvalues --    0.66309   0.66791   0.67071   0.67306   0.67917
 Alpha virt. eigenvalues --    0.68415   0.68767   0.69490   0.69602   0.70399
 Alpha virt. eigenvalues --    0.71103   0.71339   0.71696   0.71985   0.73123
 Alpha virt. eigenvalues --    0.73623   0.74296   0.74911   0.75418   0.75962
 Alpha virt. eigenvalues --    0.76090   0.76205   0.76432   0.76913   0.77787
 Alpha virt. eigenvalues --    0.78050   0.78274   0.78812   0.79217   0.79259
 Alpha virt. eigenvalues --    0.79459   0.79989   0.80400   0.80762   0.81332
 Alpha virt. eigenvalues --    0.81589   0.81769   0.83130   0.83458   0.83789
 Alpha virt. eigenvalues --    0.85469   0.85876   0.86444   0.86859   0.87324
 Alpha virt. eigenvalues --    0.87377   0.87845   0.88087   0.88747   0.88815
 Alpha virt. eigenvalues --    0.89242   0.89496   0.90199   0.90780   0.91161
 Alpha virt. eigenvalues --    0.91381   0.91640   0.92250   0.92345   0.92879
 Alpha virt. eigenvalues --    0.93261   0.93801   0.94031   0.94785   0.95017
 Alpha virt. eigenvalues --    0.95490   0.96329   0.96659   0.97046   0.97353
 Alpha virt. eigenvalues --    0.97575   0.98675   0.99232   0.99691   0.99874
 Alpha virt. eigenvalues --    1.00294   1.00421   1.00494   1.01079   1.02175
 Alpha virt. eigenvalues --    1.02424   1.02912   1.03912   1.04107   1.04343
 Alpha virt. eigenvalues --    1.04820   1.05856   1.06207   1.07025   1.07139
 Alpha virt. eigenvalues --    1.08049   1.08786   1.09260   1.10586   1.10768
 Alpha virt. eigenvalues --    1.12461   1.13189   1.14453   1.15693   1.16450
 Alpha virt. eigenvalues --    1.17456   1.17771   1.18165   1.18395   1.19803
 Alpha virt. eigenvalues --    1.19989   1.20797   1.21254   1.21798   1.22467
 Alpha virt. eigenvalues --    1.22683   1.23809   1.24576   1.25212   1.26029
 Alpha virt. eigenvalues --    1.26853   1.27030   1.28148   1.28536   1.28976
 Alpha virt. eigenvalues --    1.29797   1.31214   1.31946   1.32596   1.34216
 Alpha virt. eigenvalues --    1.34666   1.35881   1.36609   1.36995   1.37457
 Alpha virt. eigenvalues --    1.37953   1.38685   1.38913   1.39156   1.39283
 Alpha virt. eigenvalues --    1.40600   1.41621   1.43945   1.44370   1.44944
 Alpha virt. eigenvalues --    1.45309   1.47267   1.47776   1.47910   1.50148
 Alpha virt. eigenvalues --    1.50670   1.53388   1.53490   1.54282   1.54580
 Alpha virt. eigenvalues --    1.55222   1.55505   1.56526   1.56879   1.58634
 Alpha virt. eigenvalues --    1.59253   1.60073   1.60817   1.62327   1.63693
 Alpha virt. eigenvalues --    1.64299   1.65347   1.66172   1.67914   1.69050
 Alpha virt. eigenvalues --    1.69714   1.70234   1.70482   1.71828   1.72011
 Alpha virt. eigenvalues --    1.75084   1.77452   1.77982   1.78725   1.79457
 Alpha virt. eigenvalues --    1.79867   1.80358   1.80669   1.81081   1.82301
 Alpha virt. eigenvalues --    1.82486   1.82796   1.83248   1.83874   1.84190
 Alpha virt. eigenvalues --    1.85088   1.86156   1.87263   1.87693   1.88241
 Alpha virt. eigenvalues --    1.89205   1.90357   1.90849   1.91957   1.92435
 Alpha virt. eigenvalues --    1.92633   1.92696   1.93512   1.94284   1.95027
 Alpha virt. eigenvalues --    1.95491   1.95929   1.96623   1.99800   1.99942
 Alpha virt. eigenvalues --    2.00320   2.01002   2.01087   2.01736   2.02311
 Alpha virt. eigenvalues --    2.03244   2.03655   2.05365   2.05605   2.06058
 Alpha virt. eigenvalues --    2.06582   2.07922   2.08421   2.09402   2.09942
 Alpha virt. eigenvalues --    2.12381   2.13432   2.13833   2.14334   2.15700
 Alpha virt. eigenvalues --    2.15991   2.16365   2.17289   2.18581   2.19501
 Alpha virt. eigenvalues --    2.20284   2.20611   2.21272   2.22262   2.22755
 Alpha virt. eigenvalues --    2.23035   2.23250   2.24635   2.25245   2.25618
 Alpha virt. eigenvalues --    2.26443   2.26702   2.27333   2.27393   2.27807
 Alpha virt. eigenvalues --    2.29427   2.29975   2.30074   2.30338   2.30892
 Alpha virt. eigenvalues --    2.31695   2.32215   2.33129   2.34852   2.35472
 Alpha virt. eigenvalues --    2.35857   2.36135   2.36793   2.37517   2.38141
 Alpha virt. eigenvalues --    2.38469   2.40147   2.40572   2.41619   2.42464
 Alpha virt. eigenvalues --    2.42818   2.43329   2.44090   2.44385   2.45076
 Alpha virt. eigenvalues --    2.45918   2.48287   2.49309   2.50463   2.52811
 Alpha virt. eigenvalues --    2.52862   2.53066   2.53248   2.53684   2.55877
 Alpha virt. eigenvalues --    2.56289   2.56963   2.57305   2.57819   2.60772
 Alpha virt. eigenvalues --    2.61124   2.63086   2.65443   2.66498   2.66987
 Alpha virt. eigenvalues --    2.68757   2.68945   2.70439   2.71686   2.72316
 Alpha virt. eigenvalues --    2.75735   2.77570   2.79311   2.80031   2.80805
 Alpha virt. eigenvalues --    2.81298   2.87603   2.88088   2.89490   2.91650
 Alpha virt. eigenvalues --    2.91980   2.93181   2.95552   2.96587   2.97334
 Alpha virt. eigenvalues --    2.98081   2.99476   2.99992   3.01187   3.04939
 Alpha virt. eigenvalues --    3.06019   3.13155   3.14311   3.20571   3.23434
 Alpha virt. eigenvalues --    3.23733   3.28654   3.30369   3.30643   3.39170
 Alpha virt. eigenvalues --    3.40213   3.40789   3.45245   3.45742   3.48089
 Alpha virt. eigenvalues --    3.48906   3.78766   3.95507   4.07844
  Beta  occ. eigenvalues -- -256.28389 -88.98426 -30.11309 -25.95800 -25.95774
  Beta  occ. eigenvalues --  -25.95179 -14.36950 -14.36698 -14.36620 -14.36566
  Beta  occ. eigenvalues --  -10.24786 -10.22688 -10.22531 -10.22454 -10.22335
  Beta  occ. eigenvalues --  -10.21998 -10.21744 -10.21497 -10.21461 -10.20531
  Beta  occ. eigenvalues --  -10.20192 -10.20039 -10.20011 -10.19844 -10.19821
  Beta  occ. eigenvalues --  -10.19814 -10.19663 -10.19597 -10.19452 -10.19378
  Beta  occ. eigenvalues --  -10.19369 -10.19339 -10.19207 -10.19117 -10.19107
  Beta  occ. eigenvalues --  -10.19010 -10.18976 -10.18880 -10.18603 -10.17569
  Beta  occ. eigenvalues --  -10.17299  -8.01845  -5.96434  -5.96127  -5.95507
  Beta  occ. eigenvalues --   -3.45202  -2.21508  -2.21422  -2.18909  -0.97932
  Beta  occ. eigenvalues --   -0.96913  -0.96896  -0.95922  -0.83225  -0.82429
  Beta  occ. eigenvalues --   -0.82086  -0.81784  -0.81154  -0.80828  -0.79952
  Beta  occ. eigenvalues --   -0.79412  -0.76825  -0.75865  -0.74403  -0.73869
  Beta  occ. eigenvalues --   -0.73382  -0.71236  -0.70431  -0.69120  -0.68750
  Beta  occ. eigenvalues --   -0.68368  -0.68132  -0.64397  -0.63987  -0.60898
  Beta  occ. eigenvalues --   -0.60234  -0.57769  -0.57100  -0.54725  -0.54035
  Beta  occ. eigenvalues --   -0.53562  -0.53194  -0.51496  -0.51374  -0.51019
  Beta  occ. eigenvalues --   -0.49136  -0.49006  -0.47932  -0.47573  -0.46927
  Beta  occ. eigenvalues --   -0.45477  -0.44924  -0.44834  -0.44319  -0.43934
  Beta  occ. eigenvalues --   -0.43789  -0.43643  -0.43374  -0.43055  -0.42835
  Beta  occ. eigenvalues --   -0.42520  -0.42391  -0.41891  -0.41662  -0.41395
  Beta  occ. eigenvalues --   -0.40938  -0.40522  -0.40465  -0.40254  -0.39696
  Beta  occ. eigenvalues --   -0.39659  -0.39289  -0.39020  -0.38836  -0.38354
  Beta  occ. eigenvalues --   -0.38165  -0.37852  -0.37588  -0.37293  -0.36795
  Beta  occ. eigenvalues --   -0.36568  -0.35984  -0.35782  -0.34717  -0.34468
  Beta  occ. eigenvalues --   -0.33791  -0.32480  -0.31756  -0.31624  -0.31138
  Beta  occ. eigenvalues --   -0.31035  -0.29405  -0.28843  -0.26735  -0.26141
  Beta  occ. eigenvalues --   -0.25762  -0.23881  -0.23344  -0.22701  -0.21966
  Beta  occ. eigenvalues --   -0.18466  -0.17431
  Beta virt. eigenvalues --   -0.10045  -0.09056  -0.07083  -0.05662  -0.04488
  Beta virt. eigenvalues --   -0.01008  -0.00433   0.01141   0.01820   0.03510
  Beta virt. eigenvalues --    0.05038   0.06342   0.08902   0.09342   0.09606
  Beta virt. eigenvalues --    0.10454   0.10883   0.11049   0.11859   0.12051
  Beta virt. eigenvalues --    0.12401   0.13093   0.13804   0.14069   0.14264
  Beta virt. eigenvalues --    0.14656   0.15044   0.15308   0.15565   0.15692
  Beta virt. eigenvalues --    0.16224   0.16289   0.16861   0.17107   0.17510
  Beta virt. eigenvalues --    0.17721   0.17790   0.17956   0.18760   0.18876
  Beta virt. eigenvalues --    0.18915   0.19141   0.19810   0.20258   0.20937
  Beta virt. eigenvalues --    0.21305   0.21367   0.21854   0.22449   0.22525
  Beta virt. eigenvalues --    0.23142   0.23875   0.24220   0.24952   0.25431
  Beta virt. eigenvalues --    0.25853   0.26137   0.26480   0.26773   0.27279
  Beta virt. eigenvalues --    0.27494   0.27911   0.29738   0.30030   0.30825
  Beta virt. eigenvalues --    0.31641   0.32139   0.32731   0.33029   0.33765
  Beta virt. eigenvalues --    0.34636   0.34751   0.35706   0.35767   0.36275
  Beta virt. eigenvalues --    0.36456   0.37624   0.37978   0.38134   0.39717
  Beta virt. eigenvalues --    0.42304   0.43110   0.43484   0.44111   0.44924
  Beta virt. eigenvalues --    0.45683   0.46104   0.46471   0.46662   0.48149
  Beta virt. eigenvalues --    0.48340   0.48950   0.49932   0.50184   0.51086
  Beta virt. eigenvalues --    0.51919   0.52401   0.52712   0.53136   0.53376
  Beta virt. eigenvalues --    0.53616   0.53964   0.54426   0.54766   0.55234
  Beta virt. eigenvalues --    0.55517   0.56289   0.57413   0.57723   0.58310
  Beta virt. eigenvalues --    0.58739   0.59074   0.59401   0.60026   0.60527
  Beta virt. eigenvalues --    0.60782   0.61000   0.61416   0.62196   0.62752
  Beta virt. eigenvalues --    0.62945   0.63398   0.63869   0.63966   0.64599
  Beta virt. eigenvalues --    0.65217   0.65471   0.65858   0.66076   0.66611
  Beta virt. eigenvalues --    0.66846   0.67329   0.67499   0.68336   0.68634
  Beta virt. eigenvalues --    0.69146   0.69736   0.69959   0.70602   0.71291
  Beta virt. eigenvalues --    0.71515   0.72021   0.72284   0.73544   0.73990
  Beta virt. eigenvalues --    0.74583   0.75125   0.75560   0.76204   0.76520
  Beta virt. eigenvalues --    0.76778   0.76879   0.77207   0.78138   0.78358
  Beta virt. eigenvalues --    0.78391   0.79220   0.79397   0.79704   0.80174
  Beta virt. eigenvalues --    0.80417   0.80611   0.81198   0.81570   0.81939
  Beta virt. eigenvalues --    0.82831   0.83581   0.83873   0.84134   0.86062
  Beta virt. eigenvalues --    0.86791   0.86806   0.87161   0.87432   0.87804
  Beta virt. eigenvalues --    0.87969   0.88271   0.89023   0.89080   0.89441
  Beta virt. eigenvalues --    0.89623   0.90404   0.91040   0.91369   0.91579
  Beta virt. eigenvalues --    0.91748   0.92354   0.92554   0.93037   0.93404
  Beta virt. eigenvalues --    0.93962   0.94211   0.94971   0.95313   0.95622
  Beta virt. eigenvalues --    0.96514   0.96833   0.97207   0.97488   0.97800
  Beta virt. eigenvalues --    0.98783   0.99327   0.99843   1.00103   1.00425
  Beta virt. eigenvalues --    1.00575   1.00602   1.01219   1.02465   1.02538
  Beta virt. eigenvalues --    1.03204   1.04111   1.04341   1.04938   1.05236
  Beta virt. eigenvalues --    1.06266   1.06429   1.07194   1.07451   1.08368
  Beta virt. eigenvalues --    1.09282   1.09692   1.10690   1.11106   1.12951
  Beta virt. eigenvalues --    1.13814   1.14585   1.15912   1.16649   1.17766
  Beta virt. eigenvalues --    1.17903   1.18366   1.18610   1.19997   1.20133
  Beta virt. eigenvalues --    1.21004   1.21436   1.22085   1.22643   1.23433
  Beta virt. eigenvalues --    1.23988   1.25126   1.25645   1.26376   1.27454
  Beta virt. eigenvalues --    1.27656   1.28646   1.28922   1.30145   1.30302
  Beta virt. eigenvalues --    1.31665   1.32323   1.32743   1.34430   1.35005
  Beta virt. eigenvalues --    1.36121   1.36869   1.37258   1.37885   1.38163
  Beta virt. eigenvalues --    1.38961   1.39186   1.39398   1.39600   1.40808
  Beta virt. eigenvalues --    1.41904   1.44192   1.44699   1.45286   1.45808
  Beta virt. eigenvalues --    1.47424   1.47872   1.48383   1.50787   1.51186
  Beta virt. eigenvalues --    1.53705   1.53849   1.54703   1.54866   1.55540
  Beta virt. eigenvalues --    1.55822   1.56729   1.57178   1.59395   1.59585
  Beta virt. eigenvalues --    1.60348   1.61264   1.62769   1.63945   1.64577
  Beta virt. eigenvalues --    1.65551   1.66405   1.68287   1.69225   1.69829
  Beta virt. eigenvalues --    1.70590   1.70804   1.72141   1.72294   1.75440
  Beta virt. eigenvalues --    1.77696   1.78229   1.78996   1.79646   1.80007
  Beta virt. eigenvalues --    1.80569   1.80913   1.81402   1.82597   1.82675
  Beta virt. eigenvalues --    1.82999   1.83470   1.84127   1.84480   1.85255
  Beta virt. eigenvalues --    1.86387   1.87457   1.87818   1.88362   1.89474
  Beta virt. eigenvalues --    1.90653   1.91727   1.92613   1.92690   1.92893
  Beta virt. eigenvalues --    1.92984   1.93785   1.94634   1.95409   1.95740
  Beta virt. eigenvalues --    1.96548   1.99056   2.00052   2.00106   2.00536
  Beta virt. eigenvalues --    2.01294   2.01348   2.01984   2.02852   2.03401
  Beta virt. eigenvalues --    2.04286   2.05691   2.05866   2.06346   2.06960
  Beta virt. eigenvalues --    2.08342   2.08701   2.09574   2.11898   2.12524
  Beta virt. eigenvalues --    2.13673   2.13988   2.14461   2.15895   2.16207
  Beta virt. eigenvalues --    2.16545   2.17520   2.18784   2.19745   2.20675
  Beta virt. eigenvalues --    2.21743   2.22428   2.22798   2.23016   2.23617
  Beta virt. eigenvalues --    2.23669   2.25201   2.25886   2.26306   2.27049
  Beta virt. eigenvalues --    2.27269   2.27595   2.27717   2.28058   2.29553
  Beta virt. eigenvalues --    2.30162   2.30226   2.30651   2.31141   2.31922
  Beta virt. eigenvalues --    2.32530   2.33301   2.35124   2.35766   2.36085
  Beta virt. eigenvalues --    2.36342   2.37028   2.37869   2.38422   2.38748
  Beta virt. eigenvalues --    2.40347   2.40716   2.41834   2.42741   2.43042
  Beta virt. eigenvalues --    2.43610   2.44246   2.44553   2.45445   2.46131
  Beta virt. eigenvalues --    2.48847   2.49628   2.50788   2.53003   2.53191
  Beta virt. eigenvalues --    2.53416   2.53545   2.54002   2.56032   2.56450
  Beta virt. eigenvalues --    2.57258   2.57594   2.58213   2.61079   2.61450
  Beta virt. eigenvalues --    2.63368   2.65756   2.66915   2.67336   2.69236
  Beta virt. eigenvalues --    2.69443   2.70714   2.72069   2.72615   2.75820
  Beta virt. eigenvalues --    2.77707   2.79613   2.80192   2.80899   2.81418
  Beta virt. eigenvalues --    2.87796   2.88311   2.89747   2.91797   2.92172
  Beta virt. eigenvalues --    2.93479   2.95611   2.97101   2.97464   2.98543
  Beta virt. eigenvalues --    2.99547   3.00091   3.01439   3.04960   3.06137
  Beta virt. eigenvalues --    3.13269   3.14432   3.20692   3.23644   3.23905
  Beta virt. eigenvalues --    3.30433   3.30691   3.36570   3.39936   3.40426
  Beta virt. eigenvalues --    3.41311   3.46354   3.47067   3.57697   3.58916
  Beta virt. eigenvalues --    3.82830   4.01530   4.13705
          Condensed to atoms (all electrons):
          Atomic-Atomic Spin Densities.
 Mulliken charges and spin densities:
               1          2
     1  Fe   0.744054   2.856263
     2  N   -0.673862  -0.000307
     3  N   -0.696504  -0.009530
     4  N   -0.699706   0.017444
     5  N   -0.705178  -0.004274
     6  C    0.293334   0.149858
     7  C    0.040058  -0.052574
     8  C    0.027021   0.124325
     9  C    0.305270  -0.073491
    10  C    0.319242  -0.065540
    11  C    0.027155   0.130658
    12  C    0.002786  -0.033336
    13  C    0.292643   0.117541
    14  C    0.293766   0.113327
    15  C    0.047541  -0.033987
    16  C   -0.010519   0.111059
    17  C    0.340387  -0.068704
    18  C    0.336300  -0.058448
    19  C    0.027892   0.126202
    20  C    0.039767  -0.034947
    21  C    0.306741   0.154082
    22  C   -0.310398  -0.084710
    23  H    0.164937   0.003173
    24  C   -0.340895   0.276276
    25  H    0.156808  -0.013813
    26  C   -0.284968  -0.067469
    27  H    0.168000   0.002440
    28  C   -0.335436   0.277454
    29  H    0.160156  -0.013852
    30  C   -0.606650  -0.011939
    31  H    0.182524   0.000062
    32  H    0.193104   0.006669
    33  H    0.184558   0.006326
    34  C   -0.609349   0.003393
    35  H    0.186454  -0.001196
    36  H    0.194686  -0.001430
    37  H    0.185860  -0.000551
    38  C   -0.610442  -0.012066
    39  H    0.182374   0.007288
    40  H    0.188217   0.004039
    41  H    0.195194   0.000969
    42  C   -0.149238   0.002422
    43  H    0.170487  -0.000474
    44  C   -0.401947   0.003991
    45  H    0.174501  -0.000213
    46  H    0.168697  -0.000387
    47  C   -0.613087   0.002011
    48  H    0.185929  -0.000497
    49  H    0.192133  -0.000202
    50  H    0.197800  -0.000698
    51  C   -0.144682  -0.037036
    52  H    0.165736   0.004703
    53  C   -0.404084   0.058366
    54  H    0.173298  -0.002960
    55  H    0.165976  -0.002780
    56  C   -0.608015  -0.012251
    57  H    0.187897   0.006616
    58  H    0.194960   0.006616
    59  H    0.181839  -0.000004
    60  C   -0.609821   0.001752
    61  H    0.187342  -0.000357
    62  H    0.186618  -0.000532
    63  H    0.194479  -0.000636
    64  C   -0.687168   0.002517
    65  H    0.245581  -0.000365
    66  H    0.252573   0.001626
    67  H    0.223490   0.003049
    68  S    0.088947   0.117639
    69  H    0.176833   0.001401
 Sum of Mulliken charges =  -0.00000   4.00000
 Mulliken charges and spin densities with hydrogens summed into heavy atoms:
               1          2
     1  Fe   0.744054   2.856263
     2  N   -0.673862  -0.000307
     3  N   -0.696504  -0.009530
     4  N   -0.699706   0.017444
     5  N   -0.705178  -0.004274
     6  C    0.293334   0.149858
     7  C    0.040058  -0.052574
     8  C    0.027021   0.124325
     9  C    0.305270  -0.073491
    10  C    0.319242  -0.065540
    11  C    0.027155   0.130658
    12  C    0.002786  -0.033336
    13  C    0.292643   0.117541
    14  C    0.293766   0.113327
    15  C    0.047541  -0.033987
    16  C   -0.010519   0.111059
    17  C    0.340387  -0.068704
    18  C    0.336300  -0.058448
    19  C    0.027892   0.126202
    20  C    0.039767  -0.034947
    21  C    0.306741   0.154082
    22  C   -0.145461  -0.081537
    24  C   -0.184086   0.262463
    26  C   -0.116968  -0.065029
    28  C   -0.175280   0.263601
    30  C   -0.046464   0.001119
    34  C   -0.042348   0.000216
    38  C   -0.044657   0.000230
    42  C    0.021249   0.001948
    44  C   -0.058748   0.003391
    47  C   -0.037224   0.000615
    51  C    0.021054  -0.032333
    53  C   -0.064811   0.052626
    56  C   -0.043319   0.000976
    60  C   -0.041383   0.000226
    64  C    0.034476   0.006827
    68  S    0.265780   0.119040
 Electronic spatial extent (au):  <R**2>=          18117.2390
 Charge=             -0.0000 electrons
 Dipole moment (field-independent basis, Debye):
    X=             -2.1983    Y=             -0.2754    Z=              3.5099  Tot=              4.1507
 Quadrupole moment (field-independent basis, Debye-Ang):
   XX=           -213.8619   YY=           -212.0816   ZZ=           -228.5081
   XY=              4.0629   XZ=             -6.0366   YZ=              1.4909
 Traceless Quadrupole moment (field-independent basis, Debye-Ang):
   XX=              4.2886   YY=              6.0689   ZZ=            -10.3576
   XY=              4.0629   XZ=             -6.0366   YZ=              1.4909
 Octapole moment (field-independent basis, Debye-Ang**2):
  XXX=            -25.7535  YYY=            -30.5541  ZZZ=             39.6466  XYY=              0.1849
  XXY=             -0.3417  XXZ=              0.0082  XZZ=            -26.2289  YZZ=             -1.9558
  YYZ=              2.3241  XYZ=             -8.4945
 Hexadecapole moment (field-independent basis, Debye-Ang**3):
 XXXX=         -11345.3109 YYYY=         -11123.2038 ZZZZ=          -1126.0533 XXXY=             44.6544
 XXXZ=            -30.6946 YYYX=             59.0642 YYYZ=             83.3322 ZZZX=            -67.5532
 ZZZY=             14.1137 XXYY=          -3738.8220 XXZZ=          -2249.8523 YYZZ=          -2218.2964
 XXYZ=            -53.0990 YYXZ=            -18.6128 ZZXY=             11.7003
 N-N= 5.034420693332D+03 E-N=-1.731819895618D+04  KE= 3.070421285447D+03
                          Isotropic Fermi Contact Couplings
        Atom                 a.u.       MegaHertz       Gauss      10(-4) cm-1
     1  Fe(57)             0.50267      18.22694       6.50383       6.07985
     2  N(14)             -0.02610      -2.10861      -0.75240      -0.70335
     3  N(14)             -0.02805      -2.26563      -0.80843      -0.75573
     4  N(14)             -0.02360      -1.90597      -0.68010      -0.63576
     5  N(14)             -0.02754      -2.22463      -0.79380      -0.74206
     6  C(13)              0.01815       5.10023       1.81989       1.70125
     7  C(13)             -0.01169      -3.28503      -1.17218      -1.09577
     8  C(13)              0.01745       4.90303       1.74952       1.63548
     9  C(13)             -0.01742      -4.89585      -1.74696      -1.63308
    10  C(13)             -0.01647      -4.62813      -1.65143      -1.54378
    11  C(13)              0.01851       5.20108       1.85587       1.73489
    12  C(13)             -0.00863      -2.42568      -0.86554      -0.80912
    13  C(13)              0.01332       3.74353       1.33578       1.24871
    14  C(13)              0.01225       3.44199       1.22819       1.14813
    15  C(13)             -0.00870      -2.44468      -0.87232      -0.81546
    16  C(13)              0.01534       4.31220       1.53870       1.43840
    17  C(13)             -0.01767      -4.96620      -1.77206      -1.65655
    18  C(13)             -0.01578      -4.43632      -1.58299      -1.47980
    19  C(13)              0.01748       4.91194       1.75270       1.63845
    20  C(13)             -0.00945      -2.65556      -0.94757      -0.88580
    21  C(13)              0.01838       5.16655       1.84355       1.72338
    22  C(13)             -0.01479      -4.15718      -1.48338      -1.38669
    23  H(1)               0.00099       1.10438       0.39407       0.36838
    24  C(13)              0.03687      10.36248       3.69759       3.45655
    25  H(1)              -0.00432      -4.83163      -1.72405      -1.61166
    26  C(13)             -0.01168      -3.28379      -1.17174      -1.09535
    27  H(1)               0.00074       0.83077       0.29644       0.27712
    28  C(13)              0.03692      10.37502       3.70207       3.46073
    29  H(1)              -0.00435      -4.86218      -1.73495      -1.62185
    30  C(13)             -0.00444      -1.24648      -0.44478      -0.41578
    31  H(1)              -0.00000      -0.00376      -0.00134      -0.00125
    32  H(1)               0.00249       2.77776       0.99117       0.92656
    33  H(1)               0.00225       2.51404       0.89707       0.83859
    34  C(13)              0.00102       0.28569       0.10194       0.09530
    35  H(1)              -0.00033      -0.37431      -0.13356      -0.12486
    36  H(1)              -0.00053      -0.59718      -0.21309      -0.19920
    37  H(1)              -0.00023      -0.25687      -0.09166      -0.08568
    38  C(13)             -0.00446      -1.25405      -0.44747      -0.41830
    39  H(1)               0.00313       3.50054       1.24908       1.16765
    40  H(1)               0.00121       1.35402       0.48315       0.45165
    41  H(1)               0.00060       0.67060       0.23929       0.22369
    42  C(13)              0.00033       0.09382       0.03348       0.03129
    43  H(1)              -0.00006      -0.06231      -0.02223      -0.02079
    44  C(13)              0.00018       0.05154       0.01839       0.01719
    45  H(1)              -0.00004      -0.04651      -0.01660      -0.01551
    46  H(1)              -0.00012      -0.13273      -0.04736      -0.04427
    47  C(13)              0.00052       0.14502       0.05175       0.04837
    48  H(1)              -0.00012      -0.13136      -0.04687      -0.04382
    49  H(1)              -0.00005      -0.05338      -0.01905      -0.01780
    50  H(1)              -0.00021      -0.23189      -0.08274      -0.07735
    51  C(13)             -0.00747      -2.09961      -0.74919      -0.70035
    52  H(1)               0.00111       1.24265       0.44341       0.41450
    53  C(13)              0.00873       2.45323       0.87537       0.81831
    54  H(1)              -0.00090      -1.00319      -0.35796      -0.33463
    55  H(1)              -0.00086      -0.96019      -0.34262      -0.32028
    56  C(13)             -0.00458      -1.28854      -0.45978      -0.42981
    57  H(1)               0.00260       2.90790       1.03761       0.96997
    58  H(1)               0.00240       2.67732       0.95533       0.89306
    59  H(1)              -0.00003      -0.03134      -0.01118      -0.01045
    60  C(13)              0.00035       0.09878       0.03525       0.03295
    61  H(1)               0.00003       0.03786       0.01351       0.01263
    62  H(1)              -0.00022      -0.24695      -0.08812      -0.08237
    63  H(1)              -0.00006      -0.07209      -0.02572      -0.02405
    64  C(13)             -0.00051      -0.14348      -0.05120      -0.04786
    65  H(1)              -0.00001      -0.01396      -0.00498      -0.00466
    66  H(1)               0.00071       0.79883       0.28504       0.26646
    67  H(1)               0.00231       2.57832       0.92001       0.86003
    68  S(33)              0.16537      14.19983       5.06685       4.73655
    69  H(1)               0.00040       0.45030       0.16068       0.15020
 --------------------------------------------------------
       Center         ----  Spin Dipole Couplings  ----
                      3XX-RR        3YY-RR        3ZZ-RR
 --------------------------------------------------------
     1   Atom       -2.239537     -2.237603      4.477140
     2   Atom       -0.067643     -0.078138      0.145781
     3   Atom       -0.067955     -0.057050      0.125005
     4   Atom       -0.070348     -0.100139      0.170487
     5   Atom       -0.079392     -0.060812      0.140203
     6   Atom       -0.061277     -0.085279      0.146557
     7   Atom        0.022404      0.013787     -0.036191
     8   Atom       -0.056144     -0.069239      0.125383
     9   Atom        0.037982      0.018706     -0.056688
    10   Atom        0.017411      0.029462     -0.046873
    11   Atom       -0.071039     -0.063310      0.134349
    12   Atom        0.003455      0.012575     -0.016030
    13   Atom       -0.072881     -0.040027      0.112908
    14   Atom       -0.037329     -0.066547      0.103876
    15   Atom        0.015956      0.006013     -0.021968
    16   Atom       -0.041900     -0.062671      0.104571
    17   Atom        0.035966      0.017311     -0.053277
    18   Atom        0.013599      0.025185     -0.038784
    19   Atom       -0.071220     -0.054963      0.126183
    20   Atom        0.003002      0.012047     -0.015050
    21   Atom       -0.092633     -0.057064      0.149697
    22   Atom        0.033776      0.037123     -0.070899
    23   Atom        0.002962      0.004206     -0.007169
    24   Atom       -0.126299     -0.128402      0.254701
    25   Atom        0.007239     -0.001339     -0.005900
    26   Atom        0.027646      0.032339     -0.059985
    27   Atom        0.002442      0.004446     -0.006888
    28   Atom       -0.126820     -0.133529      0.260349
    29   Atom        0.006789     -0.000538     -0.006251
    30   Atom        0.006557     -0.002965     -0.003592
    31   Atom        0.005937     -0.003070     -0.002867
    32   Atom        0.005604     -0.002077     -0.003527
    33   Atom        0.005682     -0.001902     -0.003780
    34   Atom        0.004377     -0.001413     -0.002964
    35   Atom        0.003433     -0.000601     -0.002832
    36   Atom        0.003387     -0.000545     -0.002842
    37   Atom        0.003758     -0.001210     -0.002549
    38   Atom       -0.002093      0.005451     -0.003358
    39   Atom       -0.001047      0.004734     -0.003687
    40   Atom       -0.000504      0.004085     -0.003580
    41   Atom       -0.002588      0.005440     -0.002852
    42   Atom       -0.001994      0.005405     -0.003410
    43   Atom       -0.001178      0.004089     -0.002911
    44   Atom       -0.001218      0.002889     -0.001671
    45   Atom       -0.001844      0.003834     -0.001990
    46   Atom       -0.001042      0.002630     -0.001588
    47   Atom        0.004416     -0.001305     -0.003111
    48   Atom        0.003167     -0.000028     -0.003139
    49   Atom        0.003373     -0.000627     -0.002745
    50   Atom        0.003704     -0.000985     -0.002719
    51   Atom        0.019689     -0.000277     -0.019412
    52   Atom        0.007373     -0.003067     -0.004306
    53   Atom       -0.016827     -0.009781      0.026608
    54   Atom        0.000866      0.000995     -0.001860
    55   Atom        0.003611     -0.001162     -0.002449
    56   Atom       -0.002076      0.005703     -0.003627
    57   Atom       -0.000711      0.004710     -0.003998
    58   Atom       -0.000626      0.004004     -0.003377
    59   Atom       -0.002638      0.005542     -0.002904
    60   Atom       -0.002564      0.005256     -0.002692
    61   Atom       -0.001535      0.004671     -0.003135
    62   Atom       -0.001959      0.004592     -0.002633
    63   Atom       -0.001526      0.004176     -0.002650
    64   Atom        0.001486     -0.016384      0.014897
    65   Atom       -0.003187     -0.004594      0.007782
    66   Atom        0.005915     -0.011759      0.005845
    67   Atom       -0.002579     -0.007160      0.009739
    68   Atom       -0.258424     -0.289533      0.547958
    69   Atom       -0.022202      0.001763      0.020439
 --------------------------------------------------------
                        XY            XZ            YZ
 --------------------------------------------------------
     1   Atom       -0.096431     -0.049408      0.334917
     2   Atom       -0.001806     -0.035510     -0.000078
     3   Atom       -0.003134     -0.006703     -0.046860
     4   Atom       -0.002395     -0.055365      0.007240
     5   Atom       -0.004670      0.007683     -0.020077
     6   Atom        0.012979      0.007600      0.009125
     7   Atom        0.005241      0.005774     -0.004643
     8   Atom       -0.002390      0.005590      0.011265
     9   Atom       -0.008218      0.006115     -0.008183
    10   Atom       -0.010678      0.003280     -0.008721
    11   Atom       -0.004614     -0.021253     -0.001221
    12   Atom        0.003691     -0.000037     -0.004795
    13   Atom        0.007786     -0.011944     -0.008166
    14   Atom        0.015148     -0.031878     -0.004650
    15   Atom        0.005214      0.000425      0.000343
    16   Atom       -0.001361     -0.033657     -0.005441
    17   Atom       -0.010305      0.002155      0.003536
    18   Atom       -0.011285     -0.001461      0.009417
    19   Atom       -0.004804     -0.002646     -0.032620
    20   Atom        0.004462     -0.003637      0.007952
    21   Atom        0.007783      0.002597     -0.029894
    22   Atom        0.010288      0.000214      0.001624
    23   Atom        0.003985      0.000188      0.000424
    24   Atom       -0.015566      0.010634      0.038928
    25   Atom       -0.022967      0.002621     -0.000736
    26   Atom        0.012060      0.002233     -0.004452
    27   Atom        0.004504     -0.000373     -0.000907
    28   Atom       -0.016820     -0.022823     -0.004592
    29   Atom       -0.023829      0.000165     -0.000397
    30   Atom       -0.001752      0.000286     -0.000184
    31   Atom       -0.000550     -0.000058      0.000018
    32   Atom       -0.002652      0.002241     -0.000823
    33   Atom       -0.003034     -0.001905      0.000588
    34   Atom        0.003427      0.000393      0.000027
    35   Atom        0.003611     -0.001312     -0.000950
    36   Atom        0.003434      0.001031      0.000694
    37   Atom        0.002149     -0.000137     -0.000079
    38   Atom       -0.003250      0.000097     -0.001614
    39   Atom       -0.003981     -0.000584      0.001202
    40   Atom       -0.004106      0.001602     -0.002634
    41   Atom       -0.002007      0.000492     -0.001593
    42   Atom        0.002005      0.000180     -0.000919
    43   Atom        0.003175     -0.000705     -0.001260
    44   Atom       -0.000473      0.002643     -0.001765
    45   Atom        0.000426     -0.000022      0.000822
    46   Atom        0.001115      0.000114     -0.000079
    47   Atom        0.003197      0.000243      0.000428
    48   Atom        0.003987      0.001211      0.001030
    49   Atom        0.002886     -0.000795     -0.000585
    50   Atom        0.001812      0.000896      0.000668
    51   Atom       -0.004107     -0.005537     -0.013470
    52   Atom       -0.003359      0.001717     -0.000376
    53   Atom        0.010325      0.019733      0.033260
    54   Atom        0.001819     -0.000720     -0.001552
    55   Atom       -0.003821      0.001728      0.000674
    56   Atom       -0.003526     -0.000194      0.000792
    57   Atom       -0.004226      0.000734     -0.001037
    58   Atom       -0.004094     -0.001662      0.002944
    59   Atom       -0.002207     -0.000267      0.001059
    60   Atom        0.002500      0.000360      0.000859
    61   Atom        0.002960     -0.000425     -0.000648
    62   Atom        0.001288      0.000183      0.000816
    63   Atom        0.002885      0.001109      0.002092
    64   Atom        0.003794     -0.019619     -0.003916
    65   Atom        0.006647     -0.010622     -0.009206
    66   Atom       -0.001352     -0.014961      0.000714
    67   Atom        0.000917     -0.006226     -0.000439
    68   Atom       -0.000957      0.142487      0.050022
    69   Atom       -0.002882     -0.001400      0.022683
 --------------------------------------------------------


 ---------------------------------------------------------------------------------
              Anisotropic Spin Dipole Couplings in Principal Axis System
 ---------------------------------------------------------------------------------

       Atom             a.u.   MegaHertz   Gauss  10(-4) cm-1        Axes

              Baa    -2.3412   -40.534   -14.463   -13.521  0.6797  0.7328 -0.0311
     1 Fe(57) Bbb    -2.1530   -37.274   -13.300   -12.433  0.7334 -0.6786  0.0397
              Bcc     4.4942    77.808    27.764    25.954 -0.0080  0.0498  0.9987
 
              Baa    -0.0787    -3.037    -1.084    -1.013  0.3144  0.9480  0.0501
     2 N(14)  Bbb    -0.0728    -2.807    -1.002    -0.936  0.9357 -0.3184  0.1519
              Bcc     0.1515     5.844     2.085     1.949 -0.1599  0.0009  0.9871
 
              Baa    -0.0729    -2.811    -1.003    -0.938  0.6958  0.6932  0.1877
     3 N(14)  Bbb    -0.0636    -2.454    -0.876    -0.819  0.7177 -0.6814 -0.1438
              Bcc     0.1365     5.265     1.879     1.756 -0.0283 -0.2348  0.9716
 
              Baa    -0.1004    -3.871    -1.381    -1.291  0.0489  0.9987 -0.0167
     4 N(14)  Bbb    -0.0824    -3.179    -1.134    -1.060  0.9757 -0.0441  0.2148
              Bcc     0.1828     7.050     2.516     2.352 -0.2138  0.0268  0.9765
 
              Baa    -0.0805    -3.106    -1.108    -1.036  0.9762  0.2165 -0.0143
     5 N(14)  Bbb    -0.0619    -2.389    -0.852    -0.797 -0.2139  0.9712  0.1046
              Bcc     0.1425     5.495     1.961     1.833  0.0365 -0.0990  0.9944
 
              Baa    -0.0911   -12.222    -4.361    -4.077 -0.3944  0.9187 -0.0227
     6 C(13)  Bbb    -0.0562    -7.535    -2.689    -2.514  0.9181  0.3928 -0.0521
              Bcc     0.1472    19.757     7.050     6.590  0.0390  0.0414  0.9984
 
              Baa    -0.0373    -5.002    -1.785    -1.668 -0.1046  0.1007  0.9894
     7 C(13)  Bbb     0.0122     1.639     0.585     0.547 -0.3921  0.9101 -0.1341
              Bcc     0.0251     3.363     1.200     1.122  0.9140  0.4020  0.0557
 
              Baa    -0.0704    -9.448    -3.371    -3.152  0.1884  0.9801 -0.0618
     8 C(13)  Bbb    -0.0558    -7.486    -2.671    -2.497  0.9816 -0.1899 -0.0185
              Bcc     0.1262    16.934     6.043     5.649  0.0298  0.0572  0.9979
 
              Baa    -0.0579    -7.763    -2.770    -2.590 -0.0548  0.1003  0.9934
     9 C(13)  Bbb     0.0161     2.159     0.770     0.720  0.3683  0.9268 -0.0733
              Bcc     0.0418     5.604     2.000     1.869  0.9281 -0.3619  0.0877
 
              Baa    -0.0479    -6.431    -2.295    -2.145 -0.0323  0.1075  0.9937
    10 C(13)  Bbb     0.0112     1.505     0.537     0.502  0.8680  0.4958 -0.0254
              Bcc     0.0367     4.926     1.758     1.643 -0.4954  0.8617 -0.1094
 
              Baa    -0.0751   -10.078    -3.596    -3.362  0.9235  0.3713  0.0959
    11 C(13)  Bbb    -0.0614    -8.243    -2.941    -2.750 -0.3698  0.9285 -0.0343
              Bcc     0.1365    18.321     6.537     6.111 -0.1018 -0.0037  0.9948
 
              Baa    -0.0168    -2.258    -0.806    -0.753 -0.0281  0.1643  0.9860
    12 C(13)  Bbb     0.0023     0.305     0.109     0.102  0.9495 -0.3039  0.0777
              Bcc     0.0146     1.954     0.697     0.652  0.3124  0.9384 -0.1475
 
              Baa    -0.0752   -10.086    -3.599    -3.364  0.9775 -0.2043  0.0532
    13 C(13)  Bbb    -0.0390    -5.233    -1.867    -1.746  0.2005  0.9773  0.0683
              Bcc     0.1142    15.319     5.466     5.110 -0.0660 -0.0561  0.9962
 
              Baa    -0.0734    -9.852    -3.515    -3.286 -0.4258  0.9033 -0.0529
    14 C(13)  Bbb    -0.0377    -5.054    -1.803    -1.686  0.8791  0.4269  0.2120
              Bcc     0.1111    14.906     5.319     4.972 -0.2141 -0.0438  0.9758
 
              Baa    -0.0220    -2.949    -1.052    -0.984 -0.0098 -0.0104  0.9999
    15 C(13)  Bbb     0.0038     0.507     0.181     0.169 -0.3938  0.9192  0.0058
              Bcc     0.0182     2.442     0.871     0.814  0.9191  0.3937  0.0131
 
              Baa    -0.0633    -8.489    -3.029    -2.832  0.1652  0.9841  0.0650
    16 C(13)  Bbb    -0.0488    -6.551    -2.338    -2.185  0.9629 -0.1752  0.2051
              Bcc     0.1121    15.040     5.367     5.017 -0.2132 -0.0287  0.9766
 
              Baa    -0.0535    -7.184    -2.563    -2.396 -0.0303 -0.0542  0.9981
    17 C(13)  Bbb     0.0130     1.744     0.622     0.582  0.4037  0.9128  0.0618
              Bcc     0.0405     5.440     1.941     1.815  0.9144 -0.4048  0.0058
 
              Baa    -0.0401    -5.387    -1.922    -1.797 -0.0032 -0.1432  0.9897
    18 C(13)  Bbb     0.0070     0.937     0.334     0.313  0.8644  0.4972  0.0747
              Bcc     0.0332     4.450     1.588     1.484 -0.5028  0.8557  0.1222
 
              Baa    -0.0734    -9.844    -3.512    -3.283  0.9257  0.3712  0.0730
    19 C(13)  Bbb    -0.0585    -7.855    -2.803    -2.620 -0.3782  0.9125  0.1557
              Bcc     0.1319    17.699     6.315     5.904 -0.0088 -0.1717  0.9851
 
              Baa    -0.0183    -2.450    -0.874    -0.817  0.2183 -0.2776  0.9356
    20 C(13)  Bbb     0.0031     0.412     0.147     0.138  0.9350 -0.2150 -0.2820
              Bcc     0.0152     2.038     0.727     0.680  0.2795  0.9363  0.2126
 
              Baa    -0.0946   -12.694    -4.530    -4.234  0.9718 -0.2324 -0.0388
    21 C(13)  Bbb    -0.0593    -7.963    -2.842    -2.656  0.2356  0.9625  0.1347
              Bcc     0.1539    20.657     7.371     6.891  0.0060 -0.1401  0.9901
 
              Baa    -0.0709    -9.517    -3.396    -3.175 -0.0006 -0.0150  0.9999
    22 C(13)  Bbb     0.0250     3.359     1.199     1.121  0.7621 -0.6474 -0.0093
              Bcc     0.0459     6.158     2.197     2.054  0.6474  0.7620  0.0118
 
              Baa    -0.0072    -3.833    -1.368    -1.279 -0.0045 -0.0357  0.9994
    23 H(1)   Bbb    -0.0004    -0.238    -0.085    -0.079  0.7602 -0.6493 -0.0197
              Bcc     0.0076     4.071     1.453     1.358  0.6496  0.7597  0.0300
 
              Baa    -0.1462   -19.621    -7.001    -6.545  0.6429  0.7605 -0.0909
    24 C(13)  Bbb    -0.1126   -15.112    -5.392    -5.041  0.7655 -0.6417  0.0458
              Bcc     0.2588    34.732    12.393    11.585  0.0235  0.0991  0.9948
 
              Baa    -0.0205   -10.937    -3.903    -3.648  0.6402  0.7644 -0.0764
    25 H(1)   Bbb    -0.0060    -3.204    -1.143    -1.069 -0.0100  0.1077  0.9941
              Bcc     0.0265    14.142     5.046     4.717  0.7682 -0.6356  0.0766
 
              Baa    -0.0603    -8.090    -2.887    -2.699 -0.0325  0.0522  0.9981
    26 C(13)  Bbb     0.0180     2.412     0.861     0.804  0.7734 -0.6312  0.0582
              Bcc     0.0423     5.679     2.026     1.894  0.6330  0.7739 -0.0199
 
              Baa    -0.0070    -3.713    -1.325    -1.239  0.0019  0.0786  0.9969
    27 H(1)   Bbb    -0.0012    -0.617    -0.220    -0.206  0.7823 -0.6211  0.0475
              Bcc     0.0081     4.331     1.545     1.445  0.6230  0.7797 -0.0626
 
              Baa    -0.1481   -19.878    -7.093    -6.631  0.6480  0.7603  0.0448
    28 C(13)  Bbb    -0.1136   -15.243    -5.439    -5.084  0.7594 -0.6495  0.0384
              Bcc     0.2617    35.121    12.532    11.715 -0.0582 -0.0091  0.9983
 
              Baa    -0.0210   -11.197    -3.995    -3.735  0.6510  0.7589  0.0131
    29 H(1)   Bbb    -0.0063    -3.336    -1.190    -1.113 -0.0173 -0.0025  0.9998
              Bcc     0.0272    14.533     5.186     4.848  0.7589 -0.6512  0.0115
 
              Baa    -0.0036    -0.489    -0.175    -0.163  0.0308  0.3332  0.9424
    30 C(13)  Bbb    -0.0032    -0.434    -0.155    -0.145  0.1755  0.9263 -0.3333
              Bcc     0.0069     0.923     0.329     0.308  0.9840 -0.1757  0.0299
 
              Baa    -0.0031    -1.656    -0.591    -0.552  0.0602  0.9963 -0.0620
    31 H(1)   Bbb    -0.0029    -1.530    -0.546    -0.510  0.0104  0.0614  0.9981
              Bcc     0.0060     3.186     1.137     1.063  0.9981 -0.0607 -0.0066
 
              Baa    -0.0041    -2.177    -0.777    -0.726 -0.1810  0.1592  0.9705
    32 H(1)   Bbb    -0.0029    -1.543    -0.551    -0.515  0.3193  0.9429 -0.0951
              Bcc     0.0070     3.720     1.327     1.241  0.9302 -0.2927  0.2215
 
              Baa    -0.0041    -2.214    -0.790    -0.738  0.1904  0.0003  0.9817
    33 H(1)   Bbb    -0.0030    -1.580    -0.564    -0.527  0.3183  0.9460 -0.0620
              Bcc     0.0071     3.794     1.354     1.265  0.9287 -0.3243 -0.1800
 
              Baa    -0.0031    -0.420    -0.150    -0.140 -0.3354  0.6575  0.6747
    34 C(13)  Bbb    -0.0029    -0.382    -0.136    -0.128  0.2565 -0.6254  0.7370
              Bcc     0.0060     0.803     0.286     0.268  0.9065  0.4202  0.0411
 
              Baa    -0.0032    -1.697    -0.606    -0.566 -0.0105  0.3583  0.9336
    35 H(1)   Bbb    -0.0027    -1.425    -0.508    -0.475 -0.5326  0.7882 -0.3084
              Bcc     0.0059     3.122     1.114     1.041  0.8463  0.5005 -0.1826
 
              Baa    -0.0030    -1.621    -0.579    -0.541 -0.0433 -0.2121  0.9763
    36 H(1)   Bbb    -0.0025    -1.346    -0.480    -0.449 -0.5167  0.8411  0.1599
              Bcc     0.0056     2.967     1.059     0.990  0.8551  0.4975  0.1460
 
              Baa    -0.0026    -1.362    -0.486    -0.454  0.0036  0.0533  0.9986
    37 H(1)   Bbb    -0.0020    -1.072    -0.382    -0.357 -0.3497  0.9356 -0.0487
              Bcc     0.0046     2.434     0.869     0.812  0.9369  0.3490 -0.0220
 
              Baa    -0.0039    -0.528    -0.188    -0.176  0.5151  0.3154  0.7970
    38 C(13)  Bbb    -0.0030    -0.397    -0.142    -0.132  0.7878  0.1922 -0.5852
              Bcc     0.0069     0.925     0.330     0.308 -0.3378  0.9293 -0.1495
 
              Baa    -0.0039    -2.057    -0.734    -0.686  0.0279 -0.1258  0.9917
    39 H(1)   Bbb    -0.0031    -1.641    -0.586    -0.547  0.8925  0.4500  0.0320
              Bcc     0.0069     3.698     1.320     1.234 -0.4503  0.8841  0.1249
 
              Baa    -0.0045    -2.374    -0.847    -0.792 -0.1636  0.2182  0.9621
    40 H(1)   Bbb    -0.0029    -1.554    -0.555    -0.518  0.8572  0.5141  0.0292
              Bcc     0.0074     3.928     1.402     1.310 -0.4882  0.8295 -0.2712
 
              Baa    -0.0032    -1.723    -0.615    -0.575 -0.5704  0.0188  0.8211
    41 H(1)   Bbb    -0.0030    -1.595    -0.569    -0.532  0.7890  0.2902  0.5415
              Bcc     0.0062     3.318     1.184     1.107 -0.2281  0.9568 -0.1804
 
              Baa    -0.0036    -0.487    -0.174    -0.162 -0.3035  0.1629  0.9388
    42 C(13)  Bbb    -0.0024    -0.317    -0.113    -0.106  0.9219 -0.1987  0.3325
              Bcc     0.0060     0.804     0.287     0.268  0.2407  0.9664 -0.0898
 
              Baa    -0.0032    -1.691    -0.603    -0.564  0.2461  0.0603  0.9674
    43 H(1)   Bbb    -0.0026    -1.413    -0.504    -0.471  0.8729 -0.4477 -0.1942
              Bcc     0.0058     3.104     1.108     1.036  0.4213  0.8922 -0.1628
 
              Baa    -0.0042    -0.569    -0.203    -0.190 -0.6384  0.1448  0.7560
    44 C(13)  Bbb     0.0003     0.046     0.017     0.016  0.7117  0.4850  0.5081
              Bcc     0.0039     0.523     0.186     0.174 -0.2931  0.8624 -0.4127
 
              Baa    -0.0021    -1.136    -0.405    -0.379  0.2985 -0.1512  0.9424
    45 H(1)   Bbb    -0.0018    -0.987    -0.352    -0.329  0.9517 -0.0271 -0.3058
              Bcc     0.0040     2.122     0.757     0.708  0.0718  0.9881  0.1358
 
              Baa    -0.0016    -0.879    -0.313    -0.293 -0.3906  0.1187  0.9129
    46 H(1)   Bbb    -0.0013    -0.691    -0.247    -0.231  0.8803 -0.2419  0.4081
              Bcc     0.0029     1.570     0.560     0.524  0.2692  0.9630 -0.0100
 
              Baa    -0.0033    -0.440    -0.157    -0.147  0.1563 -0.4435  0.8825
    47 C(13)  Bbb    -0.0026    -0.346    -0.124    -0.115 -0.3807  0.7974  0.4682
              Bcc     0.0059     0.787     0.281     0.262  0.9114  0.4091  0.0442
 
              Baa    -0.0034    -1.840    -0.657    -0.614 -0.0050 -0.2830  0.9591
    48 H(1)   Bbb    -0.0027    -1.433    -0.511    -0.478 -0.5800  0.7821  0.2278
              Bcc     0.0061     3.273     1.168     1.092  0.8146  0.5551  0.1681
 
              Baa    -0.0029    -1.546    -0.552    -0.516  0.0191  0.2267  0.9738
    49 H(1)   Bbb    -0.0021    -1.126    -0.402    -0.375 -0.4788  0.8571 -0.1901
              Bcc     0.0050     2.671     0.953     0.891  0.8777  0.4626 -0.1249
 
              Baa    -0.0030    -1.580    -0.564    -0.527 -0.0543 -0.2750  0.9599
    50 H(1)   Bbb    -0.0015    -0.811    -0.289    -0.270 -0.3546  0.9040  0.2389
              Bcc     0.0045     2.391     0.853     0.797  0.9334  0.3274  0.1466
 
              Baa    -0.0274    -3.670    -1.310    -1.224  0.1433  0.4582  0.8772
    51 C(13)  Bbb     0.0066     0.885     0.316     0.295  0.0763  0.8786 -0.4714
              Bcc     0.0208     2.786     0.994     0.929  0.9867 -0.1345 -0.0909
 
              Baa    -0.0046    -2.440    -0.871    -0.814 -0.1901 -0.1831  0.9645
    52 H(1)   Bbb    -0.0040    -2.148    -0.766    -0.716  0.2436  0.9429  0.2271
              Bcc     0.0086     4.588     1.637     1.530  0.9510 -0.2782  0.1346
 
              Baa    -0.0297    -3.988    -1.423    -1.330  0.1815  0.8176 -0.5464
    53 C(13)  Bbb    -0.0237    -3.174    -1.133    -1.059  0.9358 -0.3143 -0.1594
              Bcc     0.0534     7.162     2.556     2.389  0.3021  0.4824  0.8222
 
              Baa    -0.0025    -1.357    -0.484    -0.453 -0.0285  0.4138  0.9099
    54 H(1)   Bbb    -0.0007    -0.386    -0.138    -0.129  0.7749 -0.5658  0.2816
              Bcc     0.0033     1.743     0.622     0.581  0.6314  0.7132 -0.3045
 
              Baa    -0.0044    -2.349    -0.838    -0.784  0.4432  0.6508 -0.6165
    55 H(1)   Bbb    -0.0015    -0.800    -0.285    -0.267  0.1898  0.6040  0.7740
              Bcc     0.0059     3.149     1.124     1.050  0.8761 -0.4601  0.1442
 
              Baa    -0.0037    -0.500    -0.178    -0.167 -0.2912 -0.1877  0.9381
    56 C(13)  Bbb    -0.0034    -0.456    -0.163    -0.152  0.8871  0.3142  0.3382
              Bcc     0.0071     0.956     0.341     0.319 -0.3582  0.9306  0.0750
 
              Baa    -0.0042    -2.220    -0.792    -0.740 -0.1650  0.0367  0.9856
    57 H(1)   Bbb    -0.0030    -1.602    -0.572    -0.534  0.8627  0.4897  0.1262
              Bcc     0.0072     3.821     1.364     1.275 -0.4780  0.8711 -0.1124
 
              Baa    -0.0044    -2.366    -0.844    -0.789  0.1224 -0.2734  0.9541
    58 H(1)   Bbb    -0.0030    -1.608    -0.574    -0.536  0.8688  0.4943  0.0302
              Bcc     0.0074     3.974     1.418     1.325 -0.4798  0.8252  0.2981
 
              Baa    -0.0032    -1.705    -0.608    -0.569  0.9695  0.2449 -0.0004
    59 H(1)   Bbb    -0.0030    -1.619    -0.578    -0.540  0.0295 -0.1150  0.9929
              Bcc     0.0062     3.324     1.186     1.109 -0.2432  0.9627  0.1187
 
              Baa    -0.0033    -0.445    -0.159    -0.148  0.9469 -0.2568 -0.1935
    60 C(13)  Bbb    -0.0028    -0.372    -0.133    -0.124  0.1577 -0.1535  0.9755
              Bcc     0.0061     0.817     0.291     0.272  0.2802  0.9542  0.1049
 
              Baa    -0.0032    -1.731    -0.618    -0.577  0.2912 -0.0306  0.9562
    61 H(1)   Bbb    -0.0027    -1.428    -0.509    -0.476  0.8814 -0.3799 -0.2806
              Bcc     0.0059     3.158     1.127     1.054  0.3719  0.9245 -0.0836
 
              Baa    -0.0027    -1.455    -0.519    -0.485 -0.0732 -0.0977  0.9925
    62 H(1)   Bbb    -0.0022    -1.175    -0.419    -0.392  0.9799 -0.1922  0.0534
              Bcc     0.0049     2.630     0.938     0.877  0.1856  0.9765  0.1099
 
              Baa    -0.0034    -1.793    -0.640    -0.598 -0.3863 -0.1064  0.9162
    63 H(1)   Bbb    -0.0027    -1.420    -0.507    -0.474  0.8414 -0.4477  0.3028
              Bcc     0.0060     3.213     1.147     1.072  0.3779  0.8879  0.2624
 
              Baa    -0.0172    -2.302    -0.821    -0.768 -0.2061  0.9785 -0.0066
    64 C(13)  Bbb    -0.0124    -1.664    -0.594    -0.555  0.7885  0.1701  0.5911
              Bcc     0.0296     3.966     1.415     1.323 -0.5795 -0.1166  0.8066
 
              Baa    -0.0106    -5.653    -2.017    -1.885  0.7211 -0.6891  0.0716
    65 H(1)   Bbb    -0.0090    -4.785    -1.707    -1.596  0.4977  0.5872  0.6384
              Bcc     0.0196    10.438     3.724     3.482 -0.4819 -0.4247  0.7664
 
              Baa    -0.0119    -6.347    -2.265    -2.117  0.1423  0.9866  0.0803
    66 H(1)   Bbb    -0.0090    -4.807    -1.715    -1.604  0.6920 -0.1572  0.7046
              Bcc     0.0209    11.155     3.980     3.721  0.7077 -0.0447 -0.7051
 
              Baa    -0.0074    -3.946    -1.408    -1.316 -0.2836  0.9557 -0.0786
    67 H(1)   Bbb    -0.0050    -2.652    -0.946    -0.885  0.8777  0.2917  0.3802
              Bcc     0.0124     6.599     2.355     2.201 -0.3863 -0.0388  0.9216
 
              Baa    -0.2981   -12.222    -4.361    -4.077  0.5086  0.8502 -0.1359
    68 S(33)  Bbb    -0.2771   -11.360    -4.054    -3.789  0.8444 -0.5234 -0.1141
              Bcc     0.5752    23.582     8.415     7.866  0.1681  0.0567  0.9841
 
              Baa    -0.0226   -12.068    -4.306    -4.025  0.9838  0.1697 -0.0574
    69 H(1)   Bbb    -0.0131    -7.014    -2.503    -2.340 -0.1727  0.8129 -0.5562
              Bcc     0.0358    19.082     6.809     6.365 -0.0477  0.5571  0.8290
 

 ---------------------------------------------------------------------------------

 Unable to Open any file for archive entry.
 1\1\GINC-BGN1024\SP\UAPFD\Gen\C31H32Fe1N4S1(5)\BECSLEIP\04-Oct-2024\0\
 \# apfd/gen scf=maxcycle=999 geom=check\\5l1s_II_Q\\0,5\Fe,0,25.830660
 3965,27.999699738,19.1282029513\N,0,25.9763188071,26.3664153597,20.316
 9458649\N,0,24.1412511913,28.4724226026,20.0834643521\N,0,25.431093129
 8,29.3547247087,17.7196022218\N,0,27.2803223454,27.2421489468,17.97939
 34031\C,0,26.9716834414,25.4355047256,20.2996578769\C,0,26.8917463911,
 24.5677242913,21.4513529075\C,0,25.8111493418,24.981482083,22.16619537
 96\C,0,25.2565040569,26.1039184549,21.4456111466\C,0,23.6110889429,27.
 8970153245,21.2018321882\C,0,22.4793336318,28.6435565786,21.6840651562
 \C,0,22.3243343501,29.7009753384,20.8285091993\C,0,23.3777629924,29.57
 6505306,19.8425043748\C,0,24.5471083325,30.3856756191,17.842151665\C,0
 ,24.7704903974,31.3839977488,16.8288374328\C,0,25.8189800311,30.933106
 9959,16.0726655547\C,0,26.2151919788,29.6668425474,16.6535517955\C,0,2
 7.6896401344,27.7165775126,16.7695387995\C,0,28.6899120747,26.85198655
 75,16.1850323548\C,0,28.8805818172,25.8384137158,17.0700737053\C,0,27.
 9915176809,26.0975363638,18.1802410182\C,0,27.9131275751,25.2945210429
 ,19.2995651608\H,0,28.6009435516,24.4666079609,19.3725327814\C,0,24.12
 59065146,26.7863026078,21.8439154722\H,0,23.6297746363,26.45067092,22.
 7410078465\C,0,23.5586190037,30.4682345433,18.8043761865\H,0,22.894523
 3169,31.317341443,18.7605839157\C,0,27.246482615,28.8823278931,16.1760
 882016\H,0,27.7284882766,29.188276545,15.2605989556\C,0,25.2533899813,
 24.4395854645,23.436582836\H,0,25.8538839917,23.6084750755,23.79754086
 1\H,0,24.233810691,24.0848636011,23.2851941638\H,0,25.2325112323,25.20
 95558244,24.208364915\C,0,27.835906345,23.4495624823,21.7275495573\H,0
 ,28.8588758777,23.8192792791,21.7977908127\H,0,27.7973769898,22.710463
 0347,20.9273526199\H,0,27.5848725599,22.9540053144,22.6618863071\C,0,2
 1.6236827204,28.2500122597,22.8363252732\H,0,22.0762552304,28.55574539
 93,23.781142373\H,0,21.4854011031,27.1702502511,22.861599609\H,0,20.64
 82280448,28.724716072,22.7537112555\C,0,21.3250197798,30.7476200787,20
 .8424310994\H,0,21.0017431806,31.0998173956,19.8702121883\C,0,20.79792
 38939,31.2896770873,21.9348263054\H,0,21.1149604234,31.0094847554,22.9
 243578599\H,0,20.0443783827,32.0569674375,21.8744791033\C,0,24.0254769
 836,32.6665164207,16.7117441872\H,0,23.8011559134,33.0737128993,17.696
 3373624\H,0,23.0825037183,32.5202092529,16.1824345157\H,0,24.619507691
 7,33.3924327089,16.1606147905\C,0,26.4638870529,31.5526542564,14.93491
 1836\H,0,27.529658708,31.3767424131,14.8483809388\C,0,25.8526125007,32
 .2914926352,14.0153470435\H,0,24.7895146606,32.4575034535,14.027898778
 8\H,0,26.3955542858,32.7347056885,13.1973042269\C,0,29.3309014618,27.0
 861365229,14.8614801405\H,0,29.8901885194,28.0220600435,14.8677171458\
 H,0,28.5768037295,27.1474930439,14.0771431709\H,0,30.0170167993,26.279
 3305398,14.6165335689\C,0,29.7863230492,24.659469149,16.978584496\H,0,
 30.5100021248,24.666851373,17.793900511\H,0,30.3313011513,24.664450521
 ,16.0383360149\H,0,29.2158866237,23.7329917058,17.0405026969\C,0,28.11
 27343616,28.4301862583,21.5942643345\H,0,28.8215313459,27.8375470385,2
 1.0253817752\H,0,27.4445423612,27.7766607198,22.1441215965\H,0,28.6366
 24008,29.1079960746,22.2611636515\S,0,27.1612892726,29.4090956202,20.3
 730470248\H,0,26.3062262936,29.9131673734,21.2754051842\\Version=ES64L
 -G16RevC.02\State=5-A\HF=-3080.1981436\S2=6.080889\S2-1=0.\S2A=6.00200
 3\RMSD=8.590e-09\Dipole=1.0234314,0.1305987,1.2657821\Quadrupole=-0.73
 01048,-1.5830894,2.3131941,-8.162498,-0.5159788,-2.078535\PG=C01 [X(C3
 1H32Fe1N4S1)]\\@
 The archive entry for this job was punched.


 THE UNDERLYING PHYSICAL LAWS NECESSARY FOR THE 
 MATHEMATICAL THEORY OF A LARGE PART OF PHYSICS AND THE
 WHOLE OF CHEMISTRY ARE THUS COMPLETELY KNOWN, AND THE
 DIFFICULTY IS ONLY THAT THE EXACT APPLICATION OF THESE
 LAWS LEADS TO EQUATIONS MUCH TOO COMPLICATED 
 TO BE SOLUBLE.

                                        -- P. A. M. DIRAC, 1929
 Job cpu time:       0 days  3 hours 13 minutes 23.5 seconds.
 Elapsed time:       0 days  0 hours  3 minutes 17.8 seconds.
 File lengths (MBytes):  RWF=    343 Int=      0 D2E=      0 Chk=    150 Scr=      1
 Normal termination of Gaussian 16 at Fri Oct  4 21:32:48 2024.
