 Entering Gaussian System, Link 0=g16
 Input=5mfa12.com
 Output=5mfa12.log
 Initial command:
 /sw/chem/gaussian/g16_C02/a100/g16/l1.exe "/local/becsleip_8046490/Gau-329073.inp" -scrdir="/local/becsleip_8046490/"
 Entering Link 1 = /sw/chem/gaussian/g16_C02/a100/g16/l1.exe PID=    329074.
  
 Copyright (c) 1988-2021, Gaussian, Inc.  All Rights Reserved.
  
 This is part of the Gaussian(R) 16 program.  It is based on
 the Gaussian(R) 09 system (copyright 2009, Gaussian, Inc.),
 the Gaussian(R) 03 system (copyright 2003, Gaussian, Inc.),
 the Gaussian(R) 98 system (copyright 1998, Gaussian, Inc.),
 the Gaussian(R) 94 system (copyright 1995, Gaussian, Inc.),
 the Gaussian 92(TM) system (copyright 1992, Gaussian, Inc.),
 the Gaussian 90(TM) system (copyright 1990, Gaussian, Inc.),
 the Gaussian 88(TM) system (copyright 1988, Gaussian, Inc.),
 the Gaussian 86(TM) system (copyright 1986, Carnegie Mellon
 University), and the Gaussian 82(TM) system (copyright 1983,
 Carnegie Mellon University). Gaussian is a federally registered
 trademark of Gaussian, Inc.
  
 This software contains proprietary and confidential information,
 including trade secrets, belonging to Gaussian, Inc.
  
 This software is provided under written license and may be
 used, copied, transmitted, or stored only in accord with that
 written license.
  
 The following legend is applicable only to US Government
 contracts under FAR:
  
                    RESTRICTED RIGHTS LEGEND
  
 Use, reproduction and disclosure by the US Government is
 subject to restrictions as set forth in subparagraphs (a)
 and (c) of the Commercial Computer Software - Restricted
 Rights clause in FAR 52.227-19.
  
 Gaussian, Inc.
 340 Quinnipiac St., Bldg. 40, Wallingford CT 06492
  
  
 ---------------------------------------------------------------
 Warning -- This program may not be used in any manner that
 competes with the business of Gaussian, Inc. or will provide
 assistance to any competitor of Gaussian, Inc.  The licensee
 of this program is prohibited from giving any competitor of
 Gaussian, Inc. access to this program.  By using this program,
 the user acknowledges that Gaussian, Inc. is engaged in the
 business of creating and licensing software in the field of
 computational chemistry and represents and warrants to the
 licensee that it is not a competitor of Gaussian, Inc. and that
 it will not use this program in any manner prohibited above.
 ---------------------------------------------------------------
  

 Cite this work as:
 Gaussian 16, Revision C.02,
 M. J. Frisch, G. W. Trucks, H. B. Schlegel, G. E. Scuseria, 
 M. A. Robb, J. R. Cheeseman, G. Scalmani, V. Barone, 
 G. A. Petersson, H. Nakatsuji, X. Li, M. Caricato, A. V. Marenich, 
 J. Bloino, B. G. Janesko, R. Gomperts, B. Mennucci, H. P. Hratchian, 
 J. V. Ortiz, A. F. Izmaylov, J. L. Sonnenberg, D. Williams-Young, 
 F. Ding, F. Lipparini, F. Egidi, J. Goings, B. Peng, A. Petrone, 
 T. Henderson, D. Ranasinghe, V. G. Zakrzewski, J. Gao, N. Rega, 
 G. Zheng, W. Liang, M. Hada, M. Ehara, K. Toyota, R. Fukuda, 
 J. Hasegawa, M. Ishida, T. Nakajima, Y. Honda, O. Kitao, H. Nakai, 
 T. Vreven, K. Throssell, J. A. Montgomery, Jr., J. E. Peralta, 
 F. Ogliaro, M. J. Bearpark, J. J. Heyd, E. N. Brothers, K. N. Kudin, 
 V. N. Staroverov, T. A. Keith, R. Kobayashi, J. Normand, 
 K. Raghavachari, A. P. Rendell, J. C. Burant, S. S. Iyengar, 
 J. Tomasi, M. Cossi, J. M. Millam, M. Klene, C. Adamo, R. Cammi, 
 J. W. Ochterski, R. L. Martin, K. Morokuma, O. Farkas, 
 J. B. Foresman, and D. J. Fox, Gaussian, Inc., Wallingford CT, 2019.
 
 ******************************************
 Gaussian 16:  ES64L-G16RevC.02  7-Dec-2021
                14-Oct-2024 
 ******************************************
 %mem=16GB
 %CPU=0-71
 SetSPE:  set environment variable "OMP_PROC_BIND" = "true"
 SetSPE:  set environment variable "OMP_PLACES" = "{0},{1},{2},{3},{4},{5},{6},{7},{8},{9},{10},{11},{12},{13},{14},{15},{16},{17},{18},{19},{20},{21},{22},{23},{24},{25},{26},{27},{28},{29},{30},{31},{32},{33},{34},{35},{36},{37},{38},{39},{40},{41},{42},{43},{44},{45},{46},{47},{48},{49},{50},{51},{52},{53},{54},{55},{56},{57},{58},{59},{60},{61},{62},{63},{64},{65},{66},{67},{68},{69},{70},{71}"
 Will use up to   72 processors via shared memory.
 %gpucpu=0,1,2,3=0,1,2,3
 Will use    4 GPUs:
 Thread  CPU   GPU
      0    0     0
      1    1     1
      2    2     2
      3    3     3
      4    4    -1
      5    5    -1
      6    6    -1
      7    7    -1
      8    8    -1
      9    9    -1
     10   10    -1
     11   11    -1
     12   12    -1
     13   13    -1
     14   14    -1
     15   15    -1
     16   16    -1
     17   17    -1
     18   18    -1
     19   19    -1
     20   20    -1
     21   21    -1
     22   22    -1
     23   23    -1
     24   24    -1
     25   25    -1
     26   26    -1
     27   27    -1
     28   28    -1
     29   29    -1
     30   30    -1
     31   31    -1
     32   32    -1
     33   33    -1
     34   34    -1
     35   35    -1
     36   36    -1
     37   37    -1
     38   38    -1
     39   39    -1
     40   40    -1
     41   41    -1
     42   42    -1
     43   43    -1
     44   44    -1
     45   45    -1
     46   46    -1
     47   47    -1
     48   48    -1
     49   49    -1
     50   50    -1
     51   51    -1
     52   52    -1
     53   53    -1
     54   54    -1
     55   55    -1
     56   56    -1
     57   57    -1
     58   58    -1
     59   59    -1
     60   60    -1
     61   61    -1
     62   62    -1
     63   63    -1
     64   64    -1
     65   65    -1
     66   66    -1
     67   67    -1
     68   68    -1
     69   69    -1
     70   70    -1
     71   71    -1
 SetGPE:  set environment variable "OMP_PROC_BIND" = "true"
 SetGPE:  set environment variable "OMP_PLACES" = "{0},{1},{2},{3},{4},{5},{6},{7},{8},{9},{10},{11},{12},{13},{14},{15},{16},{17},{18},{19},{20},{21},{22},{23},{24},{25},{26},{27},{28},{29},{30},{31},{32},{33},{34},{35},{36},{37},{38},{39},{40},{41},{42},{43},{44},{45},{46},{47},{48},{49},{50},{51},{52},{53},{54},{55},{56},{57},{58},{59},{60},{61},{62},{63},{64},{65},{66},{67},{68},{69},{70},{71}"
 %oldchk=5mfa_II_Sre.chk
 %chk=5mfa_III_Dn.chk
 Properties for Device   0
 Minimum vector length:                              32
 Maximum vector length:                            1024
 Number of SMPs:                                    108
 Maximum number of threads per SMP:                2048
 Number of ASync Engines:                             5
 Memory:                                           9207742464
 Properties for Device   1
 Minimum vector length:                              32
 Maximum vector length:                            1024
 Number of SMPs:                                    108
 Maximum number of threads per SMP:                2048
 Number of ASync Engines:                             5
 Memory:                                           9207742464
 Properties for Device   2
 Minimum vector length:                              32
 Maximum vector length:                            1024
 Number of SMPs:                                    108
 Maximum number of threads per SMP:                2048
 Number of ASync Engines:                             5
 Memory:                                           9207742464
 Properties for Device   3
 Minimum vector length:                              32
 Maximum vector length:                            1024
 Number of SMPs:                                    108
 Maximum number of threads per SMP:                2048
 Number of ASync Engines:                             5
 Memory:                                           9207742464
   8286968217 words of memory will be used on each GPU.
 Copying data from "5mfa_II_Sre.chk" to current chk file "5mfa_III_Dn.chk"
 IOpt=  2 FromEx=T IUOpen= 4 IOptOp= 5 NList=   0 IFRang= 0 IUIn= 4 IUOut= 2.
 --------------------------------------------------------------
 # apfd/def2TZVP guess=read scf=maxcycle=999 geom=check pop=nbo
 --------------------------------------------------------------
 1/29=2,38=1,172=1/1;
 2/12=2,40=1/2;
 3/5=44,7=101,11=2,14=-4,25=1,30=1,74=-44,116=-2/1,2,3;
 4/5=1/1;
 5/5=2,7=999,38=6/2;
 6/7=2,8=2,9=2,10=2,28=1,40=1/1,7;
 99/5=1,9=1/99;
 ----------
 5mfa_III_D
 ----------
 Structure from the checkpoint file:  "5mfa_III_Dn.chk"
 Charge =  1 Multiplicity = 2
 Z-Matrix found in chk file.
 Fe,0,-22.2955362383,-1.8188196547,4.720823076
 N,0,-20.445661327,-0.9294846256,4.7834974246
 N,0,-21.4408164715,-3.2354089253,3.5363739903
 N,0,-24.1044292995,-2.3579060111,3.9484798223
 N,0,-23.0993231441,-0.034153893,5.1621214502
 C,0,-20.1457752133,0.232989382,5.4268795302
 C,0,-18.7200116121,0.3736111409,5.6112097471
 C,0,-18.1529334926,-0.7154022245,5.0240318319
 C,0,-19.2431236619,-1.5005455427,4.4919155284
 C,0,-20.1169463236,-3.4357975959,3.2697108287
 C,0,-19.9226542154,-4.5693668852,2.4033377045
 C,0,-21.1675841979,-5.08176789,2.1574652307
 C,0,-22.0986773503,-4.2378040089,2.8825133216
 C,0,-24.3974146947,-3.5957493309,3.4559298801
 C,0,-25.806280339,-3.8710273639,3.5405273414
 C,0,-26.3840213208,-2.7486460944,4.0776553895
 C,0,-25.2983633804,-1.8256923499,4.3293564133
 C,0,-24.4140899767,0.3277765267,5.0941297307
 C,0,-24.5874445349,1.7270658241,5.4077352726
 C,0,-23.3473443755,2.2105153363,5.6844513604
 C,0,-22.4315377075,1.1024323344,5.5208567839
 C,0,-21.0744887413,1.2006352939,5.764154982
 H,0,-20.7047732333,2.1300268708,6.1703370442
 C,0,-19.0802907433,-2.6693796302,3.7751229968
 H,0,-18.0712144493,-2.9775771496,3.5474632508
 C,0,-23.4633059455,-4.4485056759,2.8899570922
 H,0,-23.8346445623,-5.3380952514,2.4038898442
 C,0,-25.456451899,-0.5320347166,4.7983178821
 H,0,-26.4621117396,-0.1562621885,4.912659219
 C,0,-16.7135708725,-1.0763312035,4.892317144
 H,0,-16.5315843812,-2.0763850018,5.2854969275
 H,0,-16.0870209036,-0.3732799243,5.4356081011
 H,0,-16.4111077156,-1.0645920603,3.8447823959
 C,0,-18.07059119,1.5262053136,6.2968838724
 H,0,-18.4862639661,1.6644238345,7.2950141394
 H,0,-18.2326092016,2.4458237728,5.7335673871
 H,0,-16.9988299116,1.3681040304,6.3885101766
 C,0,-18.6027065559,-5.0839932842,1.9470184845
 H,0,-17.8690391683,-5.0319306494,2.7502966288
 H,0,-18.2261178064,-4.4968712754,1.1080553499
 H,0,-18.69680759,-6.1198144684,1.6277592354
 C,0,-21.5407663699,-6.225954594,1.3539299529
 H,0,-22.3849647492,-6.8007636009,1.7173642813
 C,0,-20.9400526604,-6.6052707354,0.2312227983
 H,0,-21.2594410649,-7.4795080635,-0.3115261425
 H,0,-20.130059972,-6.044845484,-0.2022144286
 C,0,-26.4496910691,-5.1571232658,3.1554921799
 H,0,-25.8042298031,-5.9992494148,3.4009805106
 H,0,-26.6490715306,-5.1860570073,2.0829954756
 H,0,-27.3939478977,-5.2750758495,3.6829747778
 C,0,-27.7715304615,-2.4845204795,4.3885889155
 H,0,-27.9415246013,-1.8380444112,5.2418000924
 C,0,-28.8169053368,-2.9533873606,3.7151340464
 H,0,-28.7064549588,-3.5578030698,2.8321291055
 H,0,-29.8267554496,-2.7208759761,4.0107430719
 C,0,-25.8998197519,2.4318680981,5.4005779415
 H,0,-26.5544004414,2.0300949832,6.1757095607
 H,0,-26.3966022011,2.3041995195,4.4389013642
 H,0,-25.768739228,3.4961160223,5.58234481
 C,0,-22.9341508584,3.5939600298,6.0529795245
 H,0,-22.4935087897,3.6108593188,7.0502758773
 H,0,-23.788116795,4.2664866966,6.0464547474
 H,0,-22.1930966975,3.9721733215,5.3493294147
 C,0,-23.1233436987,-5.5235382312,8.8172614617
 H,0,-22.2514339601,-5.9342629561,9.32612802
 H,0,-23.5198693129,-6.2766052793,8.1436884044
 H,0,-23.8791062814,-5.2934873349,9.5679485007
 N,0,-22.2497980673,-3.184131134,8.6410802135
 H,0,-22.0733278063,-3.0686541796,9.6254576088
 C,0,-22.7601023662,-4.3077434056,8.046554241
 C,0,-22.0308990948,-2.2682111052,7.6686544255
 H,0,-21.6325588692,-1.2888506359,7.8420909942
 N,0,-22.3715254788,-2.7432682912,6.4912734812
 C,0,-22.8267971972,-4.0143925944,6.7147472446
 H,0,-23.1699077259,-4.6251183148,5.903713715
 Recover connectivity data from disk.
 Stoichiometry    C34H34FeN6(1+,2)
 Framework group  C1[X(C34H34FeN6)]
 Deg. of freedom   219
 Full point group                 C1      NOp   1
 Largest Abelian subgroup         C1      NOp   1
 Largest concise Abelian subgroup C1      NOp   1
                         Standard orientation:                         
 ---------------------------------------------------------------------
 Center     Atomic      Atomic             Coordinates (Angstroms)
 Number     Number       Type             X           Y           Z
 ---------------------------------------------------------------------
      1         26           0       -0.222213   -0.107387   -0.085974
      2          7           0       -2.223401    0.267244   -0.353891
      3          7           0        0.077569    1.864041   -0.490688
      4          7           0        1.720696   -0.442730   -0.607388
      5          7           0       -0.590305   -2.034084   -0.508110
      6          6           0       -3.220507   -0.657650   -0.279250
      7          6           0       -4.508875   -0.023358   -0.123250
      8          6           0       -4.276437    1.317416   -0.147810
      9          6           0       -2.850405    1.476726   -0.318590
     10          6           0       -0.848350    2.862171   -0.592210
     11          6           0       -0.223471    4.131224   -0.861208
     12          6           0        1.123777    3.894249   -0.901530
     13          6           0        1.288192    2.473372   -0.658668
     14          6           0        2.717819    0.483332   -0.513278
     15          6           0        4.002581   -0.146073   -0.368108
     16          6           0        3.772669   -1.498078   -0.403545
     17          6           0        2.340978   -1.653174   -0.545167
     18          6           0        0.318439   -3.016832   -0.777587
     19          6           0       -0.339090   -4.256328   -1.120683
     20          6           0       -1.674129   -4.012767   -1.040106
     21          6           0       -1.813320   -2.622741   -0.663586
     22          6           0       -3.036125   -2.018984   -0.438540
     23          1           0       -3.916174   -2.643404   -0.471047
     24          6           0       -2.214577    2.696432   -0.439086
     25          1           0       -2.833750    3.580025   -0.469709
     26          6           0        2.520034    1.851430   -0.609538
     27          1           0        3.398461    2.476466   -0.666280
     28          6           0        1.691365   -2.866410   -0.701784
     29          1           0        2.297727   -3.754003   -0.802459
     30          6           0       -5.243750    2.446458   -0.053191
     31          1           0       -4.959318    3.128870    0.747577
     32          1           0       -6.247702    2.080197    0.146670
     33          1           0       -5.265290    3.010249   -0.986265
     34          6           0       -5.798035   -0.759271    0.006621
     35          1           0       -5.750535   -1.477708    0.825000
     36          1           0       -6.018984   -1.306531   -0.910418
     37          1           0       -6.618360   -0.071961    0.198287
     38          6           0       -0.939858    5.429086   -0.994157
     39          1           0       -1.750217    5.499067   -0.269827
     40          1           0       -1.369246    5.535071   -1.991546
     41          1           0       -0.250566    6.253999   -0.826520
     42          6           0        2.207400    4.825599   -1.130537
     43          1           0        3.121405    4.627852   -0.582219
     44          6           0        2.161167    5.872492   -1.947290
     45          1           0        3.001450    6.537447   -2.059700
     46          1           0        1.298444    6.088166   -2.553282
     47          6           0        5.289425    0.575575   -0.169294
     48          1           0        5.142778    1.461764    0.446518
     49          1           0        5.707860    0.894384   -1.125387
     50          1           0        6.010783   -0.075077    0.320671
     51          6           0        4.707845   -2.595717   -0.292834
     52          1           0        4.320120   -3.490473    0.180325
     53          6           0        5.963428   -2.587743   -0.728304
     54          1           0        6.384869   -1.746001   -1.248951
     55          1           0        6.607586   -3.442551   -0.603378
     56          6           0        0.375166   -5.511253   -1.486919
     57          1           0        0.950929   -5.885517   -0.638892
     58          1           0        1.065277   -5.331249   -2.311091
     59          1           0       -0.328746   -6.283330   -1.788997
     60          6           0       -2.818557   -4.929530   -1.305231
     61          1           0       -3.412577   -5.074124   -0.402300
     62          1           0       -2.465017   -5.901517   -1.639662
     63          1           0       -3.469161   -4.516464   -2.075569
     64          6           0        1.479360    0.559260    5.191454
     65          1           0        0.862378    1.158012    5.861301
     66          1           0        2.349086    1.142180    4.905404
     67          1           0        1.814118   -0.324077    5.734854
     68          7           0       -0.421548   -0.585927    4.032988
     69          1           0       -0.846637   -0.947136    4.871023
     70          6           0        0.717622    0.172726    3.977189
     71          6           0       -0.862949   -0.758122    2.764938
     72          1           0       -1.740740   -1.313691    2.502776
     73          7           0       -0.071991   -0.153558    1.906556
     74          6           0        0.916436    0.430746    2.651252
     75          1           0        1.698548    0.992661    2.181104
 ---------------------------------------------------------------------
 Rotational constants (GHZ):           0.0919933           0.0893922           0.0601653
 Standard basis: def2TZVP (5D, 7F)
 There are  1696 symmetry adapted cartesian basis functions of A   symmetry.
 There are  1489 symmetry adapted basis functions of A   symmetry.
  1489 basis functions,  2414 primitive gaussians,  1696 cartesian basis functions
   153 alpha electrons      152 beta electrons
       nuclear repulsion energy      5530.3412530523 Hartrees.
 NAtoms=   75 NActive=   75 NUniq=   75 SFac= 1.00D+00 NAtFMM=   60 NAOKFM=T Big=T
 Integral buffers will be    131072 words long.
 Raffenetti 2 integral format.
 Two-electron integral symmetry is turned on.
 R6APFD:  NTU= -4 IXU= 1 FactS= 1.050
 Nuclear repulsion after empirical dispersion term =     5530.2108323049 Hartrees.
 One-electron integrals computed using PRISM.
   1 Symmetry operations used in ECPInt.
 ECPInt:  NShTT=  174936 NPrTT=  542361 LenC2=  136646 LenP2D=  280056.
 LDataN:  DoStor=T MaxTD1= 6 Len=  172
 Number of processors reduced to  24 by ecpmxn.
 NBasis=  1489 RedAO= T EigKep=  3.26D-06  NBF=  1489
 NBsUse=  1489 1.00D-06 EigRej= -1.00D+00 NBFU=  1489
 Initial guess from the checkpoint file:  "5mfa_III_Dn.chk"
 B after Tr=     0.000000    0.000000    0.000000
         Rot=    1.000000   -0.000000   -0.000000   -0.000000 Ang=   0.00 deg.
 Initial guess <Sx>= 0.0000 <Sy>= 0.0000 <Sz>= 0.5000 <S**2>= 1.1532 S= 0.6846
 Requested convergence on RMS density matrix=1.00D-08 within 999 cycles.
 Requested convergence on MAX density matrix=1.00D-06.
 Requested convergence on             energy=1.00D-06.
 No special actions if energy rises.
 Restarting incremental Fock formation.
 Restarting incremental Fock formation.
 SCF Done:  E(UAPFD) =  -2907.39864476     A.U. after   49 cycles
            NFock= 49  Conv=0.11D-08     -V/T= 2.0035
 <Sx>= 0.0000 <Sy>= 0.0000 <Sz>= 0.5000 <S**2>= 1.1692 S= 0.6913
 <L.S>=  0.00000000000    
 Annihilation of the first spin contaminant:
 S**2 before annihilation     1.1692,   after     0.7691

 **********************************************************************

            Population analysis using the SCF Density.

 **********************************************************************

 Orbital symmetries:
 Alpha Orbitals:
       Occupied  (A) (A) (A) (A) (A) (A) (A) (A) (A) (A) (A) (A)
                 (A) (A) (A) (A) (A) (A) (A) (A) (A) (A) (A) (A)
                 (A) (A) (A) (A) (A) (A) (A) (A) (A) (A) (A) (A)
                 (A) (A) (A) (A) (A) (A) (A) (A) (A) (A) (A) (A)
                 (A) (A) (A) (A) (A) (A) (A) (A) (A) (A) (A) (A)
                 (A) (A) (A) (A) (A) (A) (A) (A) (A) (A) (A) (A)
                 (A) (A) (A) (A) (A) (A) (A) (A) (A) (A) (A) (A)
                 (A) (A) (A) (A) (A) (A) (A) (A) (A) (A) (A) (A)
                 (A) (A) (A) (A) (A) (A) (A) (A) (A) (A) (A) (A)
                 (A) (A) (A) (A) (A) (A) (A) (A) (A) (A) (A) (A)
                 (A) (A) (A) (A) (A) (A) (A) (A) (A) (A) (A) (A)
                 (A) (A) (A) (A) (A) (A) (A) (A) (A) (A) (A) (A)
                 (A) (A) (A) (A) (A) (A) (A) (A) (A)
       Virtual   (A) (A) (A) (A) (A) (A) (A) (A) (A) (A) (A) (A)
                 (A) (A) (A) (A) (A) (A) (A) (A) (A) (A) (A) (A)
                 (A) (A) (A) (A) (A) (A) (A) (A) (A) (A) (A) (A)
                 (A) (A) (A) (A) (A) (A) (A) (A) (A) (A) (A) (A)
                 (A) (A) (A) (A) (A) (A) (A) (A) (A) (A) (A) (A)
                 (A) (A) (A) (A) (A) (A) (A) (A) (A) (A) (A) (A)
                 (A) (A) (A) (A) (A) (A) (A) (A) (A) (A) (A) (A)
                 (A) (A) (A) (A) (A) (A) (A) (A) (A) (A) (A) (A)
                 (A) (A) (A) (A) (A) (A) (A) (A) (A) (A) (A) (A)
                 (A) (A) (A) (A) (A) (A) (A) (A) (A) (A) (A) (A)
                 (A) (A) (A) (A) (A) (A) (A) (A) (A) (A) (A) (A)
                 (A) (A) (A) (A) (A) (A) (A) (A) (A) (A) (A) (A)
                 (A) (A) (A) (A) (A) (A) (A) (A) (A) (A) (A) (A)
                 (A) (A) (A) (A) (A) (A) (A) (A) (A) (A) (A) (A)
                 (A) (A) (A) (A) (A) (A) (A) (A) (A) (A) (A) (A)
                 (A) (A) (A) (A) (A) (A) (A) (A) (A) (A) (A) (A)
                 (A) (A) (A) (A) (A) (A) (A) (A) (A) (A) (A) (A)
                 (A) (A) (A) (A) (A) (A) (A) (A) (A) (A) (A) (A)
                 (A) (A) (A) (A) (A) (A) (A) (A) (A) (A) (A) (A)
                 (A) (A) (A) (A) (A) (A) (A) (A) (A) (A) (A) (A)
                 (A) (A) (A) (A) (A) (A) (A) (A) (A) (A) (A) (A)
                 (A) (A) (A) (A) (A) (A) (A) (A) (A) (A) (A) (A)
                 (A) (A) (A) (A) (A) (A) (A) (A) (A) (A) (A) (A)
                 (A) (A) (A) (A) (A) (A) (A) (A) (A) (A) (A) (A)
                 (A) (A) (A) (A) (A) (A) (A) (A) (A) (A) (A) (A)
                 (A) (A) (A) (A) (A) (A) (A) (A) (A) (A) (A) (A)
                 (A) (A) (A) (A) (A) (A) (A) (A) (A) (A) (A) (A)
                 (A) (A) (A) (A) (A) (A) (A) (A) (A) (A) (A) (A)
                 (A) (A) (A) (A) (A) (A) (A) (A) (A) (A) (A) (A)
                 (A) (A) (A) (A) (A) (A) (A) (A) (A) (A) (A) (A)
                 (A) (A) (A) (A) (A) (A) (A) (A) (A) (A) (A) (A)
                 (A) (A) (A) (A) (A) (A) (A) (A) (A) (A) (A) (A)
                 (A) (A) (A) (A) (A) (A) (A) (A) (A) (A) (A) (A)
                 (A) (A) (A) (A) (A) (A) (A) (A) (A) (A) (A) (A)
                 (A) (A) (A) (A) (A) (A) (A) (A) (A) (A) (A) (A)
                 (A) (A) (A) (A) (A) (A) (A) (A) (A) (A) (A) (A)
                 (A) (A) (A) (A) (A) (A) (A) (A) (A) (A) (A) (A)
                 (A) (A) (A) (A) (A) (A) (A) (A) (A) (A) (A) (A)
                 (A) (A) (A) (A) (A) (A) (A) (A) (A) (A) (A) (A)
                 (A) (A) (A) (A) (A) (A) (A) (A) (A) (A) (A) (A)
                 (A) (A) (A) (A) (A) (A) (A) (A) (A) (A) (A) (A)
                 (A) (A) (A) (A) (A) (A) (A) (A) (A) (A) (A) (A)
                 (A) (A) (A) (A) (A) (A) (A) (A) (A) (A) (A) (A)
                 (A) (A) (A) (A) (A) (A) (A) (A) (A) (A) (A) (A)
                 (A) (A) (A) (A) (A) (A) (A) (A) (A) (A) (A) (A)
                 (A) (A) (A) (A) (A) (A) (A) (A) (A) (A) (A) (A)
                 (A) (A) (A) (A) (A) (A) (A) (A) (A) (A) (A) (A)
                 (A) (A) (A) (A) (A) (A) (A) (A) (A) (A) (A) (A)
                 (A) (A) (A) (A) (A) (A) (A) (A) (A) (A) (A) (A)
                 (A) (A) (A) (A) (A) (A) (A) (A) (A) (A) (A) (A)
                 (A) (A) (A) (A) (A) (A) (A) (A) (A) (A) (A) (A)
                 (A) (A) (A) (A) (A) (A) (A) (A) (A) (A) (A) (A)
                 (A) (A) (A) (A) (A) (A) (A) (A) (A) (A) (A) (A)
                 (A) (A) (A) (A) (A) (A) (A) (A) (A) (A) (A) (A)
                 (A) (A) (A) (A) (A) (A) (A) (A) (A) (A) (A) (A)
                 (A) (A) (A) (A) (A) (A) (A) (A) (A) (A) (A) (A)
                 (A) (A) (A) (A) (A) (A) (A) (A) (A) (A) (A) (A)
                 (A) (A) (A) (A) (A) (A) (A) (A) (A) (A) (A) (A)
                 (A) (A) (A) (A) (A) (A) (A) (A) (A) (A) (A) (A)
                 (A) (A) (A) (A) (A) (A) (A) (A) (A) (A) (A) (A)
                 (A) (A) (A) (A) (A) (A) (A) (A) (A) (A) (A) (A)
                 (A) (A) (A) (A) (A) (A) (A) (A) (A) (A) (A) (A)
                 (A) (A) (A) (A) (A) (A) (A) (A) (A) (A) (A) (A)
                 (A) (A) (A) (A) (A) (A) (A) (A) (A) (A) (A) (A)
                 (A) (A) (A) (A) (A) (A) (A) (A) (A) (A) (A) (A)
                 (A) (A) (A) (A) (A) (A) (A) (A) (A) (A) (A) (A)
                 (A) (A) (A) (A) (A) (A) (A) (A) (A) (A) (A) (A)
                 (A) (A) (A) (A) (A) (A) (A) (A) (A) (A) (A) (A)
                 (A) (A) (A) (A) (A) (A) (A) (A) (A) (A) (A) (A)
                 (A) (A) (A) (A) (A) (A) (A) (A) (A) (A) (A) (A)
                 (A) (A) (A) (A) (A) (A) (A) (A) (A) (A) (A) (A)
                 (A) (A) (A) (A) (A) (A) (A) (A) (A) (A) (A) (A)
                 (A) (A) (A) (A) (A) (A) (A) (A) (A) (A) (A) (A)
                 (A) (A) (A) (A) (A) (A) (A) (A) (A) (A) (A) (A)
                 (A) (A) (A) (A) (A) (A) (A) (A) (A) (A) (A) (A)
                 (A) (A) (A) (A) (A) (A) (A) (A) (A) (A) (A) (A)
                 (A) (A) (A) (A) (A) (A) (A) (A) (A) (A) (A) (A)
                 (A) (A) (A) (A) (A) (A) (A) (A) (A) (A) (A) (A)
                 (A) (A) (A) (A) (A) (A) (A) (A) (A) (A) (A) (A)
                 (A) (A) (A) (A) (A) (A) (A) (A) (A) (A) (A) (A)
                 (A) (A) (A) (A) (A) (A) (A) (A) (A) (A) (A) (A)
                 (A) (A) (A) (A) (A) (A) (A) (A) (A) (A) (A) (A)
                 (A) (A) (A) (A) (A) (A) (A) (A) (A) (A) (A) (A)
                 (A) (A) (A) (A) (A) (A) (A) (A) (A) (A) (A) (A)
                 (A) (A) (A) (A) (A) (A) (A) (A) (A) (A) (A) (A)
                 (A) (A) (A) (A) (A) (A) (A) (A) (A) (A) (A) (A)
                 (A) (A) (A) (A) (A) (A) (A) (A) (A) (A) (A) (A)
                 (A) (A) (A) (A) (A) (A) (A) (A) (A) (A) (A) (A)
                 (A) (A) (A) (A) (A) (A) (A) (A) (A) (A) (A) (A)
                 (A) (A) (A) (A) (A) (A) (A) (A) (A) (A) (A) (A)
                 (A) (A) (A) (A) (A) (A) (A) (A) (A) (A) (A) (A)
                 (A) (A) (A) (A) (A) (A) (A) (A) (A) (A) (A) (A)
                 (A) (A) (A) (A) (A) (A) (A) (A) (A) (A) (A) (A)
                 (A) (A) (A) (A) (A) (A) (A) (A) (A) (A) (A) (A)
                 (A) (A) (A) (A) (A) (A) (A) (A) (A) (A) (A) (A)
                 (A) (A) (A) (A) (A) (A) (A) (A) (A) (A) (A) (A)
                 (A) (A) (A) (A) (A) (A) (A) (A) (A) (A) (A) (A)
                 (A) (A) (A) (A) (A) (A) (A) (A) (A) (A) (A) (A)
                 (A) (A) (A) (A) (A) (A) (A) (A) (A) (A) (A) (A)
                 (A) (A) (A) (A) (A) (A) (A) (A) (A) (A) (A) (A)
                 (A) (A) (A) (A) (A) (A) (A) (A) (A) (A) (A) (A)
                 (A) (A) (A) (A) (A) (A) (A) (A) (A) (A) (A) (A)
                 (A) (A) (A) (A) (A) (A) (A) (A) (A) (A) (A) (A)
                 (A) (A) (A) (A) (A) (A) (A) (A) (A) (A) (A) (A)
                 (A) (A) (A) (A) (A) (A) (A) (A) (A) (A) (A) (A)
                 (A) (A) (A) (A) (A) (A) (A) (A) (A) (A) (A) (A)
                 (A) (A) (A) (A) (A) (A) (A) (A) (A) (A) (A) (A)
                 (A) (A) (A) (A) (A) (A) (A) (A) (A) (A) (A) (A)
                 (A) (A) (A) (A) (A) (A) (A) (A) (A) (A) (A) (A)
                 (A) (A) (A) (A) (A) (A) (A) (A) (A) (A) (A) (A)
                 (A) (A) (A) (A) (A) (A) (A) (A) (A) (A) (A) (A)
                 (A) (A) (A) (A)
 Beta  Orbitals:
       Occupied  (A) (A) (A) (A) (A) (A) (A) (A) (A) (A) (A) (A)
                 (A) (A) (A) (A) (A) (A) (A) (A) (A) (A) (A) (A)
                 (A) (A) (A) (A) (A) (A) (A) (A) (A) (A) (A) (A)
                 (A) (A) (A) (A) (A) (A) (A) (A) (A) (A) (A) (A)
                 (A) (A) (A) (A) (A) (A) (A) (A) (A) (A) (A) (A)
                 (A) (A) (A) (A) (A) (A) (A) (A) (A) (A) (A) (A)
                 (A) (A) (A) (A) (A) (A) (A) (A) (A) (A) (A) (A)
                 (A) (A) (A) (A) (A) (A) (A) (A) (A) (A) (A) (A)
                 (A) (A) (A) (A) (A) (A) (A) (A) (A) (A) (A) (A)
                 (A) (A) (A) (A) (A) (A) (A) (A) (A) (A) (A) (A)
                 (A) (A) (A) (A) (A) (A) (A) (A) (A) (A) (A) (A)
                 (A) (A) (A) (A) (A) (A) (A) (A) (A) (A) (A) (A)
                 (A) (A) (A) (A) (A) (A) (A) (A)
       Virtual   (A) (A) (A) (A) (A) (A) (A) (A) (A) (A) (A) (A)
                 (A) (A) (A) (A) (A) (A) (A) (A) (A) (A) (A) (A)
                 (A) (A) (A) (A) (A) (A) (A) (A) (A) (A) (A) (A)
                 (A) (A) (A) (A) (A) (A) (A) (A) (A) (A) (A) (A)
                 (A) (A) (A) (A) (A) (A) (A) (A) (A) (A) (A) (A)
                 (A) (A) (A) (A) (A) (A) (A) (A) (A) (A) (A) (A)
                 (A) (A) (A) (A) (A) (A) (A) (A) (A) (A) (A) (A)
                 (A) (A) (A) (A) (A) (A) (A) (A) (A) (A) (A) (A)
                 (A) (A) (A) (A) (A) (A) (A) (A) (A) (A) (A) (A)
                 (A) (A) (A) (A) (A) (A) (A) (A) (A) (A) (A) (A)
                 (A) (A) (A) (A) (A) (A) (A) (A) (A) (A) (A) (A)
                 (A) (A) (A) (A) (A) (A) (A) (A) (A) (A) (A) (A)
                 (A) (A) (A) (A) (A) (A) (A) (A) (A) (A) (A) (A)
                 (A) (A) (A) (A) (A) (A) (A) (A) (A) (A) (A) (A)
                 (A) (A) (A) (A) (A) (A) (A) (A) (A) (A) (A) (A)
                 (A) (A) (A) (A) (A) (A) (A) (A) (A) (A) (A) (A)
                 (A) (A) (A) (A) (A) (A) (A) (A) (A) (A) (A) (A)
                 (A) (A) (A) (A) (A) (A) (A) (A) (A) (A) (A) (A)
                 (A) (A) (A) (A) (A) (A) (A) (A) (A) (A) (A) (A)
                 (A) (A) (A) (A) (A) (A) (A) (A) (A) (A) (A) (A)
                 (A) (A) (A) (A) (A) (A) (A) (A) (A) (A) (A) (A)
                 (A) (A) (A) (A) (A) (A) (A) (A) (A) (A) (A) (A)
                 (A) (A) (A) (A) (A) (A) (A) (A) (A) (A) (A) (A)
                 (A) (A) (A) (A) (A) (A) (A) (A) (A) (A) (A) (A)
                 (A) (A) (A) (A) (A) (A) (A) (A) (A) (A) (A) (A)
                 (A) (A) (A) (A) (A) (A) (A) (A) (A) (A) (A) (A)
                 (A) (A) (A) (A) (A) (A) (A) (A) (A) (A) (A) (A)
                 (A) (A) (A) (A) (A) (A) (A) (A) (A) (A) (A) (A)
                 (A) (A) (A) (A) (A) (A) (A) (A) (A) (A) (A) (A)
                 (A) (A) (A) (A) (A) (A) (A) (A) (A) (A) (A) (A)
                 (A) (A) (A) (A) (A) (A) (A) (A) (A) (A) (A) (A)
                 (A) (A) (A) (A) (A) (A) (A) (A) (A) (A) (A) (A)
                 (A) (A) (A) (A) (A) (A) (A) (A) (A) (A) (A) (A)
                 (A) (A) (A) (A) (A) (A) (A) (A) (A) (A) (A) (A)
                 (A) (A) (A) (A) (A) (A) (A) (A) (A) (A) (A) (A)
                 (A) (A) (A) (A) (A) (A) (A) (A) (A) (A) (A) (A)
                 (A) (A) (A) (A) (A) (A) (A) (A) (A) (A) (A) (A)
                 (A) (A) (A) (A) (A) (A) (A) (A) (A) (A) (A) (A)
                 (A) (A) (A) (A) (A) (A) (A) (A) (A) (A) (A) (A)
                 (A) (A) (A) (A) (A) (A) (A) (A) (A) (A) (A) (A)
                 (A) (A) (A) (A) (A) (A) (A) (A) (A) (A) (A) (A)
                 (A) (A) (A) (A) (A) (A) (A) (A) (A) (A) (A) (A)
                 (A) (A) (A) (A) (A) (A) (A) (A) (A) (A) (A) (A)
                 (A) (A) (A) (A) (A) (A) (A) (A) (A) (A) (A) (A)
                 (A) (A) (A) (A) (A) (A) (A) (A) (A) (A) (A) (A)
                 (A) (A) (A) (A) (A) (A) (A) (A) (A) (A) (A) (A)
                 (A) (A) (A) (A) (A) (A) (A) (A) (A) (A) (A) (A)
                 (A) (A) (A) (A) (A) (A) (A) (A) (A) (A) (A) (A)
                 (A) (A) (A) (A) (A) (A) (A) (A) (A) (A) (A) (A)
                 (A) (A) (A) (A) (A) (A) (A) (A) (A) (A) (A) (A)
                 (A) (A) (A) (A) (A) (A) (A) (A) (A) (A) (A) (A)
                 (A) (A) (A) (A) (A) (A) (A) (A) (A) (A) (A) (A)
                 (A) (A) (A) (A) (A) (A) (A) (A) (A) (A) (A) (A)
                 (A) (A) (A) (A) (A) (A) (A) (A) (A) (A) (A) (A)
                 (A) (A) (A) (A) (A) (A) (A) (A) (A) (A) (A) (A)
                 (A) (A) (A) (A) (A) (A) (A) (A) (A) (A) (A) (A)
                 (A) (A) (A) (A) (A) (A) (A) (A) (A) (A) (A) (A)
                 (A) (A) (A) (A) (A) (A) (A) (A) (A) (A) (A) (A)
                 (A) (A) (A) (A) (A) (A) (A) (A) (A) (A) (A) (A)
                 (A) (A) (A) (A) (A) (A) (A) (A) (A) (A) (A) (A)
                 (A) (A) (A) (A) (A) (A) (A) (A) (A) (A) (A) (A)
                 (A) (A) (A) (A) (A) (A) (A) (A) (A) (A) (A) (A)
                 (A) (A) (A) (A) (A) (A) (A) (A) (A) (A) (A) (A)
                 (A) (A) (A) (A) (A) (A) (A) (A) (A) (A) (A) (A)
                 (A) (A) (A) (A) (A) (A) (A) (A) (A) (A) (A) (A)
                 (A) (A) (A) (A) (A) (A) (A) (A) (A) (A) (A) (A)
                 (A) (A) (A) (A) (A) (A) (A) (A) (A) (A) (A) (A)
                 (A) (A) (A) (A) (A) (A) (A) (A) (A) (A) (A) (A)
                 (A) (A) (A) (A) (A) (A) (A) (A) (A) (A) (A) (A)
                 (A) (A) (A) (A) (A) (A) (A) (A) (A) (A) (A) (A)
                 (A) (A) (A) (A) (A) (A) (A) (A) (A) (A) (A) (A)
                 (A) (A) (A) (A) (A) (A) (A) (A) (A) (A) (A) (A)
                 (A) (A) (A) (A) (A) (A) (A) (A) (A) (A) (A) (A)
                 (A) (A) (A) (A) (A) (A) (A) (A) (A) (A) (A) (A)
                 (A) (A) (A) (A) (A) (A) (A) (A) (A) (A) (A) (A)
                 (A) (A) (A) (A) (A) (A) (A) (A) (A) (A) (A) (A)
                 (A) (A) (A) (A) (A) (A) (A) (A) (A) (A) (A) (A)
                 (A) (A) (A) (A) (A) (A) (A) (A) (A) (A) (A) (A)
                 (A) (A) (A) (A) (A) (A) (A) (A) (A) (A) (A) (A)
                 (A) (A) (A) (A) (A) (A) (A) (A) (A) (A) (A) (A)
                 (A) (A) (A) (A) (A) (A) (A) (A) (A) (A) (A) (A)
                 (A) (A) (A) (A) (A) (A) (A) (A) (A) (A) (A) (A)
                 (A) (A) (A) (A) (A) (A) (A) (A) (A) (A) (A) (A)
                 (A) (A) (A) (A) (A) (A) (A) (A) (A) (A) (A) (A)
                 (A) (A) (A) (A) (A) (A) (A) (A) (A) (A) (A) (A)
                 (A) (A) (A) (A) (A) (A) (A) (A) (A) (A) (A) (A)
                 (A) (A) (A) (A) (A) (A) (A) (A) (A) (A) (A) (A)
                 (A) (A) (A) (A) (A) (A) (A) (A) (A) (A) (A) (A)
                 (A) (A) (A) (A) (A) (A) (A) (A) (A) (A) (A) (A)
                 (A) (A) (A) (A) (A) (A) (A) (A) (A) (A) (A) (A)
                 (A) (A) (A) (A) (A) (A) (A) (A) (A) (A) (A) (A)
                 (A) (A) (A) (A) (A) (A) (A) (A) (A) (A) (A) (A)
                 (A) (A) (A) (A) (A) (A) (A) (A) (A) (A) (A) (A)
                 (A) (A) (A) (A) (A) (A) (A) (A) (A) (A) (A) (A)
                 (A) (A) (A) (A) (A) (A) (A) (A) (A) (A) (A) (A)
                 (A) (A) (A) (A) (A) (A) (A) (A) (A) (A) (A) (A)
                 (A) (A) (A) (A) (A) (A) (A) (A) (A) (A) (A) (A)
                 (A) (A) (A) (A) (A) (A) (A) (A) (A) (A) (A) (A)
                 (A) (A) (A) (A) (A) (A) (A) (A) (A) (A) (A) (A)
                 (A) (A) (A) (A) (A) (A) (A) (A) (A) (A) (A) (A)
                 (A) (A) (A) (A) (A) (A) (A) (A) (A) (A) (A) (A)
                 (A) (A) (A) (A) (A) (A) (A) (A) (A) (A) (A) (A)
                 (A) (A) (A) (A) (A) (A) (A) (A) (A) (A) (A) (A)
                 (A) (A) (A) (A) (A) (A) (A) (A) (A) (A) (A) (A)
                 (A) (A) (A) (A) (A) (A) (A) (A) (A) (A) (A) (A)
                 (A) (A) (A) (A) (A) (A) (A) (A) (A) (A) (A) (A)
                 (A) (A) (A) (A) (A) (A) (A) (A) (A) (A) (A) (A)
                 (A) (A) (A) (A) (A) (A) (A) (A) (A) (A) (A) (A)
                 (A) (A) (A) (A) (A) (A) (A) (A) (A) (A) (A) (A)
                 (A) (A) (A) (A) (A) (A) (A) (A) (A) (A) (A) (A)
                 (A) (A) (A) (A) (A) (A) (A) (A) (A) (A) (A) (A)
                 (A) (A) (A) (A) (A)
 The electronic state is 2-A.
 Alpha  occ. eigenvalues -- -256.38425 -30.25146 -26.09031 -26.08986 -26.08293
 Alpha  occ. eigenvalues --  -14.54064 -14.50509 -14.46898 -14.46791 -14.46628
 Alpha  occ. eigenvalues --  -14.46577 -10.38846 -10.35783 -10.33330 -10.33219
 Alpha  occ. eigenvalues --  -10.33133 -10.33094 -10.33086 -10.33004 -10.32984
 Alpha  occ. eigenvalues --  -10.32954 -10.32885 -10.30924 -10.30405 -10.30356
 Alpha  occ. eigenvalues --  -10.30272 -10.30205 -10.30165 -10.29957 -10.29951
 Alpha  occ. eigenvalues --  -10.29871 -10.29838 -10.29788 -10.29691 -10.29622
 Alpha  occ. eigenvalues --  -10.29035 -10.28850 -10.28228 -10.28117 -10.28021
 Alpha  occ. eigenvalues --  -10.28016 -10.27950 -10.27771 -10.27711 -10.27458
 Alpha  occ. eigenvalues --   -3.64445  -2.41492  -2.40647  -2.39650  -1.17900
 Alpha  occ. eigenvalues --   -1.09172  -1.08243  -1.08087  -1.07142  -1.03740
 Alpha  occ. eigenvalues --   -0.93921  -0.92499  -0.92212  -0.91774  -0.91656
 Alpha  occ. eigenvalues --   -0.91367  -0.91109  -0.90980  -0.87043  -0.85818
 Alpha  occ. eigenvalues --   -0.85625  -0.84589  -0.83224  -0.83163  -0.81498
 Alpha  occ. eigenvalues --   -0.80467  -0.78811  -0.78608  -0.78389  -0.76984
 Alpha  occ. eigenvalues --   -0.75506  -0.75426  -0.73538  -0.70959  -0.70288
 Alpha  occ. eigenvalues --   -0.69247  -0.68482  -0.67984  -0.65521  -0.64792
 Alpha  occ. eigenvalues --   -0.63901  -0.63535  -0.62250  -0.62138  -0.61742
 Alpha  occ. eigenvalues --   -0.59983  -0.59493  -0.59451  -0.58659  -0.58499
 Alpha  occ. eigenvalues --   -0.56273  -0.55693  -0.55368  -0.54965  -0.54883
 Alpha  occ. eigenvalues --   -0.54582  -0.54511  -0.54231  -0.53740  -0.53691
 Alpha  occ. eigenvalues --   -0.53531  -0.53148  -0.52874  -0.52574  -0.52399
 Alpha  occ. eigenvalues --   -0.52296  -0.50948  -0.50915  -0.50796  -0.50693
 Alpha  occ. eigenvalues --   -0.50535  -0.50456  -0.50140  -0.49985  -0.49790
 Alpha  occ. eigenvalues --   -0.49529  -0.49196  -0.48913  -0.48759  -0.48387
 Alpha  occ. eigenvalues --   -0.48053  -0.47939  -0.47601  -0.47236  -0.46661
 Alpha  occ. eigenvalues --   -0.46512  -0.46140  -0.45283  -0.44745  -0.44188
 Alpha  occ. eigenvalues --   -0.43712  -0.43509  -0.43041  -0.42850  -0.41469
 Alpha  occ. eigenvalues --   -0.40783  -0.40680  -0.39419  -0.39113  -0.37601
 Alpha  occ. eigenvalues --   -0.37463  -0.36087  -0.34907  -0.33759  -0.32900
 Alpha  occ. eigenvalues --   -0.32513  -0.30875  -0.29319
 Alpha virt. eigenvalues --   -0.22249  -0.18156  -0.18021  -0.17240  -0.12427
 Alpha virt. eigenvalues --   -0.11121  -0.09169  -0.08007  -0.07036  -0.07020
 Alpha virt. eigenvalues --   -0.05880  -0.05089  -0.04211  -0.03626  -0.03194
 Alpha virt. eigenvalues --   -0.03077  -0.02669  -0.02496  -0.02244  -0.01203
 Alpha virt. eigenvalues --   -0.00862  -0.00562  -0.00268  -0.00012   0.00346
 Alpha virt. eigenvalues --    0.00911   0.01036   0.01327   0.01669   0.02057
 Alpha virt. eigenvalues --    0.02425   0.02603   0.02870   0.02895   0.03049
 Alpha virt. eigenvalues --    0.03290   0.03428   0.03664   0.03873   0.04098
 Alpha virt. eigenvalues --    0.04291   0.04395   0.04602   0.04953   0.05260
 Alpha virt. eigenvalues --    0.05526   0.05625   0.05708   0.06090   0.06266
 Alpha virt. eigenvalues --    0.06862   0.07041   0.07233   0.07460   0.07537
 Alpha virt. eigenvalues --    0.07684   0.07961   0.08201   0.08548   0.08716
 Alpha virt. eigenvalues --    0.08767   0.09143   0.09193   0.09535   0.10063
 Alpha virt. eigenvalues --    0.10245   0.10588   0.10861   0.10947   0.11291
 Alpha virt. eigenvalues --    0.11409   0.11878   0.12004   0.12372   0.12723
 Alpha virt. eigenvalues --    0.12910   0.13113   0.13194   0.13483   0.13875
 Alpha virt. eigenvalues --    0.13959   0.14110   0.14599   0.15385   0.15618
 Alpha virt. eigenvalues --    0.15938   0.16375   0.16537   0.16634   0.16848
 Alpha virt. eigenvalues --    0.16962   0.17426   0.17502   0.17682   0.17803
 Alpha virt. eigenvalues --    0.18185   0.18511   0.18705   0.19187   0.19227
 Alpha virt. eigenvalues --    0.19394   0.19960   0.20261   0.20337   0.20751
 Alpha virt. eigenvalues --    0.20948   0.21328   0.21621   0.21759   0.22182
 Alpha virt. eigenvalues --    0.22304   0.22640   0.22923   0.23155   0.23405
 Alpha virt. eigenvalues --    0.23507   0.23767   0.24047   0.24252   0.24331
 Alpha virt. eigenvalues --    0.24711   0.25294   0.25427   0.25686   0.26103
 Alpha virt. eigenvalues --    0.26428   0.26623   0.26865   0.27272   0.27456
 Alpha virt. eigenvalues --    0.27971   0.28335   0.28468   0.28765   0.28840
 Alpha virt. eigenvalues --    0.29073   0.29460   0.29624   0.29755   0.29958
 Alpha virt. eigenvalues --    0.30174   0.30613   0.30922   0.31054   0.31347
 Alpha virt. eigenvalues --    0.31379   0.31806   0.31895   0.32076   0.32338
 Alpha virt. eigenvalues --    0.32460   0.32611   0.32858   0.33072   0.33182
 Alpha virt. eigenvalues --    0.33655   0.33912   0.34138   0.34274   0.34753
 Alpha virt. eigenvalues --    0.35137   0.35336   0.35597   0.35884   0.36139
 Alpha virt. eigenvalues --    0.36266   0.36602   0.36918   0.37038   0.37300
 Alpha virt. eigenvalues --    0.37491   0.37596   0.37860   0.38017   0.38146
 Alpha virt. eigenvalues --    0.38466   0.38710   0.38781   0.38931   0.39116
 Alpha virt. eigenvalues --    0.39368   0.39620   0.39952   0.40389   0.40511
 Alpha virt. eigenvalues --    0.40836   0.40919   0.41057   0.41281   0.41354
 Alpha virt. eigenvalues --    0.41785   0.41843   0.42153   0.42394   0.42634
 Alpha virt. eigenvalues --    0.42795   0.42955   0.43031   0.43223   0.43317
 Alpha virt. eigenvalues --    0.43698   0.43839   0.44058   0.44531   0.44719
 Alpha virt. eigenvalues --    0.45056   0.45175   0.45279   0.45594   0.46249
 Alpha virt. eigenvalues --    0.46335   0.46601   0.47021   0.47111   0.47328
 Alpha virt. eigenvalues --    0.47709   0.47750   0.47935   0.48796   0.48863
 Alpha virt. eigenvalues --    0.49306   0.49523   0.49874   0.50041   0.50396
 Alpha virt. eigenvalues --    0.50821   0.51286   0.51493   0.51726   0.52387
 Alpha virt. eigenvalues --    0.52577   0.52769   0.53256   0.53404   0.53650
 Alpha virt. eigenvalues --    0.53832   0.54391   0.54616   0.54814   0.54967
 Alpha virt. eigenvalues --    0.55157   0.55514   0.56164   0.56354   0.56755
 Alpha virt. eigenvalues --    0.57088   0.57200   0.57289   0.57872   0.58338
 Alpha virt. eigenvalues --    0.58579   0.58672   0.59135   0.59560   0.59934
 Alpha virt. eigenvalues --    0.59953   0.60343   0.60720   0.61172   0.61421
 Alpha virt. eigenvalues --    0.61681   0.61844   0.62170   0.62396   0.62579
 Alpha virt. eigenvalues --    0.63287   0.63359   0.63833   0.64021   0.64394
 Alpha virt. eigenvalues --    0.64551   0.65017   0.65419   0.65569   0.66441
 Alpha virt. eigenvalues --    0.66475   0.66779   0.67081   0.67439   0.67695
 Alpha virt. eigenvalues --    0.67864   0.68268   0.68595   0.69092   0.69210
 Alpha virt. eigenvalues --    0.70070   0.70274   0.70530   0.70747   0.71195
 Alpha virt. eigenvalues --    0.71607   0.71927   0.72153   0.72403   0.72633
 Alpha virt. eigenvalues --    0.73472   0.73630   0.74342   0.74562   0.75160
 Alpha virt. eigenvalues --    0.75577   0.76187   0.76437   0.77008   0.77543
 Alpha virt. eigenvalues --    0.77872   0.77978   0.78406   0.78958   0.79375
 Alpha virt. eigenvalues --    0.79660   0.80041   0.80240   0.80613   0.81482
 Alpha virt. eigenvalues --    0.81602   0.81758   0.82266   0.82629   0.82927
 Alpha virt. eigenvalues --    0.83609   0.83983   0.84389   0.84703   0.85048
 Alpha virt. eigenvalues --    0.85317   0.85578   0.86390   0.86692   0.86794
 Alpha virt. eigenvalues --    0.87477   0.87766   0.87902   0.88124   0.88896
 Alpha virt. eigenvalues --    0.89048   0.89425   0.89569   0.89856   0.90462
 Alpha virt. eigenvalues --    0.90775   0.91062   0.91205   0.91468   0.91814
 Alpha virt. eigenvalues --    0.92245   0.92428   0.92681   0.93117   0.93187
 Alpha virt. eigenvalues --    0.93316   0.93443   0.94515   0.94614   0.94784
 Alpha virt. eigenvalues --    0.95300   0.95768   0.95838   0.96372   0.96620
 Alpha virt. eigenvalues --    0.96931   0.97039   0.97800   0.98572   0.99048
 Alpha virt. eigenvalues --    0.99377   0.99508   0.99942   1.00826   1.01303
 Alpha virt. eigenvalues --    1.01710   1.02246   1.02430   1.03181   1.03307
 Alpha virt. eigenvalues --    1.03593   1.04035   1.04919   1.05465   1.05961
 Alpha virt. eigenvalues --    1.06041   1.06406   1.06478   1.07438   1.07852
 Alpha virt. eigenvalues --    1.08131   1.08618   1.09158   1.09245   1.09991
 Alpha virt. eigenvalues --    1.10105   1.10317   1.10622   1.11028   1.11392
 Alpha virt. eigenvalues --    1.11607   1.12189   1.12330   1.13397   1.13648
 Alpha virt. eigenvalues --    1.14085   1.14473   1.15726   1.15809   1.16149
 Alpha virt. eigenvalues --    1.16425   1.16930   1.17109   1.17302   1.17896
 Alpha virt. eigenvalues --    1.17939   1.18617   1.18903   1.19077   1.19576
 Alpha virt. eigenvalues --    1.19902   1.20488   1.20895   1.21111   1.21669
 Alpha virt. eigenvalues --    1.22151   1.22541   1.22958   1.23751   1.24127
 Alpha virt. eigenvalues --    1.25192   1.25414   1.26297   1.26970   1.27294
 Alpha virt. eigenvalues --    1.27433   1.28486   1.29254   1.29590   1.30480
 Alpha virt. eigenvalues --    1.31142   1.31277   1.31871   1.32352   1.32787
 Alpha virt. eigenvalues --    1.33545   1.33985   1.34480   1.34523   1.34920
 Alpha virt. eigenvalues --    1.35811   1.36203   1.36573   1.36921   1.37382
 Alpha virt. eigenvalues --    1.37621   1.37894   1.38517   1.38699   1.38975
 Alpha virt. eigenvalues --    1.39237   1.39625   1.40015   1.40362   1.40504
 Alpha virt. eigenvalues --    1.40674   1.40961   1.41657   1.41840   1.41999
 Alpha virt. eigenvalues --    1.42580   1.42749   1.42868   1.43377   1.43718
 Alpha virt. eigenvalues --    1.43868   1.44185   1.44373   1.45071   1.45533
 Alpha virt. eigenvalues --    1.45682   1.45913   1.46049   1.46198   1.46582
 Alpha virt. eigenvalues --    1.46926   1.47184   1.47413   1.47695   1.48064
 Alpha virt. eigenvalues --    1.48308   1.48520   1.48841   1.49209   1.49330
 Alpha virt. eigenvalues --    1.49472   1.49763   1.50611   1.50832   1.51205
 Alpha virt. eigenvalues --    1.51522   1.51695   1.51865   1.52179   1.52364
 Alpha virt. eigenvalues --    1.52882   1.52970   1.53459   1.53668   1.54226
 Alpha virt. eigenvalues --    1.54390   1.54816   1.55040   1.55467   1.55614
 Alpha virt. eigenvalues --    1.55751   1.56153   1.56472   1.56639   1.56729
 Alpha virt. eigenvalues --    1.57306   1.57815   1.58213   1.58632   1.58912
 Alpha virt. eigenvalues --    1.59047   1.59270   1.59573   1.60594   1.61027
 Alpha virt. eigenvalues --    1.61296   1.61765   1.62191   1.62643   1.62865
 Alpha virt. eigenvalues --    1.63277   1.63529   1.64234   1.64612   1.64809
 Alpha virt. eigenvalues --    1.65670   1.67146   1.67334   1.67927   1.68414
 Alpha virt. eigenvalues --    1.69199   1.69952   1.70151   1.71183   1.71496
 Alpha virt. eigenvalues --    1.71730   1.71815   1.72293   1.73034   1.73413
 Alpha virt. eigenvalues --    1.73821   1.74611   1.74912   1.75457   1.75895
 Alpha virt. eigenvalues --    1.75967   1.76638   1.76876   1.77305   1.77488
 Alpha virt. eigenvalues --    1.78197   1.78621   1.78734   1.79425   1.79869
 Alpha virt. eigenvalues --    1.80332   1.80689   1.80952   1.81931   1.82247
 Alpha virt. eigenvalues --    1.83029   1.83518   1.84315   1.84597   1.85136
 Alpha virt. eigenvalues --    1.85711   1.86467   1.86785   1.87162   1.87354
 Alpha virt. eigenvalues --    1.88210   1.88660   1.88754   1.89377   1.89588
 Alpha virt. eigenvalues --    1.90044   1.90756   1.91009   1.91199   1.91315
 Alpha virt. eigenvalues --    1.92050   1.92606   1.92861   1.93354   1.94077
 Alpha virt. eigenvalues --    1.94956   1.95536   1.95914   1.96256   1.96609
 Alpha virt. eigenvalues --    1.96974   1.97907   1.98609   1.98926   1.99479
 Alpha virt. eigenvalues --    1.99808   2.00158   2.00608   2.01163   2.01428
 Alpha virt. eigenvalues --    2.01541   2.02205   2.02509   2.02911   2.03496
 Alpha virt. eigenvalues --    2.03917   2.04438   2.04874   2.05482   2.05783
 Alpha virt. eigenvalues --    2.05997   2.06532   2.07247   2.07482   2.08293
 Alpha virt. eigenvalues --    2.08687   2.09422   2.09908   2.10258   2.10440
 Alpha virt. eigenvalues --    2.10844   2.11928   2.12052   2.12545   2.13871
 Alpha virt. eigenvalues --    2.14273   2.14314   2.14876   2.15540   2.15903
 Alpha virt. eigenvalues --    2.16094   2.16791   2.17228   2.17446   2.17712
 Alpha virt. eigenvalues --    2.18817   2.19071   2.19242   2.19812   2.20303
 Alpha virt. eigenvalues --    2.20906   2.21270   2.21385   2.22596   2.23002
 Alpha virt. eigenvalues --    2.23323   2.23774   2.24339   2.25079   2.25557
 Alpha virt. eigenvalues --    2.26047   2.26073   2.26444   2.27017   2.27481
 Alpha virt. eigenvalues --    2.27614   2.27876   2.28397   2.28564   2.28828
 Alpha virt. eigenvalues --    2.29046   2.29513   2.29773   2.29953   2.30187
 Alpha virt. eigenvalues --    2.30920   2.31130   2.32102   2.32301   2.32778
 Alpha virt. eigenvalues --    2.33654   2.34035   2.34722   2.34938   2.35171
 Alpha virt. eigenvalues --    2.35465   2.35862   2.36134   2.36625   2.37037
 Alpha virt. eigenvalues --    2.37273   2.37932   2.38971   2.39095   2.39672
 Alpha virt. eigenvalues --    2.40485   2.41158   2.41933   2.42135   2.42411
 Alpha virt. eigenvalues --    2.43214   2.43289   2.43826   2.43980   2.44403
 Alpha virt. eigenvalues --    2.44801   2.44985   2.45156   2.46034   2.46731
 Alpha virt. eigenvalues --    2.46860   2.47122   2.47368   2.47769   2.48039
 Alpha virt. eigenvalues --    2.48571   2.48971   2.49267   2.49739   2.50016
 Alpha virt. eigenvalues --    2.50182   2.50619   2.51181   2.51644   2.52007
 Alpha virt. eigenvalues --    2.52602   2.52810   2.52996   2.53568   2.54045
 Alpha virt. eigenvalues --    2.54378   2.54904   2.55450   2.55619   2.56171
 Alpha virt. eigenvalues --    2.56781   2.57259   2.57862   2.58144   2.58316
 Alpha virt. eigenvalues --    2.58602   2.59227   2.59786   2.59966   2.60303
 Alpha virt. eigenvalues --    2.60753   2.61124   2.61928   2.62079   2.62499
 Alpha virt. eigenvalues --    2.62881   2.63584   2.63728   2.64175   2.64734
 Alpha virt. eigenvalues --    2.64971   2.65528   2.65776   2.66779   2.67611
 Alpha virt. eigenvalues --    2.68130   2.68652   2.68908   2.69462   2.69511
 Alpha virt. eigenvalues --    2.69839   2.70531   2.71756   2.72183   2.72320
 Alpha virt. eigenvalues --    2.72745   2.73097   2.73106   2.73264   2.73860
 Alpha virt. eigenvalues --    2.74283   2.74663   2.75382   2.75537   2.75836
 Alpha virt. eigenvalues --    2.75956   2.76470   2.76736   2.77520   2.78031
 Alpha virt. eigenvalues --    2.78170   2.78223   2.78628   2.79191   2.79378
 Alpha virt. eigenvalues --    2.79797   2.80082   2.80553   2.80756   2.81396
 Alpha virt. eigenvalues --    2.81539   2.82431   2.82800   2.83092   2.83391
 Alpha virt. eigenvalues --    2.83984   2.84349   2.84700   2.85109   2.85358
 Alpha virt. eigenvalues --    2.85869   2.86627   2.86707   2.86893   2.87426
 Alpha virt. eigenvalues --    2.87496   2.88101   2.88842   2.89426   2.89543
 Alpha virt. eigenvalues --    2.90094   2.90518   2.90931   2.91164   2.91525
 Alpha virt. eigenvalues --    2.91870   2.92433   2.92902   2.93172   2.93766
 Alpha virt. eigenvalues --    2.93828   2.94199   2.94713   2.95448   2.95586
 Alpha virt. eigenvalues --    2.95847   2.96360   2.96497   2.96989   2.97809
 Alpha virt. eigenvalues --    2.98104   2.98286   2.98500   2.98812   2.99029
 Alpha virt. eigenvalues --    2.99206   2.99337   2.99837   3.00107   3.00430
 Alpha virt. eigenvalues --    3.00570   3.01614   3.01740   3.02141   3.02546
 Alpha virt. eigenvalues --    3.02727   3.03245   3.03601   3.03791   3.04145
 Alpha virt. eigenvalues --    3.04379   3.04970   3.05191   3.05429   3.05536
 Alpha virt. eigenvalues --    3.06497   3.06638   3.07141   3.07328   3.07670
 Alpha virt. eigenvalues --    3.07985   3.08283   3.08659   3.08785   3.09156
 Alpha virt. eigenvalues --    3.09716   3.09840   3.09924   3.10316   3.10566
 Alpha virt. eigenvalues --    3.10681   3.10975   3.11310   3.11913   3.12281
 Alpha virt. eigenvalues --    3.12848   3.13108   3.13387   3.13505   3.13767
 Alpha virt. eigenvalues --    3.14051   3.14249   3.14626   3.14974   3.15134
 Alpha virt. eigenvalues --    3.15356   3.15565   3.15964   3.16603   3.16748
 Alpha virt. eigenvalues --    3.16853   3.17300   3.17702   3.18022   3.18454
 Alpha virt. eigenvalues --    3.18817   3.18975   3.19328   3.19606   3.19858
 Alpha virt. eigenvalues --    3.20170   3.20515   3.20929   3.21114   3.21397
 Alpha virt. eigenvalues --    3.21594   3.22041   3.22097   3.22508   3.22621
 Alpha virt. eigenvalues --    3.22752   3.23101   3.23449   3.23958   3.24235
 Alpha virt. eigenvalues --    3.24350   3.24422   3.24751   3.24999   3.25540
 Alpha virt. eigenvalues --    3.25906   3.26024   3.26194   3.26951   3.27046
 Alpha virt. eigenvalues --    3.27164   3.27353   3.27719   3.28133   3.28249
 Alpha virt. eigenvalues --    3.28550   3.28866   3.28959   3.29363   3.29888
 Alpha virt. eigenvalues --    3.30166   3.30450   3.31106   3.31444   3.32050
 Alpha virt. eigenvalues --    3.32225   3.32531   3.32842   3.33226   3.33557
 Alpha virt. eigenvalues --    3.33924   3.35011   3.35375   3.35793   3.36256
 Alpha virt. eigenvalues --    3.36496   3.36845   3.37399   3.37446   3.38008
 Alpha virt. eigenvalues --    3.38118   3.38601   3.39170   3.39457   3.39671
 Alpha virt. eigenvalues --    3.40461   3.41299   3.41617   3.41673   3.42085
 Alpha virt. eigenvalues --    3.43360   3.43783   3.43988   3.44231   3.45038
 Alpha virt. eigenvalues --    3.45289   3.45850   3.46671   3.46738   3.47348
 Alpha virt. eigenvalues --    3.48465   3.48645   3.48963   3.49437   3.49591
 Alpha virt. eigenvalues --    3.50126   3.50646   3.50796   3.51195   3.51711
 Alpha virt. eigenvalues --    3.52305   3.53086   3.53441   3.53771   3.54212
 Alpha virt. eigenvalues --    3.54508   3.55092   3.56341   3.56637   3.56933
 Alpha virt. eigenvalues --    3.57411   3.57495   3.57946   3.59240   3.59580
 Alpha virt. eigenvalues --    3.59903   3.60440   3.60663   3.60944   3.61181
 Alpha virt. eigenvalues --    3.61433   3.62074   3.62387   3.62696   3.62962
 Alpha virt. eigenvalues --    3.63793   3.64183   3.64416   3.64643   3.64888
 Alpha virt. eigenvalues --    3.65634   3.66244   3.66392   3.67257   3.67721
 Alpha virt. eigenvalues --    3.68303   3.68668   3.69439   3.69587   3.70707
 Alpha virt. eigenvalues --    3.71535   3.71653   3.71876   3.72337   3.73728
 Alpha virt. eigenvalues --    3.74278   3.74636   3.74776   3.75467   3.75916
 Alpha virt. eigenvalues --    3.75980   3.76726   3.77704   3.78056   3.78428
 Alpha virt. eigenvalues --    3.78844   3.79108   3.79616   3.80946   3.81389
 Alpha virt. eigenvalues --    3.81797   3.82158   3.82603   3.82738   3.83306
 Alpha virt. eigenvalues --    3.84211   3.86411   3.86714   3.88291   3.88458
 Alpha virt. eigenvalues --    3.88728   3.88907   3.89298   3.89700   3.90776
 Alpha virt. eigenvalues --    3.91004   3.91692   3.92387   3.92765   3.92788
 Alpha virt. eigenvalues --    3.93771   3.94311   3.94823   3.95805   3.96126
 Alpha virt. eigenvalues --    3.96833   3.97110   3.98536   3.99207   4.00167
 Alpha virt. eigenvalues --    4.00335   4.00676   4.01294   4.01918   4.02801
 Alpha virt. eigenvalues --    4.03339   4.03863   4.04286   4.05164   4.05455
 Alpha virt. eigenvalues --    4.05716   4.06716   4.07306   4.07755   4.08358
 Alpha virt. eigenvalues --    4.08869   4.09382   4.09700   4.10958   4.11495
 Alpha virt. eigenvalues --    4.12478   4.12540   4.12823   4.13473   4.13730
 Alpha virt. eigenvalues --    4.14260   4.14984   4.15383   4.15798   4.16091
 Alpha virt. eigenvalues --    4.17424   4.17683   4.18735   4.19083   4.20806
 Alpha virt. eigenvalues --    4.21441   4.22090   4.22921   4.23073   4.23708
 Alpha virt. eigenvalues --    4.23911   4.25301   4.25459   4.25978   4.26768
 Alpha virt. eigenvalues --    4.27260   4.28161   4.28415   4.28922   4.29591
 Alpha virt. eigenvalues --    4.29837   4.30293   4.30586   4.31541   4.31962
 Alpha virt. eigenvalues --    4.32212   4.33455   4.33631   4.34190   4.34892
 Alpha virt. eigenvalues --    4.35080   4.35651   4.36143   4.37121   4.37904
 Alpha virt. eigenvalues --    4.38946   4.39866   4.40759   4.41200   4.42932
 Alpha virt. eigenvalues --    4.43886   4.44459   4.45270   4.45409   4.45901
 Alpha virt. eigenvalues --    4.46794   4.47218   4.47396   4.48504   4.49705
 Alpha virt. eigenvalues --    4.50829   4.51972   4.52647   4.53650   4.56207
 Alpha virt. eigenvalues --    4.56408   4.57001   4.57336   4.57553   4.58025
 Alpha virt. eigenvalues --    4.59034   4.59985   4.60366   4.62663   4.62984
 Alpha virt. eigenvalues --    4.63921   4.64235   4.65476   4.66835   4.67428
 Alpha virt. eigenvalues --    4.67789   4.69052   4.69606   4.70101   4.70219
 Alpha virt. eigenvalues --    4.71250   4.72454   4.72580   4.73374   4.73685
 Alpha virt. eigenvalues --    4.74195   4.74805   4.75500   4.77007   4.77224
 Alpha virt. eigenvalues --    4.77468   4.78632   4.79183   4.79764   4.80767
 Alpha virt. eigenvalues --    4.81827   4.82600   4.83348   4.83810   4.85082
 Alpha virt. eigenvalues --    4.85989   4.86865   4.88599   4.88905   4.89951
 Alpha virt. eigenvalues --    4.90604   4.91227   4.91688   4.92132   4.92728
 Alpha virt. eigenvalues --    4.93169   4.94353   4.95229   4.95645   4.95972
 Alpha virt. eigenvalues --    4.97633   4.99136   5.00071   5.02102   5.03701
 Alpha virt. eigenvalues --    5.04858   5.05103   5.05860   5.07571   5.08286
 Alpha virt. eigenvalues --    5.09307   5.10237   5.10514   5.12172   5.12580
 Alpha virt. eigenvalues --    5.14002   5.14218   5.15591   5.17402   5.20322
 Alpha virt. eigenvalues --    5.21395   5.23254   5.24154   5.24949   5.25572
 Alpha virt. eigenvalues --    5.26595   5.26763   5.27173   5.28337   5.29051
 Alpha virt. eigenvalues --    5.30744   5.33150   5.35571   5.36070   5.36251
 Alpha virt. eigenvalues --    5.37031   5.37360   5.38558   5.40236   5.40516
 Alpha virt. eigenvalues --    5.44040   5.46203   5.47578   5.48267   5.49325
 Alpha virt. eigenvalues --    5.50814   5.51482   5.53035   5.54053   5.55117
 Alpha virt. eigenvalues --    5.55810   5.56714   5.59635   5.61546   5.62813
 Alpha virt. eigenvalues --    5.63858   5.65588   5.66745   5.72479   5.72982
 Alpha virt. eigenvalues --    5.75904   5.80947   5.87059   5.88909   5.89275
 Alpha virt. eigenvalues --    5.94034   5.94342   5.96052   5.97029   5.98213
 Alpha virt. eigenvalues --    6.02302   6.05407   6.10896   6.20084   6.21088
 Alpha virt. eigenvalues --    6.27734  22.26329  22.27201  22.34049  22.36249
 Alpha virt. eigenvalues --   22.36967  22.43031  22.44327  22.52675  22.53143
 Alpha virt. eigenvalues --   22.60671  22.70558  22.77149  22.78400  22.80464
 Alpha virt. eigenvalues --   22.82274  22.83428  22.84585  22.88588  22.91741
 Alpha virt. eigenvalues --   22.91939  23.02499  23.14005  23.15777  23.18493
 Alpha virt. eigenvalues --   23.18925  23.25142  23.30377  23.38855  23.40083
 Alpha virt. eigenvalues --   23.43461  23.63378  23.67887  23.68346  23.76387
 Alpha virt. eigenvalues --   32.26576  32.44449  32.65994  32.73247  32.74265
 Alpha virt. eigenvalues --   32.92285
  Beta  occ. eigenvalues -- -256.38382 -30.22589 -26.07228 -26.06554 -26.06127
  Beta  occ. eigenvalues --  -14.54053 -14.50666 -14.47048 -14.46940 -14.46763
  Beta  occ. eigenvalues --  -14.46715 -10.38813 -10.35789 -10.33328 -10.33190
  Beta  occ. eigenvalues --  -10.33102 -10.33067 -10.33047 -10.32969 -10.32954
  Beta  occ. eigenvalues --  -10.32924 -10.32857 -10.30925 -10.30484 -10.30434
  Beta  occ. eigenvalues --  -10.30339 -10.30274 -10.30171 -10.29945 -10.29935
  Beta  occ. eigenvalues --  -10.29854 -10.29837 -10.29774 -10.29688 -10.29620
  Beta  occ. eigenvalues --  -10.29040 -10.28852 -10.28229 -10.28118 -10.28021
  Beta  occ. eigenvalues --  -10.28017 -10.27951 -10.27762 -10.27711 -10.27457
  Beta  occ. eigenvalues --   -3.58200  -2.35125  -2.33618  -2.32945  -1.17924
  Beta  occ. eigenvalues --   -1.09299  -1.08368  -1.08218  -1.07270  -1.03834
  Beta  occ. eigenvalues --   -0.93987  -0.92522  -0.92239  -0.91780  -0.91668
  Beta  occ. eigenvalues --   -0.91402  -0.91201  -0.91060  -0.87042  -0.85855
  Beta  occ. eigenvalues --   -0.85776  -0.84597  -0.83239  -0.83168  -0.81510
  Beta  occ. eigenvalues --   -0.80493  -0.78820  -0.78624  -0.78424  -0.77057
  Beta  occ. eigenvalues --   -0.75526  -0.75445  -0.73546  -0.70963  -0.70298
  Beta  occ. eigenvalues --   -0.69252  -0.68546  -0.68003  -0.65530  -0.64812
  Beta  occ. eigenvalues --   -0.63908  -0.63537  -0.62282  -0.62180  -0.61768
  Beta  occ. eigenvalues --   -0.60033  -0.59476  -0.59348  -0.58667  -0.58500
  Beta  occ. eigenvalues --   -0.56340  -0.55740  -0.55413  -0.54996  -0.54855
  Beta  occ. eigenvalues --   -0.54623  -0.54501  -0.54273  -0.53717  -0.53679
  Beta  occ. eigenvalues --   -0.53517  -0.53040  -0.52872  -0.52575  -0.52447
  Beta  occ. eigenvalues --   -0.52294  -0.50937  -0.50809  -0.50726  -0.50700
  Beta  occ. eigenvalues --   -0.50535  -0.50418  -0.50092  -0.49953  -0.49829
  Beta  occ. eigenvalues --   -0.49502  -0.49273  -0.48916  -0.48760  -0.48297
  Beta  occ. eigenvalues --   -0.48000  -0.47653  -0.47298  -0.46890  -0.46657
  Beta  occ. eigenvalues --   -0.46061  -0.45300  -0.44622  -0.44304  -0.44098
  Beta  occ. eigenvalues --   -0.43515  -0.42933  -0.42727  -0.42479  -0.40440
  Beta  occ. eigenvalues --   -0.39713  -0.38817  -0.38495  -0.37898  -0.36947
  Beta  occ. eigenvalues --   -0.36145  -0.34348  -0.34202  -0.32888  -0.32508
  Beta  occ. eigenvalues --   -0.30833  -0.29081
  Beta virt. eigenvalues --   -0.19763  -0.18272  -0.17258  -0.16804  -0.14134
  Beta virt. eigenvalues --   -0.12499  -0.10581  -0.09077  -0.08020  -0.07015
  Beta virt. eigenvalues --   -0.06844  -0.05916  -0.05086  -0.04209  -0.03610
  Beta virt. eigenvalues --   -0.03189  -0.02893  -0.02660  -0.02464  -0.02196
  Beta virt. eigenvalues --   -0.01201  -0.00808  -0.00545  -0.00261  -0.00016
  Beta virt. eigenvalues --    0.00356   0.01048   0.01174   0.01318   0.01706
  Beta virt. eigenvalues --    0.02024   0.02421   0.02589   0.02878   0.02912
  Beta virt. eigenvalues --    0.03034   0.03283   0.03436   0.03619   0.03848
  Beta virt. eigenvalues --    0.04103   0.04287   0.04386   0.04579   0.04929
  Beta virt. eigenvalues --    0.05265   0.05514   0.05639   0.05707   0.06046
  Beta virt. eigenvalues --    0.06269   0.06863   0.07061   0.07233   0.07471
  Beta virt. eigenvalues --    0.07534   0.07746   0.07957   0.08226   0.08566
  Beta virt. eigenvalues --    0.08727   0.08777   0.09152   0.09251   0.09556
  Beta virt. eigenvalues --    0.10079   0.10420   0.10601   0.10859   0.10950
  Beta virt. eigenvalues --    0.11302   0.11432   0.11889   0.12042   0.12371
  Beta virt. eigenvalues --    0.12751   0.12931   0.13140   0.13232   0.13509
  Beta virt. eigenvalues --    0.13890   0.13970   0.14151   0.14621   0.15449
  Beta virt. eigenvalues --    0.15632   0.16042   0.16449   0.16529   0.16646
  Beta virt. eigenvalues --    0.16863   0.16985   0.17432   0.17505   0.17710
  Beta virt. eigenvalues --    0.17846   0.18229   0.18535   0.18900   0.19193
  Beta virt. eigenvalues --    0.19238   0.19460   0.19989   0.20255   0.20342
  Beta virt. eigenvalues --    0.20770   0.20946   0.21326   0.21648   0.21771
  Beta virt. eigenvalues --    0.22226   0.22352   0.22648   0.22926   0.23173
  Beta virt. eigenvalues --    0.23420   0.23562   0.23772   0.24136   0.24278
  Beta virt. eigenvalues --    0.24401   0.24771   0.25372   0.25438   0.25706
  Beta virt. eigenvalues --    0.26107   0.26451   0.26666   0.26893   0.27296
  Beta virt. eigenvalues --    0.27498   0.27989   0.28374   0.28485   0.28778
  Beta virt. eigenvalues --    0.28857   0.29075   0.29479   0.29683   0.29758
  Beta virt. eigenvalues --    0.30010   0.30190   0.30610   0.30947   0.31079
  Beta virt. eigenvalues --    0.31349   0.31378   0.31834   0.31936   0.32086
  Beta virt. eigenvalues --    0.32333   0.32463   0.32612   0.32901   0.33062
  Beta virt. eigenvalues --    0.33216   0.33660   0.33910   0.34138   0.34314
  Beta virt. eigenvalues --    0.34769   0.35156   0.35357   0.35635   0.35923
  Beta virt. eigenvalues --    0.36201   0.36281   0.36653   0.36960   0.37038
  Beta virt. eigenvalues --    0.37311   0.37511   0.37641   0.37911   0.38021
  Beta virt. eigenvalues --    0.38170   0.38481   0.38715   0.38792   0.38945
  Beta virt. eigenvalues --    0.39117   0.39399   0.39627   0.39950   0.40413
  Beta virt. eigenvalues --    0.40526   0.40844   0.40927   0.41075   0.41304
  Beta virt. eigenvalues --    0.41373   0.41791   0.41867   0.42156   0.42432
  Beta virt. eigenvalues --    0.42661   0.42802   0.42970   0.43073   0.43251
  Beta virt. eigenvalues --    0.43322   0.43709   0.43855   0.44109   0.44553
  Beta virt. eigenvalues --    0.44739   0.45059   0.45176   0.45367   0.45612
  Beta virt. eigenvalues --    0.46256   0.46349   0.46605   0.47046   0.47138
  Beta virt. eigenvalues --    0.47334   0.47721   0.47770   0.47948   0.48829
  Beta virt. eigenvalues --    0.48888   0.49321   0.49535   0.49863   0.50046
  Beta virt. eigenvalues --    0.50426   0.50829   0.51353   0.51490   0.51737
  Beta virt. eigenvalues --    0.52451   0.52593   0.52834   0.53319   0.53448
  Beta virt. eigenvalues --    0.53709   0.53864   0.54395   0.54654   0.54845
  Beta virt. eigenvalues --    0.54978   0.55178   0.55525   0.56210   0.56364
  Beta virt. eigenvalues --    0.56788   0.57144   0.57217   0.57314   0.57872
  Beta virt. eigenvalues --    0.58336   0.58558   0.58692   0.59163   0.59608
  Beta virt. eigenvalues --    0.59938   0.59961   0.60362   0.60713   0.61178
  Beta virt. eigenvalues --    0.61410   0.61701   0.61861   0.62169   0.62403
  Beta virt. eigenvalues --    0.62614   0.63321   0.63374   0.63840   0.63997
  Beta virt. eigenvalues --    0.64439   0.64616   0.65051   0.65405   0.65597
  Beta virt. eigenvalues --    0.66443   0.66499   0.66862   0.67102   0.67468
  Beta virt. eigenvalues --    0.67753   0.67866   0.68287   0.68599   0.69085
  Beta virt. eigenvalues --    0.69256   0.70118   0.70329   0.70568   0.70772
  Beta virt. eigenvalues --    0.71206   0.71623   0.71957   0.72172   0.72429
  Beta virt. eigenvalues --    0.72666   0.73525   0.73629   0.74363   0.74564
  Beta virt. eigenvalues --    0.75157   0.75581   0.76204   0.76454   0.77014
  Beta virt. eigenvalues --    0.77540   0.77868   0.78006   0.78423   0.78972
  Beta virt. eigenvalues --    0.79413   0.79672   0.80066   0.80238   0.80578
  Beta virt. eigenvalues --    0.81469   0.81628   0.81753   0.82267   0.82648
  Beta virt. eigenvalues --    0.82933   0.83632   0.84024   0.84395   0.84734
  Beta virt. eigenvalues --    0.85053   0.85300   0.85653   0.86495   0.86687
  Beta virt. eigenvalues --    0.86811   0.87469   0.87906   0.87930   0.88139
  Beta virt. eigenvalues --    0.88893   0.89101   0.89431   0.89583   0.89854
  Beta virt. eigenvalues --    0.90481   0.90788   0.91061   0.91287   0.91524
  Beta virt. eigenvalues --    0.91861   0.92284   0.92454   0.92729   0.93131
  Beta virt. eigenvalues --    0.93227   0.93335   0.93518   0.94527   0.94714
  Beta virt. eigenvalues --    0.94855   0.95310   0.95773   0.95911   0.96384
  Beta virt. eigenvalues --    0.96647   0.96977   0.97377   0.97929   0.98696
  Beta virt. eigenvalues --    0.99084   0.99462   0.99610   1.00002   1.00870
  Beta virt. eigenvalues --    1.01347   1.01787   1.02301   1.02620   1.03210
  Beta virt. eigenvalues --    1.03307   1.03725   1.04048   1.04957   1.05589
  Beta virt. eigenvalues --    1.05946   1.06101   1.06471   1.06488   1.07516
  Beta virt. eigenvalues --    1.07918   1.08155   1.08715   1.09210   1.09299
  Beta virt. eigenvalues --    1.10035   1.10191   1.10366   1.10681   1.11082
  Beta virt. eigenvalues --    1.11429   1.11748   1.12223   1.12357   1.13503
  Beta virt. eigenvalues --    1.13732   1.14117   1.14563   1.15781   1.15832
  Beta virt. eigenvalues --    1.16220   1.16444   1.16937   1.17126   1.17331
  Beta virt. eigenvalues --    1.17936   1.17959   1.18680   1.18936   1.19105
  Beta virt. eigenvalues --    1.19713   1.19947   1.20579   1.20913   1.21157
  Beta virt. eigenvalues --    1.21683   1.22224   1.22541   1.23018   1.23775
  Beta virt. eigenvalues --    1.24158   1.25191   1.25454   1.26387   1.26982
  Beta virt. eigenvalues --    1.27310   1.27454   1.28544   1.29261   1.29615
  Beta virt. eigenvalues --    1.30489   1.31136   1.31286   1.31902   1.32363
  Beta virt. eigenvalues --    1.32816   1.33542   1.33987   1.34481   1.34556
  Beta virt. eigenvalues --    1.34942   1.35805   1.36284   1.36592   1.36961
  Beta virt. eigenvalues --    1.37433   1.37657   1.37925   1.38564   1.38730
  Beta virt. eigenvalues --    1.38967   1.39255   1.39685   1.40041   1.40347
  Beta virt. eigenvalues --    1.40560   1.40740   1.40965   1.41677   1.41920
  Beta virt. eigenvalues --    1.42012   1.42590   1.42749   1.42891   1.43397
  Beta virt. eigenvalues --    1.43742   1.43868   1.44185   1.44381   1.45063
  Beta virt. eigenvalues --    1.45541   1.45683   1.45906   1.46051   1.46209
  Beta virt. eigenvalues --    1.46590   1.46923   1.47193   1.47410   1.47716
  Beta virt. eigenvalues --    1.48069   1.48312   1.48538   1.48846   1.49218
  Beta virt. eigenvalues --    1.49332   1.49462   1.49767   1.50615   1.50836
  Beta virt. eigenvalues --    1.51214   1.51520   1.51696   1.51856   1.52202
  Beta virt. eigenvalues --    1.52375   1.52896   1.52973   1.53474   1.53685
  Beta virt. eigenvalues --    1.54222   1.54396   1.54817   1.55037   1.55461
  Beta virt. eigenvalues --    1.55628   1.55766   1.56173   1.56465   1.56645
  Beta virt. eigenvalues --    1.56743   1.57314   1.57822   1.58215   1.58623
  Beta virt. eigenvalues --    1.58916   1.59057   1.59277   1.59593   1.60597
  Beta virt. eigenvalues --    1.61037   1.61288   1.61753   1.62196   1.62642
  Beta virt. eigenvalues --    1.62884   1.63269   1.63512   1.64287   1.64636
  Beta virt. eigenvalues --    1.64844   1.65668   1.67139   1.67291   1.67941
  Beta virt. eigenvalues --    1.68482   1.69182   1.69940   1.70163   1.71205
  Beta virt. eigenvalues --    1.71478   1.71731   1.71802   1.72324   1.73058
  Beta virt. eigenvalues --    1.73432   1.73852   1.74599   1.74921   1.75429
  Beta virt. eigenvalues --    1.75875   1.75956   1.76633   1.76899   1.77329
  Beta virt. eigenvalues --    1.77478   1.78250   1.78619   1.78717   1.79431
  Beta virt. eigenvalues --    1.79886   1.80358   1.80699   1.80987   1.81932
  Beta virt. eigenvalues --    1.82228   1.83026   1.83543   1.84308   1.84661
  Beta virt. eigenvalues --    1.85161   1.85752   1.86488   1.86815   1.87198
  Beta virt. eigenvalues --    1.87420   1.88250   1.88695   1.88803   1.89411
  Beta virt. eigenvalues --    1.89603   1.90042   1.90771   1.91013   1.91210
  Beta virt. eigenvalues --    1.91348   1.92141   1.92649   1.92865   1.93393
  Beta virt. eigenvalues --    1.94086   1.94989   1.95557   1.95966   1.96291
  Beta virt. eigenvalues --    1.96607   1.97062   1.97941   1.98674   1.98930
  Beta virt. eigenvalues --    1.99490   1.99843   2.00170   2.00669   2.01225
  Beta virt. eigenvalues --    2.01481   2.01580   2.02256   2.02572   2.02925
  Beta virt. eigenvalues --    2.03537   2.03954   2.04483   2.04889   2.05538
  Beta virt. eigenvalues --    2.05804   2.06035   2.06571   2.07254   2.07533
  Beta virt. eigenvalues --    2.08318   2.08694   2.09455   2.10027   2.10273
  Beta virt. eigenvalues --    2.10467   2.10901   2.11931   2.12139   2.12571
  Beta virt. eigenvalues --    2.13886   2.14283   2.14340   2.14896   2.15555
  Beta virt. eigenvalues --    2.15970   2.16112   2.16844   2.17245   2.17435
  Beta virt. eigenvalues --    2.18067   2.18819   2.19137   2.19409   2.19823
  Beta virt. eigenvalues --    2.20345   2.20931   2.21333   2.21429   2.22624
  Beta virt. eigenvalues --    2.23073   2.23384   2.23827   2.24483   2.25120
  Beta virt. eigenvalues --    2.25606   2.26086   2.26095   2.26501   2.27042
  Beta virt. eigenvalues --    2.27552   2.27658   2.27901   2.28415   2.28644
  Beta virt. eigenvalues --    2.28893   2.29102   2.29530   2.29804   2.29972
  Beta virt. eigenvalues --    2.30231   2.30964   2.31156   2.32126   2.32300
  Beta virt. eigenvalues --    2.32863   2.33668   2.34127   2.34741   2.34964
  Beta virt. eigenvalues --    2.35278   2.35499   2.35864   2.36176   2.36638
  Beta virt. eigenvalues --    2.37089   2.37269   2.37941   2.38998   2.39097
  Beta virt. eigenvalues --    2.39681   2.40471   2.41171   2.41957   2.42116
  Beta virt. eigenvalues --    2.42417   2.43225   2.43328   2.43826   2.43989
  Beta virt. eigenvalues --    2.44414   2.44839   2.44965   2.45138   2.46063
  Beta virt. eigenvalues --    2.46748   2.46855   2.47136   2.47399   2.47786
  Beta virt. eigenvalues --    2.48022   2.48577   2.48967   2.49281   2.49735
  Beta virt. eigenvalues --    2.50081   2.50169   2.50639   2.51189   2.51715
  Beta virt. eigenvalues --    2.52007   2.52610   2.52827   2.53053   2.53574
  Beta virt. eigenvalues --    2.54091   2.54418   2.54946   2.55479   2.55623
  Beta virt. eigenvalues --    2.56212   2.56808   2.57272   2.57885   2.58150
  Beta virt. eigenvalues --    2.58350   2.58630   2.59327   2.59809   2.59980
  Beta virt. eigenvalues --    2.60321   2.60769   2.61210   2.61963   2.62081
  Beta virt. eigenvalues --    2.62543   2.62886   2.63586   2.63738   2.64279
  Beta virt. eigenvalues --    2.64740   2.64982   2.65508   2.65821   2.66758
  Beta virt. eigenvalues --    2.67610   2.68130   2.68637   2.68946   2.69482
  Beta virt. eigenvalues --    2.69513   2.69833   2.70654   2.71802   2.72187
  Beta virt. eigenvalues --    2.72326   2.72754   2.73113   2.73153   2.73250
  Beta virt. eigenvalues --    2.73857   2.74322   2.74643   2.75408   2.75532
  Beta virt. eigenvalues --    2.75838   2.75950   2.76461   2.76778   2.77520
  Beta virt. eigenvalues --    2.78020   2.78180   2.78238   2.78646   2.79187
  Beta virt. eigenvalues --    2.79392   2.79826   2.80091   2.80548   2.80772
  Beta virt. eigenvalues --    2.81404   2.81544   2.82460   2.82824   2.83090
  Beta virt. eigenvalues --    2.83382   2.83988   2.84362   2.84707   2.85119
  Beta virt. eigenvalues --    2.85337   2.85870   2.86626   2.86701   2.86904
  Beta virt. eigenvalues --    2.87438   2.87490   2.88099   2.88830   2.89418
  Beta virt. eigenvalues --    2.89551   2.90101   2.90534   2.90935   2.91189
  Beta virt. eigenvalues --    2.91513   2.91865   2.92444   2.92908   2.93169
  Beta virt. eigenvalues --    2.93754   2.93878   2.94197   2.94716   2.95459
  Beta virt. eigenvalues --    2.95613   2.95843   2.96380   2.96497   2.97000
  Beta virt. eigenvalues --    2.97832   2.98102   2.98299   2.98512   2.98812
  Beta virt. eigenvalues --    2.99060   2.99229   2.99369   2.99830   3.00128
  Beta virt. eigenvalues --    3.00441   3.00610   3.01623   3.01744   3.02158
  Beta virt. eigenvalues --    3.02552   3.02745   3.03250   3.03610   3.03785
  Beta virt. eigenvalues --    3.04158   3.04403   3.04982   3.05214   3.05451
  Beta virt. eigenvalues --    3.05533   3.06478   3.06650   3.07139   3.07335
  Beta virt. eigenvalues --    3.07696   3.07984   3.08301   3.08666   3.08778
  Beta virt. eigenvalues --    3.09169   3.09742   3.09834   3.09922   3.10321
  Beta virt. eigenvalues --    3.10597   3.10691   3.11038   3.11319   3.11920
  Beta virt. eigenvalues --    3.12285   3.12860   3.13146   3.13412   3.13516
  Beta virt. eigenvalues --    3.13796   3.14097   3.14255   3.14659   3.14986
  Beta virt. eigenvalues --    3.15155   3.15369   3.15576   3.15975   3.16602
  Beta virt. eigenvalues --    3.16734   3.16864   3.17320   3.17703   3.18025
  Beta virt. eigenvalues --    3.18497   3.18806   3.18983   3.19358   3.19604
  Beta virt. eigenvalues --    3.19932   3.20180   3.20522   3.20936   3.21122
  Beta virt. eigenvalues --    3.21400   3.21604   3.22050   3.22100   3.22525
  Beta virt. eigenvalues --    3.22622   3.22771   3.23120   3.23465   3.23967
  Beta virt. eigenvalues --    3.24258   3.24353   3.24436   3.24755   3.25026
  Beta virt. eigenvalues --    3.25556   3.25961   3.26033   3.26226   3.26966
  Beta virt. eigenvalues --    3.27089   3.27184   3.27384   3.27733   3.28127
  Beta virt. eigenvalues --    3.28255   3.28573   3.28894   3.29037   3.29377
  Beta virt. eigenvalues --    3.29918   3.30208   3.30480   3.31152   3.31500
  Beta virt. eigenvalues --    3.32072   3.32244   3.32542   3.32902   3.33302
  Beta virt. eigenvalues --    3.33582   3.33966   3.35035   3.35397   3.35820
  Beta virt. eigenvalues --    3.36279   3.36524   3.36865   3.37405   3.37469
  Beta virt. eigenvalues --    3.38049   3.38164   3.38602   3.39195   3.39490
  Beta virt. eigenvalues --    3.39705   3.40544   3.41330   3.41659   3.41691
  Beta virt. eigenvalues --    3.42104   3.43416   3.43893   3.44009   3.44246
  Beta virt. eigenvalues --    3.45081   3.45318   3.45942   3.46693   3.46818
  Beta virt. eigenvalues --    3.47403   3.48496   3.48846   3.48969   3.49623
  Beta virt. eigenvalues --    3.49853   3.50153   3.50716   3.50815   3.51195
  Beta virt. eigenvalues --    3.51707   3.52331   3.53205   3.53450   3.53844
  Beta virt. eigenvalues --    3.54268   3.54682   3.55128   3.56520   3.56710
  Beta virt. eigenvalues --    3.57032   3.57527   3.57630   3.57962   3.59299
  Beta virt. eigenvalues --    3.59652   3.59937   3.60454   3.60680   3.60990
  Beta virt. eigenvalues --    3.61360   3.61584   3.62137   3.62454   3.63061
  Beta virt. eigenvalues --    3.63344   3.63891   3.64320   3.64447   3.64833
  Beta virt. eigenvalues --    3.65111   3.65785   3.66369   3.66825   3.67292
  Beta virt. eigenvalues --    3.67911   3.68654   3.69258   3.69703   3.70105
  Beta virt. eigenvalues --    3.70834   3.71689   3.71757   3.72401   3.72763
  Beta virt. eigenvalues --    3.73820   3.74428   3.74941   3.75270   3.75738
  Beta virt. eigenvalues --    3.76043   3.76266   3.77332   3.77733   3.78260
  Beta virt. eigenvalues --    3.78728   3.79090   3.79255   3.79970   3.81103
  Beta virt. eigenvalues --    3.81508   3.82037   3.82414   3.82737   3.83079
  Beta virt. eigenvalues --    3.83557   3.84386   3.86523   3.86864   3.88337
  Beta virt. eigenvalues --    3.88529   3.88785   3.89228   3.89499   3.89938
  Beta virt. eigenvalues --    3.90796   3.91453   3.92051   3.92631   3.93068
  Beta virt. eigenvalues --    3.93313   3.94082   3.94568   3.95064   3.95938
  Beta virt. eigenvalues --    3.96437   3.96919   3.97340   3.98847   3.99636
  Beta virt. eigenvalues --    4.00268   4.00690   4.01327   4.01501   4.02110
  Beta virt. eigenvalues --    4.03182   4.03514   4.04264   4.04832   4.05295
  Beta virt. eigenvalues --    4.06013   4.06929   4.07154   4.07905   4.08282
  Beta virt. eigenvalues --    4.08920   4.09094   4.09575   4.10327   4.11767
  Beta virt. eigenvalues --    4.11836   4.12836   4.13214   4.13511   4.14327
  Beta virt. eigenvalues --    4.14461   4.14639   4.15299   4.15793   4.16000
[...]
                                                    1481(v)
   139. CR (   1) N  68                  0.99969   -14.34522  1284(v),1310(v),1278(v)
                                                    1479(v)
   140. CR (   1) C  70                  0.99958   -10.21005  1483(g),1367(v),1489(v)
                                                    1255(v)
   141. CR (   1) C  71                  0.99970   -10.25709  1339(v),1335(v),1480(v)
                                                    1255(v),148(r),146(r),147(r)
   142. CR (   1) N  73                  0.99969   -14.30099  148(r),151(r),146(r),1308(v)
                                                    1365(v),147(r),150(r),149(r)
                                                    166(r),165(r),172(r),1396(r)
                                                    164(r)
   143. CR (   1) C  74                  0.99950   -10.18603  1282(v),1479(v),1483(g)
                                                    1340(v),1392(v),148(r)
                                                    146(r),149(r)
   157. LP (   1) N  68                  0.77250    -0.40228  1487(v),1484(v),1311(v)
                                                    1283(v),1277(v)
   158. LP (   1) N  73                  0.82746    -0.53754  148(r),146(r),151(r),147(r)
                                                    149(r),1482(v),1483(v)
                                                    1308(v),1365(v),1485(v)
                                                    1489(v),150(r),1486(g)
                                                    1488(g),1342(g),164(r)
                                                    1396(r),178(r),179(r),241(r)
                                                    189(r),267(r),215(r),266(r)
                                                    214(r),1398(r),188(r)
                                                    1407(r),1405(r),240(r)
                                                    1400(r),1402(r),1403(r)
                                                    1399(r),1397(r),264(r)
                                                    1404(r),213(r),166(r),175(r)
                                                    212(r)
  1210. RY*(   1) C  64                  0.00062     1.24275   
  1211. RY*(   2) C  64                  0.00029     1.24769   
  1212. RY*(   3) C  64                  0.00024     1.24911   
  1213. RY*(   4) C  64                  0.00009     1.08325   
  1214. RY*(   5) C  64                  0.00007     1.06651   
  1215. RY*(   6) C  64                  0.00004     1.79129   
  1216. RY*(   7) C  64                  0.00003     1.00357   
  1217. RY*(   8) C  64                  0.00002     1.43678   
  1218. RY*(   9) C  64                  0.00002     1.89497   
  1219. RY*(  10) C  64                  0.00000     1.55640   
  1220. RY*(  11) C  64                  0.00000     3.16360   
  1221. RY*(  12) C  64                  0.00000    21.56616   
  1222. RY*(  13) C  64                  0.00000     2.93455   
  1223. RY*(  14) C  64                  0.00000     1.53178   
  1224. RY*(  15) C  64                  0.00000     2.71723   
  1225. RY*(  16) C  64                  0.00000     1.46648   
  1226. RY*(  17) C  64                  0.00000     3.01574   
  1227. RY*(  18) C  64                  0.00001     1.69452   
  1228. RY*(  19) C  64                  0.00000     2.64136   
  1229. RY*(  20) C  64                  0.00000     3.24639   
  1230. RY*(  21) C  64                  0.00000     3.05846   
  1231. RY*(  22) C  64                  0.00000     3.11936   
  1232. RY*(  23) C  64                  0.00000     3.30554   
  1233. RY*(  24) C  64                  0.00000     3.61865   
  1234. RY*(  25) C  64                  0.00000     3.22870   
  1235. RY*(  26) C  64                  0.00000     3.34826   
  1236. RY*(   1) H  65                  0.00025     0.79891   
  1237. RY*(   2) H  65                  0.00010     1.66813   
  1238. RY*(   3) H  65                  0.00005     2.07613   
  1239. RY*(   4) H  65                  0.00002     2.52744   
  1240. RY*(   5) H  65                  0.00002     2.51290   
  1241. RY*(   1) H  66                  0.00010     1.97217   
  1242. RY*(   2) H  66                  0.00006     2.06889   
  1243. RY*(   3) H  66                  0.00005     0.55261   
  1244. RY*(   4) H  66                  0.00003     2.24959   
  1245. RY*(   5) H  66                  0.00000     2.83560   
  1246. RY*(   1) H  67                  0.00024     0.82564   
  1247. RY*(   2) H  67                  0.00010     1.65249   
  1248. RY*(   3) H  67                  0.00005     2.07505   
  1249. RY*(   4) H  67                  0.00002     2.55495   
  1250. RY*(   5) H  67                  0.00002     2.48143   
  1251. RY*(   1) N  68                  0.00118     0.62272   
  1252. RY*(   2) N  68                  0.00112     1.63304   
  1253. RY*(   3) N  68                  0.00044     1.99525   
  1254. RY*(   4) N  68                  0.00030     2.09689   
  1255. RY*(   5) N  68                  0.00026     0.96802   
  1256. RY*(   6) N  68                  0.00013     1.74766   
  1257. RY*(   7) N  68                  0.00012     1.78480   
  1258. RY*(   8) N  68                  0.00003     2.99917   
  1259. RY*(   9) N  68                  0.00003     2.17885   
  1260. RY*(  10) N  68                  0.00003     3.34304   
  1261. RY*(  11) N  68                  0.00003     2.45514   
  1262. RY*(  12) N  68                  0.00000    30.54965   
  1263. RY*(  13) N  68                  0.00000     4.04142   
  1264. RY*(  14) N  68                  0.00000     2.43290   
  1265. RY*(  15) N  68                  0.00000     3.49268   
  1266. RY*(  16) N  68                  0.00000     2.05740   
  1267. RY*(  17) N  68                  0.00000     4.15673   
  1268. RY*(  18) N  68                  0.00000     3.99500   
  1269. RY*(  19) N  68                  0.00000     3.85731   
  1270. RY*(  20) N  68                  0.00000     4.51914   
  1271. RY*(  21) N  68                  0.00000     4.29161   
  1272. RY*(  22) N  68                  0.00000     4.28343   
  1273. RY*(  23) N  68                  0.00000     4.15643   
  1274. RY*(  24) N  68                  0.00000     4.36190   
  1275. RY*(  25) N  68                  0.00000     4.30871   
  1276. RY*(  26) N  68                  0.00000     4.35546   
  1277. RY*(   1) H  69                  0.00026     2.04924   
  1278. RY*(   2) H  69                  0.00020     2.03244   
  1279. RY*(   3) H  69                  0.00010     2.54366   
  1280. RY*(   4) H  69                  0.00010     0.80655   
  1281. RY*(   5) H  69                  0.00000     2.95494   
  1282. RY*(   1) C  70                  0.00212     1.57439   
  1283. RY*(   2) C  70                  0.00106     1.03761   
  1284. RY*(   3) C  70                  0.00095     1.22911   
  1285. RY*(   4) C  70                  0.00082     2.08394   
  1286. RY*(   5) C  70                  0.00063     1.91393   
  1287. RY*(   6) C  70                  0.00043     1.90331   
  1288. RY*(   7) C  70                  0.00019     2.62289   
  1289. RY*(   8) C  70                  0.00016     1.80897   
  1290. RY*(   9) C  70                  0.00007     2.70625   
  1291. RY*(  10) C  70                  0.00004     3.10447   
  1292. RY*(  11) C  70                  0.00004     2.93770   
  1293. RY*(  12) C  70                  0.00000     1.42779   
  1294. RY*(  13) C  70                  0.00001     4.84055   
  1295. RY*(  14) C  70                  0.00000     2.11757   
  1296. RY*(  15) C  70                  0.00000     2.49492   
  1297. RY*(  16) C  70                  0.00000     1.09419   
  1298. RY*(  17) C  70                  0.00001     1.83730   
  1299. RY*(  18) C  70                  0.00000    18.23566   
  1300. RY*(  19) C  70                  0.00000     3.43435   
  1301. RY*(  20) C  70                  0.00000     3.59109   
  1302. RY*(  21) C  70                  0.00001     3.31189   
  1303. RY*(  22) C  70                  0.00000     3.51717   
  1304. RY*(  23) C  70                  0.00000     3.36032   
  1305. RY*(  24) C  70                  0.00000     3.69370   
  1306. RY*(  25) C  70                  0.00000     3.39854   
  1307. RY*(  26) C  70                  0.00000     3.39749   
  1308. RY*(   1) C  71                  0.00209     1.46957   
  1309. RY*(   2) C  71                  0.00155     0.69079   
  1310. RY*(   3) C  71                  0.00101     1.23229   
  1311. RY*(   4) C  71                  0.00065     2.25485   
  1312. RY*(   5) C  71                  0.00047     1.25120   
  1313. RY*(   6) C  71                  0.00022     1.72698   
  1314. RY*(   7) C  71                  0.00014     1.53354   
  1315. RY*(   8) C  71                  0.00005     2.77438   
  1316. RY*(   9) C  71                  0.00003     1.84048   
  1317. RY*(  10) C  71                  0.00003     3.36969   
  1318. RY*(  11) C  71                  0.00000     2.50476   
  1319. RY*(  12) C  71                  0.00001     1.44486   
  1320. RY*(  13) C  71                  0.00001     2.57611   
  1321. RY*(  14) C  71                  0.00000    21.41418   
  1322. RY*(  15) C  71                  0.00001     2.45425   
  1323. RY*(  16) C  71                  0.00000     2.82503   
  1324. RY*(  17) C  71                  0.00000     2.09995   
  1325. RY*(  18) C  71                  0.00000     3.44007   
  1326. RY*(  19) C  71                  0.00000     2.60192   
  1327. RY*(  20) C  71                  0.00000     3.86948   
  1328. RY*(  21) C  71                  0.00000     3.71571   
  1329. RY*(  22) C  71                  0.00000     3.52772   
  1330. RY*(  23) C  71                  0.00000     3.44290   
  1331. RY*(  24) C  71                  0.00000     3.45784   
  1332. RY*(  25) C  71                  0.00000     3.15024   
  1333. RY*(  26) C  71                  0.00000     3.54952   
  1334. RY*(   1) H  72                  0.00030     0.65956   
  1335. RY*(   2) H  72                  0.00011     2.21247   
  1336. RY*(   3) H  72                  0.00010     1.92020   
  1337. RY*(   4) H  72                  0.00005     2.25781   
  1338. RY*(   5) H  72                  0.00001     2.99072   
  1339. RY*(   1) N  73                  0.00318     1.43593   
  1340. RY*(   2) N  73                  0.00291     1.24765   
  1341. RY*(   3) N  73                  0.00110     0.84436   
  1342. RY*(   4) N  73                  0.00104     1.12516   
  1343. RY*(   5) N  73                  0.00027     2.78259   
  1344. RY*(   6) N  73                  0.00022     1.96823   
  1345. RY*(   7) N  73                  0.00016     3.00428   
  1346. RY*(   8) N  73                  0.00007     1.45264   
  1347. RY*(   9) N  73                  0.00006     3.07860   
  1348. RY*(  10) N  73                  0.00004     2.33458   
  1349. RY*(  11) N  73                  0.00003     2.83593   
  1350. RY*(  12) N  73                  0.00003     3.24339   
  1351. RY*(  13) N  73                  0.00001     4.44091   
  1352. RY*(  14) N  73                  0.00001     3.94232   
  1353. RY*(  15) N  73                  0.00000     4.43410   
  1354. RY*(  16) N  73                  0.00001     3.90199   
  1355. RY*(  17) N  73                  0.00001     3.11925   
  1356. RY*(  18) N  73                  0.00000    31.18271   
  1357. RY*(  19) N  73                  0.00001     3.49985   
  1358. RY*(  20) N  73                  0.00000     4.20774   
  1359. RY*(  21) N  73                  0.00001     4.58076   
  1360. RY*(  22) N  73                  0.00000     4.18817   
  1361. RY*(  23) N  73                  0.00000     4.51081   
  1362. RY*(  24) N  73                  0.00000     4.38614   
  1363. RY*(  25) N  73                  0.00000     4.37129   
  1364. RY*(  26) N  73                  0.00000     4.56054   
  1365. RY*(   1) C  74                  0.00184     1.54987   
  1366. RY*(   2) C  74                  0.00119     0.62664   
  1367. RY*(   3) C  74                  0.00096     1.58841   
  1368. RY*(   4) C  74                  0.00036     2.03828   
  1369. RY*(   5) C  74                  0.00029     1.53579   
  1370. RY*(   6) C  74                  0.00021     1.68224   
  1371. RY*(   7) C  74                  0.00021     1.68249   
  1372. RY*(   8) C  74                  0.00013     1.60132   
  1373. RY*(   9) C  74                  0.00008     1.44540   
  1374. RY*(  10) C  74                  0.00008     1.70311   
  1375. RY*(  11) C  74                  0.00005     2.28802   
  1376. RY*(  12) C  74                  0.00003     2.74774   
  1377. RY*(  13) C  74                  0.00001     2.77220   
  1378. RY*(  14) C  74                  0.00001     1.49013   
  1379. RY*(  15) C  74                  0.00001     2.37478   
  1380. RY*(  16) C  74                  0.00001     1.55950   
  1381. RY*(  17) C  74                  0.00000     2.97261   
  1382. RY*(  18) C  74                  0.00000     3.52009   
  1383. RY*(  19) C  74                  0.00000    20.86733   
  1384. RY*(  20) C  74                  0.00000     3.78544   
  1385. RY*(  21) C  74                  0.00000     3.72075   
  1386. RY*(  22) C  74                  0.00000     3.53037   
  1387. RY*(  23) C  74                  0.00000     3.33728   
  1388. RY*(  24) C  74                  0.00000     3.62489   
  1389. RY*(  25) C  74                  0.00000     3.25474   
  1390. RY*(  26) C  74                  0.00000     3.49832   
  1391. RY*(   1) H  75                  0.00034     0.80963   
  1392. RY*(   2) H  75                  0.00012     2.14252   
  1393. RY*(   3) H  75                  0.00011     2.14588   
  1394. RY*(   4) H  75                  0.00003     2.56056   
  1395. RY*(   5) H  75                  0.00001     2.99230   
  1476. BD*(   1) C  64 - H  65          0.00493     0.26542   
  1477. BD*(   1) C  64 - H  66          0.00153     0.27695   
  1478. BD*(   1) C  64 - H  67          0.00483     0.26533   
  1479. BD*(   1) C  64 - C  70          0.00614     0.28209   
  1480. BD*(   1) N  68 - H  69          0.00645     0.25677   
  1481. BD*(   1) N  68 - C  70          0.01375     0.31079   
  1482. BD*(   1) N  68 - C  71          0.01063     0.31671   
  1483. BD*(   1) C  70 - C  74          0.01052     0.44372   
  1484. BD*(   2) C  70 - C  74          0.13515    -0.08553  1487(v),1476(v),1478(v)
  1485. BD*(   1) C  71 - H  72          0.00818     0.26013   
  1486. BD*(   1) C  71 - N  73          0.00760     0.39728   
  1487. BD*(   2) C  71 - N  73          0.22332    -0.14194  1484(v),1309(g),150(r)
                                                    1396(r),1341(g),151(r)
                                                    148(r)
  1488. BD*(   1) N  73 - C  74          0.00776     0.34442   
  1489. BD*(   1) C  74 - H  75          0.00674     0.30359   
       -------------------------------
              Total Lewis   21.33753  ( 97.7862%)
        Valence non-Lewis    0.44753  (  2.0509%)
        Rydberg non-Lewis    0.03553  (  0.1628%)
       -------------------------------
            Total unit  2   21.82059  (100.0000%)
           Charge unit  2    0.17941
 Unable to Open any file for archive entry.
 1\1\GINC-BGN1032\SP\UAPFD\def2TZVP\C34H34Fe1N6(1+,2)\BECSLEIP\14-Oct-2
 024\0\\# apfd/def2TZVP guess=read scf=maxcycle=999 geom=check pop=nbo\
 \5mfa_III_D\\1,2\Fe,0,-22.2955362383,-1.8188196547,4.720823076\N,0,-20
 .445661327,-0.9294846256,4.7834974246\N,0,-21.4408164715,-3.2354089253
 ,3.5363739903\N,0,-24.1044292995,-2.3579060111,3.9484798223\N,0,-23.09
 93231441,-0.034153893,5.1621214502\C,0,-20.1457752133,0.232989382,5.42
 68795302\C,0,-18.7200116121,0.3736111409,5.6112097471\C,0,-18.15293349
 26,-0.7154022245,5.0240318319\C,0,-19.2431236619,-1.5005455427,4.49191
 55284\C,0,-20.1169463236,-3.4357975959,3.2697108287\C,0,-19.9226542154
 ,-4.5693668852,2.4033377045\C,0,-21.1675841979,-5.08176789,2.157465230
 7\C,0,-22.0986773503,-4.2378040089,2.8825133216\C,0,-24.3974146947,-3.
 5957493309,3.4559298801\C,0,-25.806280339,-3.8710273639,3.5405273414\C
 ,0,-26.3840213208,-2.7486460944,4.0776553895\C,0,-25.2983633804,-1.825
 6923499,4.3293564133\C,0,-24.4140899767,0.3277765267,5.0941297307\C,0,
 -24.5874445349,1.7270658241,5.4077352726\C,0,-23.3473443755,2.21051533
 63,5.6844513604\C,0,-22.4315377075,1.1024323344,5.5208567839\C,0,-21.0
 744887413,1.2006352939,5.764154982\H,0,-20.7047732333,2.1300268708,6.1
 703370442\C,0,-19.0802907433,-2.6693796302,3.7751229968\H,0,-18.071214
 4493,-2.9775771496,3.5474632508\C,0,-23.4633059455,-4.4485056759,2.889
 9570922\H,0,-23.8346445623,-5.3380952514,2.4038898442\C,0,-25.45645189
 9,-0.5320347166,4.7983178821\H,0,-26.4621117396,-0.1562621885,4.912659
 219\C,0,-16.7135708725,-1.0763312035,4.892317144\H,0,-16.5315843812,-2
 .0763850018,5.2854969275\H,0,-16.0870209036,-0.3732799243,5.4356081011
 \H,0,-16.4111077156,-1.0645920603,3.8447823959\C,0,-18.07059119,1.5262
 053136,6.2968838724\H,0,-18.4862639661,1.6644238345,7.2950141394\H,0,-
 18.2326092016,2.4458237728,5.7335673871\H,0,-16.9988299116,1.368104030
 4,6.3885101766\C,0,-18.6027065559,-5.0839932842,1.9470184845\H,0,-17.8
 690391683,-5.0319306494,2.7502966288\H,0,-18.2261178064,-4.4968712754,
 1.1080553499\H,0,-18.69680759,-6.1198144684,1.6277592354\C,0,-21.54076
 63699,-6.225954594,1.3539299529\H,0,-22.3849647492,-6.8007636009,1.717
 3642813\C,0,-20.9400526604,-6.6052707354,0.2312227983\H,0,-21.25944106
 49,-7.4795080635,-0.3115261425\H,0,-20.130059972,-6.044845484,-0.20221
 44286\C,0,-26.4496910691,-5.1571232658,3.1554921799\H,0,-25.8042298031
 ,-5.9992494148,3.4009805106\H,0,-26.6490715306,-5.1860570073,2.0829954
 756\H,0,-27.3939478977,-5.2750758495,3.6829747778\C,0,-27.7715304615,-
 2.4845204795,4.3885889155\H,0,-27.9415246013,-1.8380444112,5.241800092
 4\C,0,-28.8169053368,-2.9533873606,3.7151340464\H,0,-28.7064549588,-3.
 5578030698,2.8321291055\H,0,-29.8267554496,-2.7208759761,4.0107430719\
 C,0,-25.8998197519,2.4318680981,5.4005779415\H,0,-26.5544004414,2.0300
 949832,6.1757095607\H,0,-26.3966022011,2.3041995195,4.4389013642\H,0,-
 25.768739228,3.4961160223,5.58234481\C,0,-22.9341508584,3.5939600298,6
 .0529795245\H,0,-22.4935087897,3.6108593188,7.0502758773\H,0,-23.78811
 6795,4.2664866966,6.0464547474\H,0,-22.1930966975,3.9721733215,5.34932
 94147\C,0,-23.1233436987,-5.5235382312,8.8172614617\H,0,-22.2514339601
 ,-5.9342629561,9.32612802\H,0,-23.5198693129,-6.2766052793,8.143688404
 4\H,0,-23.8791062814,-5.2934873349,9.5679485007\N,0,-22.2497980673,-3.
 184131134,8.6410802135\H,0,-22.0733278063,-3.0686541796,9.6254576088\C
 ,0,-22.7601023662,-4.3077434056,8.046554241\C,0,-22.0308990948,-2.2682
 111052,7.6686544255\H,0,-21.6325588692,-1.2888506359,7.8420909942\N,0,
 -22.3715254788,-2.7432682912,6.4912734812\C,0,-22.8267971972,-4.014392
 5944,6.7147472446\H,0,-23.1699077259,-4.6251183148,5.903713715\\Versio
 n=ES64L-G16RevC.02\State=2-A\HF=-2907.3986448\S2=1.169238\S2-1=0.\S2A=
 0.769089\RMSD=1.140e-09\Dipole=0.2797684,-0.5596109,2.6572275\Quadrupo
 le=3.8636253,0.7973983,-4.6610235,3.4982594,0.0649432,8.9478604\PG=C01
  [X(C34H34Fe1N6)]\\@
 The archive entry for this job was punched.


 ORIGINALITY CONSISTS NOT IN SAYING WHAT NO ONE HAS EVER SAID BEFORE, 
 BUT IN SAYING WHAT YOU THINK YOUR SELF.

                                    -- JAMES F. STEPHEN
 Job cpu time:       1 days  4 hours 21 minutes  6.0 seconds.
 Elapsed time:       0 days  0 hours 26 minutes 26.8 seconds.
 File lengths (MBytes):  RWF=   2047 Int=      0 D2E=      0 Chk=    186 Scr=      1
 Normal termination of Gaussian 16 at Mon Oct 14 06:46:51 2024.
