 Entering Gaussian System, Link 0=g16
 Input=5nvi05re.com
 Output=5nvi05re.log
 Initial command:
 /sw/chem/gaussian/g16_C02/a100/g16/l1.exe "/local/becsleip_8046342/Gau-324957.inp" -scrdir="/local/becsleip_8046342/"
 Entering Link 1 = /sw/chem/gaussian/g16_C02/a100/g16/l1.exe PID=    324958.
  
 Copyright (c) 1988-2021, Gaussian, Inc.  All Rights Reserved.
  
 This is part of the Gaussian(R) 16 program.  It is based on
 the Gaussian(R) 09 system (copyright 2009, Gaussian, Inc.),
 the Gaussian(R) 03 system (copyright 2003, Gaussian, Inc.),
 the Gaussian(R) 98 system (copyright 1998, Gaussian, Inc.),
 the Gaussian(R) 94 system (copyright 1995, Gaussian, Inc.),
 the Gaussian 92(TM) system (copyright 1992, Gaussian, Inc.),
 the Gaussian 90(TM) system (copyright 1990, Gaussian, Inc.),
 the Gaussian 88(TM) system (copyright 1988, Gaussian, Inc.),
 the Gaussian 86(TM) system (copyright 1986, Carnegie Mellon
 University), and the Gaussian 82(TM) system (copyright 1983,
 Carnegie Mellon University). Gaussian is a federally registered
 trademark of Gaussian, Inc.
  
 This software contains proprietary and confidential information,
 including trade secrets, belonging to Gaussian, Inc.
  
 This software is provided under written license and may be
 used, copied, transmitted, or stored only in accord with that
 written license.
  
 The following legend is applicable only to US Government
 contracts under FAR:
  
                    RESTRICTED RIGHTS LEGEND
  
 Use, reproduction and disclosure by the US Government is
 subject to restrictions as set forth in subparagraphs (a)
 and (c) of the Commercial Computer Software - Restricted
 Rights clause in FAR 52.227-19.
  
 Gaussian, Inc.
 340 Quinnipiac St., Bldg. 40, Wallingford CT 06492
  
  
 ---------------------------------------------------------------
 Warning -- This program may not be used in any manner that
 competes with the business of Gaussian, Inc. or will provide
 assistance to any competitor of Gaussian, Inc.  The licensee
 of this program is prohibited from giving any competitor of
 Gaussian, Inc. access to this program.  By using this program,
 the user acknowledges that Gaussian, Inc. is engaged in the
 business of creating and licensing software in the field of
 computational chemistry and represents and warrants to the
 licensee that it is not a competitor of Gaussian, Inc. and that
 it will not use this program in any manner prohibited above.
 ---------------------------------------------------------------
  

 Cite this work as:
 Gaussian 16, Revision C.02,
 M. J. Frisch, G. W. Trucks, H. B. Schlegel, G. E. Scuseria, 
 M. A. Robb, J. R. Cheeseman, G. Scalmani, V. Barone, 
 G. A. Petersson, H. Nakatsuji, X. Li, M. Caricato, A. V. Marenich, 
 J. Bloino, B. G. Janesko, R. Gomperts, B. Mennucci, H. P. Hratchian, 
 J. V. Ortiz, A. F. Izmaylov, J. L. Sonnenberg, D. Williams-Young, 
 F. Ding, F. Lipparini, F. Egidi, J. Goings, B. Peng, A. Petrone, 
 T. Henderson, D. Ranasinghe, V. G. Zakrzewski, J. Gao, N. Rega, 
 G. Zheng, W. Liang, M. Hada, M. Ehara, K. Toyota, R. Fukuda, 
 J. Hasegawa, M. Ishida, T. Nakajima, Y. Honda, O. Kitao, H. Nakai, 
 T. Vreven, K. Throssell, J. A. Montgomery, Jr., J. E. Peralta, 
 F. Ogliaro, M. J. Bearpark, J. J. Heyd, E. N. Brothers, K. N. Kudin, 
 V. N. Staroverov, T. A. Keith, R. Kobayashi, J. Normand, 
 K. Raghavachari, A. P. Rendell, J. C. Burant, S. S. Iyengar, 
 J. Tomasi, M. Cossi, J. M. Millam, M. Klene, C. Adamo, R. Cammi, 
 J. W. Ochterski, R. L. Martin, K. Morokuma, O. Farkas, 
 J. B. Foresman, and D. J. Fox, Gaussian, Inc., Wallingford CT, 2019.
 
 ******************************************
 Gaussian 16:  ES64L-G16RevC.02  7-Dec-2021
                12-Oct-2024 
 ******************************************
 %mem=16GB
 %CPU=0-71
 SetSPE:  set environment variable "OMP_PROC_BIND" = "true"
 SetSPE:  set environment variable "OMP_PLACES" = "{0},{1},{2},{3},{4},{5},{6},{7},{8},{9},{10},{11},{12},{13},{14},{15},{16},{17},{18},{19},{20},{21},{22},{23},{24},{25},{26},{27},{28},{29},{30},{31},{32},{33},{34},{35},{36},{37},{38},{39},{40},{41},{42},{43},{44},{45},{46},{47},{48},{49},{50},{51},{52},{53},{54},{55},{56},{57},{58},{59},{60},{61},{62},{63},{64},{65},{66},{67},{68},{69},{70},{71}"
 Will use up to   72 processors via shared memory.
 %gpucpu=0,1,2,3=0,1,2,3
 Will use    4 GPUs:
 Thread  CPU   GPU
      0    0     0
      1    1     1
      2    2     2
      3    3     3
      4    4    -1
      5    5    -1
      6    6    -1
      7    7    -1
      8    8    -1
      9    9    -1
     10   10    -1
     11   11    -1
     12   12    -1
     13   13    -1
     14   14    -1
     15   15    -1
     16   16    -1
     17   17    -1
     18   18    -1
     19   19    -1
     20   20    -1
     21   21    -1
     22   22    -1
     23   23    -1
     24   24    -1
     25   25    -1
     26   26    -1
     27   27    -1
     28   28    -1
     29   29    -1
     30   30    -1
     31   31    -1
     32   32    -1
     33   33    -1
     34   34    -1
     35   35    -1
     36   36    -1
     37   37    -1
     38   38    -1
     39   39    -1
     40   40    -1
     41   41    -1
     42   42    -1
     43   43    -1
     44   44    -1
     45   45    -1
     46   46    -1
     47   47    -1
     48   48    -1
     49   49    -1
     50   50    -1
     51   51    -1
     52   52    -1
     53   53    -1
     54   54    -1
     55   55    -1
     56   56    -1
     57   57    -1
     58   58    -1
     59   59    -1
     60   60    -1
     61   61    -1
     62   62    -1
     63   63    -1
     64   64    -1
     65   65    -1
     66   66    -1
     67   67    -1
     68   68    -1
     69   69    -1
     70   70    -1
     71   71    -1
 SetGPE:  set environment variable "OMP_PROC_BIND" = "true"
 SetGPE:  set environment variable "OMP_PLACES" = "{0},{1},{2},{3},{4},{5},{6},{7},{8},{9},{10},{11},{12},{13},{14},{15},{16},{17},{18},{19},{20},{21},{22},{23},{24},{25},{26},{27},{28},{29},{30},{31},{32},{33},{34},{35},{36},{37},{38},{39},{40},{41},{42},{43},{44},{45},{46},{47},{48},{49},{50},{51},{52},{53},{54},{55},{56},{57},{58},{59},{60},{61},{62},{63},{64},{65},{66},{67},{68},{69},{70},{71}"
 %oldchk=5nvi_II_S.chk
 %chk=5nvi_II_Sre.chk
 Properties for Device   0
 Minimum vector length:                              32
 Maximum vector length:                            1024
 Number of SMPs:                                    108
 Maximum number of threads per SMP:                2048
 Number of ASync Engines:                             5
 Memory:                                           9207742464
 Properties for Device   1
 Minimum vector length:                              32
 Maximum vector length:                            1024
 Number of SMPs:                                    108
 Maximum number of threads per SMP:                2048
 Number of ASync Engines:                             5
 Memory:                                           9207742464
 Properties for Device   2
 Minimum vector length:                              32
 Maximum vector length:                            1024
 Number of SMPs:                                    108
 Maximum number of threads per SMP:                2048
 Number of ASync Engines:                             5
 Memory:                                           9207742464
 Properties for Device   3
 Minimum vector length:                              32
 Maximum vector length:                            1024
 Number of SMPs:                                    108
 Maximum number of threads per SMP:                2048
 Number of ASync Engines:                             5
 Memory:                                           9207742464
   8286968217 words of memory will be used on each GPU.
 Copying data from "5nvi_II_S.chk" to current chk file "5nvi_II_Sre.chk"
 IOpt=  2 FromEx=T IUOpen= 4 IOptOp= 5 NList=   0 IFRang= 0 IUIn= 4 IUOut= 2.
 --------------------------------------
 # apfd/gen scf=maxcycle=999 geom=check
 --------------------------------------
 1/29=2,38=1,172=1/1;
 2/12=2,40=1/2;
 3/5=7,11=2,14=-4,25=1,30=1,74=-44/1,2,3;
 4//1;
 5/5=2,7=999,38=5/2;
 6/7=2,8=2,9=2,10=2,28=1/1;
 99/5=1,9=1/99;
 ---------
 5nvi_II_Q
 ---------
 Structure from the checkpoint file:  "5nvi_II_Sre.chk"
 Charge =  0 Multiplicity = 5
 Z-Matrix found in chk file.
 Fe,0,17.7996372228,56.162756154,36.0248220621
 N,0,17.4387824416,58.1347947031,35.9427681497
 N,0,15.921646892,55.8003194785,35.4059154524
 N,0,18.12235312,54.1879217959,36.1917846547
 N,0,19.6548353211,56.5247308108,36.6667885908
 C,0,18.2943620321,59.1310877288,36.2825362949
 C,0,17.7143758924,60.4250390752,35.9902933939
 C,0,16.4802279319,60.1818633684,35.4746287026
 C,0,16.3275618161,58.7424366712,35.4512569741
 C,0,14.9966245591,56.7223779394,35.02749713
 C,0,13.7456658888,56.0885579216,34.6981663715
 C,0,13.9271823046,54.7458647703,34.9076528212
 C,0,15.3028258754,54.5929926868,35.3452176874
 C,0,17.2021624213,53.1968647753,36.0497607057
 C,0,17.7874832021,51.9130712239,36.3367875931
 C,0,19.103381193,52.1496048067,36.6420538559
 C,0,19.2899730344,53.5822882707,36.5215029199
 C,0,20.6357516537,55.6083458658,36.8776881939
 C,0,21.855045865,56.257152819,37.3102367369
 C,0,21.5876094404,57.5898275335,37.3415207874
 C,0,20.2093293962,57.7373466664,36.9251878326
 C,0,19.5788966098,58.9578278563,36.7674816324
 H,0,20.1453996161,59.8463277665,37.004041915
 C,0,15.190755007,58.0951535638,35.011572861
 H,0,14.3735138818,58.7109668199,34.666995122
 C,0,15.8854342533,53.379737359,35.6582094857
 H,0,15.2644464466,52.4979293607,35.6025893349
 C,0,20.4745192588,54.2362742733,36.8183892216
 H,0,21.3334293887,53.6253709981,37.0545250868
 C,0,15.4479089903,61.1480663698,35.0020451361
 H,0,15.2353107088,60.9968090465,33.9433749234
 H,0,15.7851436692,62.172670409,35.139459012
 H,0,14.5173888996,61.0167093668,35.5551366975
 C,0,18.3897004581,61.7295810625,36.2453538984
 H,0,19.2710151243,61.837986928,35.6119673661
 H,0,18.7111875947,61.7974643681,37.2845405784
 H,0,17.7180253242,62.5594416604,36.0402078593
 C,0,12.5389561147,56.7866942927,34.1729430251
 H,0,12.8208443096,57.6625165967,33.5923346395
 H,0,11.8915868332,57.1164996328,34.9872061588
 H,0,11.9679623156,56.1153977693,33.5345903917
 C,0,12.9942498448,53.6579971973,34.7220418921
 H,0,13.4361217997,52.7041342806,34.4564705283
 C,0,11.673285346,53.7356661591,34.854794328
 H,0,11.1815717454,54.64135803,35.1631265557
 H,0,11.0368698769,52.8821133097,34.6869055065
 C,0,17.0824069361,50.6047963341,36.2346423051
 H,0,16.4603929764,50.5719030456,35.3409176119
 H,0,16.4362649432,50.4414306028,37.0982653561
 H,0,17.8042499954,49.7927123213,36.1844830515
 C,0,20.1462547515,51.2107462125,36.9917703735
 H,0,21.1388420494,51.4603680588,36.6337856699
 C,0,19.9854584574,50.104256385,37.7108478132
 H,0,19.0357170279,49.8272486975,38.1343852764
 H,0,20.8111663424,49.4441782714,37.9212258567
 C,0,23.1196047139,55.537646944,37.637226521
 H,0,23.4264275152,54.9066638497,36.8033073831
 H,0,22.9845268187,54.8988814347,38.5111842659
 H,0,23.9220379932,56.2400650678,37.8493711171
 C,0,22.4779130873,58.7245477711,37.7197807168
 H,0,22.5564741447,59.4392081888,36.9008951084
 H,0,23.4767810001,58.3701997981,37.9626433989
 H,0,22.0797463086,59.2503497235,38.5885599602
 C,0,20.2643746321,57.3764284789,31.1695715275
 H,0,20.6718067338,58.3133894739,31.5357390249
 H,0,19.6319651231,57.5841498096,30.3063082812
 H,0,21.0875772242,56.7409645614,30.8436278414
 N,0,18.8457461447,55.5206354361,32.0760143138
 H,0,18.8409411217,54.9733507205,31.2309531545
 C,0,19.4841647972,56.7211074985,32.2496729313
 C,0,18.2306704038,55.2127670996,33.2401739179
 H,0,17.6518120198,54.3269542638,33.4020408502
 N,0,18.440892215,56.1425559573,34.1389825399
 C,0,19.2191052182,57.0875171784,33.5375007831
 H,0,19.5320711349,57.9594721153,34.0731019404
 C,0,14.8604550144,56.6957752039,40.7743194288
 H,0,14.4913988426,55.779000827,41.2335327482
 H,0,14.0294697913,57.2045496268,40.2965891585
 H,0,15.2559979303,57.3361689395,41.5631908291
 N,0,17.0616189394,55.7266154019,40.084483851
 H,0,17.312675306,55.3944806809,41.0011333893
 C,0,15.9062719219,56.3917471597,39.7650980938
 C,0,17.7881218068,55.6021824358,38.9520857504
 H,0,18.7428936718,55.1214203023,38.9003691788
 N,0,17.1652286065,56.1467289124,37.9364964943
 C,0,15.9940288947,56.6433175591,38.4258838852
 H,0,15.2981065234,57.1455781081,37.7864682335
 Recover connectivity data from disk.
 Stoichiometry    C38H40FeN8(5)
 Framework group  C1[X(C38H40FeN8)]
 Deg. of freedom   255
 Full point group                 C1      NOp   1
 Largest Abelian subgroup         C1      NOp   1
 Largest concise Abelian subgroup C1      NOp   1
                         Standard orientation:                         
 ---------------------------------------------------------------------
 Center     Atomic      Atomic             Coordinates (Angstroms)
 Number     Number       Type             X           Y           Z
 ---------------------------------------------------------------------
      1         26           0       -0.121910   -0.089847   -0.048996
      2          7           0       -0.416219   -2.056161    0.220957
      3          7           0        1.840909   -0.428020   -0.321457
      4          7           0        0.196458    1.884516   -0.229348
      5          7           0       -2.066680    0.246558    0.250347
      6          6           0       -1.590084   -2.667712    0.517783
      7          6           0       -1.427690   -4.106287    0.532956
      8          6           0       -0.120168   -4.345291    0.247597
      9          6           0        0.495405   -3.049428    0.053664
     10          6           0        2.459480   -1.637905   -0.372503
     11          6           0        3.882775   -1.480031   -0.528676
     12          6           0        4.120531   -0.129976   -0.550632
     13          6           0        2.821549    0.505720   -0.425078
     14          6           0        1.399911    2.510986   -0.320731
     15          6           0        1.229988    3.940616   -0.340609
     16          6           0       -0.120810    4.168592   -0.276610
     17          6           0       -0.744729    2.860738   -0.229975
     18          6           0       -2.714697    1.434697    0.128538
     19          6           0       -4.128470    1.273764    0.393252
     20          6           0       -4.318081   -0.044943    0.664512
     21          6           0       -3.018008   -0.672236    0.559319
     22          6           0       -2.804294   -2.030567    0.704762
     23          1           0       -3.657894   -2.647121    0.944652
     24          6           0        1.832700   -2.866938   -0.234372
     25          1           0        2.445559   -3.752019   -0.317313
     26          6           0        2.627334    1.873717   -0.409339
     27          1           0        3.503059    2.503516   -0.461912
     28          6           0       -2.107822    2.657993   -0.089042
     29          1           0       -2.745269    3.529462   -0.118930
     30          6           0        0.598025   -5.646695    0.133082
     31          1           0        1.001360   -5.776488   -0.871574
     32          1           0       -0.071322   -6.477770    0.342156
     33          1           0        1.428591   -5.690142    0.838280
     34          6           0       -2.521350   -5.075951    0.827250
     35          1           0       -3.286689   -5.041396    0.050907
     36          1           0       -2.996307   -4.839862    1.779379
     37          1           0       -2.134726   -6.090653    0.880188
     38          6           0        4.858997   -2.592756   -0.696709
     39          1           0        4.395310   -3.442413   -1.193407
     40          1           0        5.236357   -2.932200    0.269345
     41          1           0        5.704936   -2.259645   -1.294700
     42          6           0        5.373866    0.574649   -0.695289
     43          1           0        5.311413    1.544699   -1.175638
     44          6           0        6.562572    0.137655   -0.289558
     45          1           0        6.681003   -0.793684    0.235524
     46          1           0        7.459972    0.714385   -0.443888
     47          6           0        2.330193    4.935067   -0.481199
     48          1           0        3.053011    4.606051   -1.226859
     49          1           0        2.860043    5.066722    0.463236
     50          1           0        1.928413    5.897739   -0.789239
     51          6           0       -0.839737    5.423374   -0.279489
     52          1           0       -1.795494    5.413011   -0.791459
     53          6           0       -0.434211    6.551710    0.294665
     54          1           0        0.480844    6.613241    0.857705
     55          1           0       -1.020829    7.454264    0.239596
     56          6           0       -5.122631    2.384556    0.354466
     57          1           0       -5.080844    2.901002   -0.604304
     58          1           0       -4.916450    3.113741    1.139226
     59          1           0       -6.132256    2.006897    0.497035
     60          6           0       -5.575183   -0.768057    1.011085
     61          1           0       -5.761434   -1.574059    0.301749
     62          1           0       -6.428008   -0.093720    0.995530
     63          1           0       -5.502477   -1.206321    2.007287
     64          6           0       -2.106470   -1.451248   -5.081837
     65          1           0       -2.846369   -2.134624   -4.677457
     66          1           0       -1.456912   -2.002273   -5.762102
     67          1           0       -2.620020   -0.677991   -5.652850
     68          7           0       -0.309432    0.042569   -4.177803
     69          1           0       -0.002311    0.386454   -5.072840
     70          6           0       -1.322725   -0.856739   -3.969590
     71          6           0        0.194416    0.377636   -2.968573
     72          1           0        1.000168    1.066434   -2.819367
     73          7           0       -0.437203   -0.252514   -2.009132
     74          6           0       -1.383855   -1.024184   -2.616357
     75          1           0       -2.039214   -1.641374   -2.037823
     76          6           0        1.751407   -0.522347    5.222081
     77          1           0        2.327679    0.315934    5.612915
     78          1           0        2.431573   -1.337633    4.997810
     79          1           0        1.057286   -0.848816    5.996994
     80          7           0        0.113392    0.898606    3.973856
     81          1           0       -0.147306    1.463701    4.765243
     82          6           0        1.022191   -0.127574    3.990379
     83          6           0       -0.358145    1.006851    2.712289
     84          1           0       -1.085294    1.728354    2.402315
     85          7           0        0.195015    0.113795    1.929721
     86          6           0        1.054834   -0.600353    2.709793
     87          1           0        1.634743   -1.401441    2.300661
 ---------------------------------------------------------------------
 Rotational constants (GHZ):           0.0762330           0.0756887           0.0582740
 General basis read from cards:  (5D, 7F)
 There are   806 symmetry adapted cartesian basis functions of A   symmetry.
 There are   757 symmetry adapted basis functions of A   symmetry.
   757 basis functions,  1534 primitive gaussians,   806 cartesian basis functions
   177 alpha electrons      173 beta electrons
       nuclear repulsion energy      7154.2453933193 Hartrees.
 NAtoms=   87 NActive=   87 NUniq=   87 SFac= 1.00D+00 NAtFMM=   60 NAOKFM=T Big=T
 Integral buffers will be    131072 words long.
 Raffenetti 2 integral format.
 Two-electron integral symmetry is turned on.
 R6APFD:  NTU= -4 IXU= 1 FactS= 1.050
 Nuclear repulsion after empirical dispersion term =     7154.0769903817 Hartrees.
 One-electron integrals computed using PRISM.
 NBasis=   757 RedAO= T EigKep=  2.56D-04  NBF=   757
 NBsUse=   757 1.00D-06 EigRej= -1.00D+00 NBFU=   757
 ExpMin= 4.20D-02 ExpMax= 3.01D+05 ExpMxC= 2.91D+03 IAcc=3 IRadAn=         5 AccDes= 0.00D+00
 Harris functional with IExCor= 3731 and IRadAn=       5 diagonalized for initial guess.
 HarFok:  IExCor= 3731 AccDes= 0.00D+00 IRadAn=         5 IDoV= 1 UseB2=F ITyADJ=14
 ICtDFT=  3500011 ScaDFX=  1.000000  1.000000  1.000000  1.000000
 FoFCou: FMM=F IPFlag=           0 FMFlag=      100000 FMFlg1=        2001
         NFxFlg=           0 DoJE=T BraDBF=F KetDBF=T FulRan=T
         wScrn=  0.000000 ICntrl=       500 IOpCl=  0 I1Cent=   200000004 NGrid=           0
         NMat0=    1 NMatS0=      1 NMatT0=    0 NMatD0=    1 NMtDS0=    0 NMtDT0=    0
 Petite list used in FoFCou.
 Initial guess <Sx>= 0.0000 <Sy>= 0.0000 <Sz>= 2.0000 <S**2>= 6.0000 S= 2.0000
 Requested convergence on RMS density matrix=1.00D-08 within 999 cycles.
 Requested convergence on MAX density matrix=1.00D-06.
 Requested convergence on             energy=1.00D-06.
 No special actions if energy rises.
 EnCoef did   100 forward-backward iterations
 EnCoef did   100 forward-backward iterations
 EnCoef did   100 forward-backward iterations
 EnCoef did   100 forward-backward iterations
 EnCoef did     3 forward-backward iterations
 EnCoef did     4 forward-backward iterations
 EnCoef did   100 forward-backward iterations
 EnCoef did     2 forward-backward iterations
 EnCoef did    10 forward-backward iterations
 EnCoef did     4 forward-backward iterations
 Rare condition: small coef for last iteration:  0.000D+00
 Restarting incremental Fock formation.
 Rare condition: small coef for last iteration:  0.000D+00
 Rare condition: small coef for last iteration:  0.000D+00
 Rare condition: small coef for last iteration:  0.000D+00
 Restarting incremental Fock formation.
 Rare condition: small coef for last iteration:  0.000D+00
 Rare condition: small coef for last iteration:  0.000D+00
 Restarting incremental Fock formation.
 SCF Done:  E(UAPFD) =  -3172.36255008     A.U. after   73 cycles
            NFock= 73  Conv=0.21D-08     -V/T= 2.0035
 <Sx>= 0.0000 <Sy>= 0.0000 <Sz>= 2.0000 <S**2>= 6.2498 S= 2.0495
 <L.S>=  0.00000000000    
 Annihilation of the first spin contaminant:
 S**2 before annihilation     6.2498,   after     6.0023

 **********************************************************************

            Population analysis using the SCF Density.

 **********************************************************************

 Orbital symmetries:
 Alpha Orbitals:
       Occupied  (A) (A) (A) (A) (A) (A) (A) (A) (A) (A) (A) (A)
                 (A) (A) (A) (A) (A) (A) (A) (A) (A) (A) (A) (A)
                 (A) (A) (A) (A) (A) (A) (A) (A) (A) (A) (A) (A)
                 (A) (A) (A) (A) (A) (A) (A) (A) (A) (A) (A) (A)
                 (A) (A) (A) (A) (A) (A) (A) (A) (A) (A) (A) (A)
                 (A) (A) (A) (A) (A) (A) (A) (A) (A) (A) (A) (A)
                 (A) (A) (A) (A) (A) (A) (A) (A) (A) (A) (A) (A)
                 (A) (A) (A) (A) (A) (A) (A) (A) (A) (A) (A) (A)
                 (A) (A) (A) (A) (A) (A) (A) (A) (A) (A) (A) (A)
                 (A) (A) (A) (A) (A) (A) (A) (A) (A) (A) (A) (A)
                 (A) (A) (A) (A) (A) (A) (A) (A) (A) (A) (A) (A)
                 (A) (A) (A) (A) (A) (A) (A) (A) (A) (A) (A) (A)
                 (A) (A) (A) (A) (A) (A) (A) (A) (A) (A) (A) (A)
                 (A) (A) (A) (A) (A) (A) (A) (A) (A) (A) (A) (A)
                 (A) (A) (A) (A) (A) (A) (A) (A) (A)
       Virtual   (A) (A) (A) (A) (A) (A) (A) (A) (A) (A) (A) (A)
                 (A) (A) (A) (A) (A) (A) (A) (A) (A) (A) (A) (A)
                 (A) (A) (A) (A) (A) (A) (A) (A) (A) (A) (A) (A)
                 (A) (A) (A) (A) (A) (A) (A) (A) (A) (A) (A) (A)
                 (A) (A) (A) (A) (A) (A) (A) (A) (A) (A) (A) (A)
                 (A) (A) (A) (A) (A) (A) (A) (A) (A) (A) (A) (A)
                 (A) (A) (A) (A) (A) (A) (A) (A) (A) (A) (A) (A)
                 (A) (A) (A) (A) (A) (A) (A) (A) (A) (A) (A) (A)
                 (A) (A) (A) (A) (A) (A) (A) (A) (A) (A) (A) (A)
                 (A) (A) (A) (A) (A) (A) (A) (A) (A) (A) (A) (A)
                 (A) (A) (A) (A) (A) (A) (A) (A) (A) (A) (A) (A)
                 (A) (A) (A) (A) (A) (A) (A) (A) (A) (A) (A) (A)
                 (A) (A) (A) (A) (A) (A) (A) (A) (A) (A) (A) (A)
                 (A) (A) (A) (A) (A) (A) (A) (A) (A) (A) (A) (A)
                 (A) (A) (A) (A) (A) (A) (A) (A) (A) (A) (A) (A)
                 (A) (A) (A) (A) (A) (A) (A) (A) (A) (A) (A) (A)
                 (A) (A) (A) (A) (A) (A) (A) (A) (A) (A) (A) (A)
                 (A) (A) (A) (A) (A) (A) (A) (A) (A) (A) (A) (A)
                 (A) (A) (A) (A) (A) (A) (A) (A) (A) (A) (A) (A)
                 (A) (A) (A) (A) (A) (A) (A) (A) (A) (A) (A) (A)
                 (A) (A) (A) (A) (A) (A) (A) (A) (A) (A) (A) (A)
                 (A) (A) (A) (A) (A) (A) (A) (A) (A) (A) (A) (A)
                 (A) (A) (A) (A) (A) (A) (A) (A) (A) (A) (A) (A)
                 (A) (A) (A) (A) (A) (A) (A) (A) (A) (A) (A) (A)
                 (A) (A) (A) (A) (A) (A) (A) (A) (A) (A) (A) (A)
                 (A) (A) (A) (A) (A) (A) (A) (A) (A) (A) (A) (A)
                 (A) (A) (A) (A) (A) (A) (A) (A) (A) (A) (A) (A)
                 (A) (A) (A) (A) (A) (A) (A) (A) (A) (A) (A) (A)
                 (A) (A) (A) (A) (A) (A) (A) (A) (A) (A) (A) (A)
                 (A) (A) (A) (A) (A) (A) (A) (A) (A) (A) (A) (A)
                 (A) (A) (A) (A) (A) (A) (A) (A) (A) (A) (A) (A)
                 (A) (A) (A) (A) (A) (A) (A) (A) (A) (A) (A) (A)
                 (A) (A) (A) (A) (A) (A) (A) (A) (A) (A) (A) (A)
                 (A) (A) (A) (A) (A) (A) (A) (A) (A) (A) (A) (A)
                 (A) (A) (A) (A) (A) (A) (A) (A) (A) (A) (A) (A)
                 (A) (A) (A) (A) (A) (A) (A) (A) (A) (A) (A) (A)
                 (A) (A) (A) (A) (A) (A) (A) (A) (A) (A) (A) (A)
                 (A) (A) (A) (A) (A) (A) (A) (A) (A) (A) (A) (A)
                 (A) (A) (A) (A) (A) (A) (A) (A) (A) (A) (A) (A)
                 (A) (A) (A) (A) (A) (A) (A) (A) (A) (A) (A) (A)
                 (A) (A) (A) (A) (A) (A) (A) (A) (A) (A) (A) (A)
                 (A) (A) (A) (A) (A) (A) (A) (A) (A) (A) (A) (A)
                 (A) (A) (A) (A) (A) (A) (A) (A) (A) (A) (A) (A)
                 (A) (A) (A) (A) (A) (A) (A) (A) (A) (A) (A) (A)
                 (A) (A) (A) (A) (A) (A) (A) (A) (A) (A) (A) (A)
                 (A) (A) (A) (A) (A) (A) (A) (A) (A) (A) (A) (A)
                 (A) (A) (A) (A) (A) (A) (A) (A) (A) (A) (A) (A)
                 (A) (A) (A) (A) (A) (A) (A) (A) (A) (A) (A) (A)
                 (A) (A) (A) (A)
 Beta  Orbitals:
       Occupied  (A) (A) (A) (A) (A) (A) (A) (A) (A) (A) (A) (A)
                 (A) (A) (A) (A) (A) (A) (A) (A) (A) (A) (A) (A)
                 (A) (A) (A) (A) (A) (A) (A) (A) (A) (A) (A) (A)
                 (A) (A) (A) (A) (A) (A) (A) (A) (A) (A) (A) (A)
                 (A) (A) (A) (A) (A) (A) (A) (A) (A) (A) (A) (A)
                 (A) (A) (A) (A) (A) (A) (A) (A) (A) (A) (A) (A)
                 (A) (A) (A) (A) (A) (A) (A) (A) (A) (A) (A) (A)
                 (A) (A) (A) (A) (A) (A) (A) (A) (A) (A) (A) (A)
                 (A) (A) (A) (A) (A) (A) (A) (A) (A) (A) (A) (A)
                 (A) (A) (A) (A) (A) (A) (A) (A) (A) (A) (A) (A)
                 (A) (A) (A) (A) (A) (A) (A) (A) (A) (A) (A) (A)
                 (A) (A) (A) (A) (A) (A) (A) (A) (A) (A) (A) (A)
                 (A) (A) (A) (A) (A) (A) (A) (A) (A) (A) (A) (A)
                 (A) (A) (A) (A) (A) (A) (A) (A) (A) (A) (A) (A)
                 (A) (A) (A) (A) (A)
       Virtual   (A) (A) (A) (A) (A) (A) (A) (A) (A) (A) (A) (A)
                 (A) (A) (A) (A) (A) (A) (A) (A) (A) (A) (A) (A)
                 (A) (A) (A) (A) (A) (A) (A) (A) (A) (A) (A) (A)
                 (A) (A) (A) (A) (A) (A) (A) (A) (A) (A) (A) (A)
                 (A) (A) (A) (A) (A) (A) (A) (A) (A) (A) (A) (A)
                 (A) (A) (A) (A) (A) (A) (A) (A) (A) (A) (A) (A)
                 (A) (A) (A) (A) (A) (A) (A) (A) (A) (A) (A) (A)
                 (A) (A) (A) (A) (A) (A) (A) (A) (A) (A) (A) (A)
                 (A) (A) (A) (A) (A) (A) (A) (A) (A) (A) (A) (A)
                 (A) (A) (A) (A) (A) (A) (A) (A) (A) (A) (A) (A)
                 (A) (A) (A) (A) (A) (A) (A) (A) (A) (A) (A) (A)
                 (A) (A) (A) (A) (A) (A) (A) (A) (A) (A) (A) (A)
                 (A) (A) (A) (A) (A) (A) (A) (A) (A) (A) (A) (A)
                 (A) (A) (A) (A) (A) (A) (A) (A) (A) (A) (A) (A)
                 (A) (A) (A) (A) (A) (A) (A) (A) (A) (A) (A) (A)
                 (A) (A) (A) (A) (A) (A) (A) (A) (A) (A) (A) (A)
                 (A) (A) (A) (A) (A) (A) (A) (A) (A) (A) (A) (A)
                 (A) (A) (A) (A) (A) (A) (A) (A) (A) (A) (A) (A)
                 (A) (A) (A) (A) (A) (A) (A) (A) (A) (A) (A) (A)
                 (A) (A) (A) (A) (A) (A) (A) (A) (A) (A) (A) (A)
                 (A) (A) (A) (A) (A) (A) (A) (A) (A) (A) (A) (A)
                 (A) (A) (A) (A) (A) (A) (A) (A) (A) (A) (A) (A)
                 (A) (A) (A) (A) (A) (A) (A) (A) (A) (A) (A) (A)
                 (A) (A) (A) (A) (A) (A) (A) (A) (A) (A) (A) (A)
                 (A) (A) (A) (A) (A) (A) (A) (A) (A) (A) (A) (A)
                 (A) (A) (A) (A) (A) (A) (A) (A) (A) (A) (A) (A)
                 (A) (A) (A) (A) (A) (A) (A) (A) (A) (A) (A) (A)
                 (A) (A) (A) (A) (A) (A) (A) (A) (A) (A) (A) (A)
                 (A) (A) (A) (A) (A) (A) (A) (A) (A) (A) (A) (A)
                 (A) (A) (A) (A) (A) (A) (A) (A) (A) (A) (A) (A)
                 (A) (A) (A) (A) (A) (A) (A) (A) (A) (A) (A) (A)
                 (A) (A) (A) (A) (A) (A) (A) (A) (A) (A) (A) (A)
                 (A) (A) (A) (A) (A) (A) (A) (A) (A) (A) (A) (A)
                 (A) (A) (A) (A) (A) (A) (A) (A) (A) (A) (A) (A)
                 (A) (A) (A) (A) (A) (A) (A) (A) (A) (A) (A) (A)
                 (A) (A) (A) (A) (A) (A) (A) (A) (A) (A) (A) (A)
                 (A) (A) (A) (A) (A) (A) (A) (A) (A) (A) (A) (A)
                 (A) (A) (A) (A) (A) (A) (A) (A) (A) (A) (A) (A)
                 (A) (A) (A) (A) (A) (A) (A) (A) (A) (A) (A) (A)
                 (A) (A) (A) (A) (A) (A) (A) (A) (A) (A) (A) (A)
                 (A) (A) (A) (A) (A) (A) (A) (A) (A) (A) (A) (A)
                 (A) (A) (A) (A) (A) (A) (A) (A) (A) (A) (A) (A)
                 (A) (A) (A) (A) (A) (A) (A) (A) (A) (A) (A) (A)
                 (A) (A) (A) (A) (A) (A) (A) (A) (A) (A) (A) (A)
                 (A) (A) (A) (A) (A) (A) (A) (A) (A) (A) (A) (A)
                 (A) (A) (A) (A) (A) (A) (A) (A) (A) (A) (A) (A)
                 (A) (A) (A) (A) (A) (A) (A) (A) (A) (A) (A) (A)
                 (A) (A) (A) (A) (A) (A) (A) (A) (A) (A) (A) (A)
                 (A) (A) (A) (A) (A) (A) (A) (A)
 The electronic state is 5-A.
 Alpha  occ. eigenvalues -- -256.16910 -30.06710 -25.91065 -25.89213 -25.89082
 Alpha  occ. eigenvalues --  -14.42194 -14.41376 -14.35310 -14.34672 -14.32253
 Alpha  occ. eigenvalues --  -14.32225 -14.32125 -14.32099 -10.25398 -10.24412
 Alpha  occ. eigenvalues --  -10.23501 -10.22865 -10.20861 -10.20680 -10.20569
 Alpha  occ. eigenvalues --  -10.20553 -10.20537 -10.20423 -10.20395 -10.20141
 Alpha  occ. eigenvalues --  -10.19922 -10.19904 -10.19845 -10.19811 -10.19505
 Alpha  occ. eigenvalues --  -10.19099 -10.18536 -10.18390 -10.18337 -10.18302
 Alpha  occ. eigenvalues --  -10.18276 -10.18275 -10.18260 -10.18230 -10.18188
 Alpha  occ. eigenvalues --  -10.18164 -10.17988 -10.17982 -10.17940 -10.17919
 Alpha  occ. eigenvalues --  -10.17903 -10.17882 -10.17642 -10.17594 -10.17562
 Alpha  occ. eigenvalues --  -10.17501  -3.52729  -2.32202  -2.28291  -2.28008
 Alpha  occ. eigenvalues --   -1.04404  -1.03676  -0.95686  -0.94721  -0.94664
 Alpha  occ. eigenvalues --   -0.93738  -0.89918  -0.89225  -0.80914  -0.80645
 Alpha  occ. eigenvalues --   -0.80307  -0.79608  -0.79400  -0.79289  -0.78795
 Alpha  occ. eigenvalues --   -0.78267  -0.78186  -0.75611  -0.74539  -0.73200
 Alpha  occ. eigenvalues --   -0.72538  -0.72182  -0.70981  -0.70400  -0.69856
 Alpha  occ. eigenvalues --   -0.69045  -0.67285  -0.66948  -0.66675  -0.63776
 Alpha  occ. eigenvalues --   -0.63047  -0.62856  -0.62745  -0.60300  -0.59687
 Alpha  occ. eigenvalues --   -0.59506  -0.58916  -0.56377  -0.55444  -0.55003
 Alpha  occ. eigenvalues --   -0.54414  -0.53259  -0.52410  -0.52175  -0.51522
 Alpha  occ. eigenvalues --   -0.49878  -0.49794  -0.49305  -0.47792  -0.47003
 Alpha  occ. eigenvalues --   -0.46685  -0.46421  -0.46357  -0.46236  -0.45712
 Alpha  occ. eigenvalues --   -0.44107  -0.43665  -0.43456  -0.43312  -0.43016
 Alpha  occ. eigenvalues --   -0.42775  -0.42541  -0.42365  -0.42218  -0.42039
 Alpha  occ. eigenvalues --   -0.41848  -0.41750  -0.41612  -0.41564  -0.41248
 Alpha  occ. eigenvalues --   -0.41154  -0.40997  -0.40957  -0.40569  -0.40525
 Alpha  occ. eigenvalues --   -0.40442  -0.40392  -0.39638  -0.39396  -0.39189
 Alpha  occ. eigenvalues --   -0.38477  -0.38440  -0.38247  -0.37859  -0.37695
 Alpha  occ. eigenvalues --   -0.37673  -0.37361  -0.37183  -0.36794  -0.36506
 Alpha  occ. eigenvalues --   -0.35817  -0.35756  -0.35404  -0.35031  -0.34454
 Alpha  occ. eigenvalues --   -0.33397  -0.33212  -0.32587  -0.32461  -0.32222
 Alpha  occ. eigenvalues --   -0.31941  -0.30592  -0.30089  -0.29938  -0.29475
 Alpha  occ. eigenvalues --   -0.29205  -0.28141  -0.27682  -0.27299  -0.26202
 Alpha  occ. eigenvalues --   -0.24892  -0.24718  -0.22660  -0.21962  -0.21271
 Alpha  occ. eigenvalues --   -0.20800  -0.20087  -0.19753  -0.16389  -0.16101
 Alpha  occ. eigenvalues --   -0.15693  -0.14957
 Alpha virt. eigenvalues --   -0.05047  -0.04628  -0.00066   0.02674   0.03389
 Alpha virt. eigenvalues --    0.04179   0.04560   0.07548   0.08149   0.08280
 Alpha virt. eigenvalues --    0.08357   0.08896   0.10131   0.10610   0.10886
 Alpha virt. eigenvalues --    0.11535   0.12135   0.12205   0.12870   0.12897
 Alpha virt. eigenvalues --    0.13347   0.13612   0.14163   0.14770   0.14791
 Alpha virt. eigenvalues --    0.15415   0.15742   0.15986   0.16369   0.16614
 Alpha virt. eigenvalues --    0.16745   0.16981   0.17133   0.17465   0.17710
 Alpha virt. eigenvalues --    0.18117   0.18340   0.18446   0.18656   0.18852
 Alpha virt. eigenvalues --    0.19074   0.19108   0.19143   0.19719   0.19831
 Alpha virt. eigenvalues --    0.20093   0.20536   0.20545   0.20726   0.21041
 Alpha virt. eigenvalues --    0.21430   0.21877   0.22082   0.22497   0.22979
 Alpha virt. eigenvalues --    0.23153   0.23614   0.23826   0.24045   0.24608
 Alpha virt. eigenvalues --    0.24942   0.25368   0.25595   0.26388   0.26532
 Alpha virt. eigenvalues --    0.27012   0.27724   0.27945   0.28023   0.28365
 Alpha virt. eigenvalues --    0.28684   0.28982   0.29048   0.30968   0.31559
 Alpha virt. eigenvalues --    0.32212   0.32617   0.32888   0.33546   0.34045
 Alpha virt. eigenvalues --    0.34881   0.35705   0.36167   0.37097   0.37141
 Alpha virt. eigenvalues --    0.37562   0.38077   0.38245   0.39660   0.40566
 Alpha virt. eigenvalues --    0.41197   0.42623   0.42862   0.43310   0.43831
 Alpha virt. eigenvalues --    0.44053   0.44908   0.45650   0.45883   0.46009
 Alpha virt. eigenvalues --    0.47894   0.48463   0.49095   0.49380   0.49704
 Alpha virt. eigenvalues --    0.50107   0.50842   0.51182   0.52004   0.52415
 Alpha virt. eigenvalues --    0.52508   0.52880   0.53346   0.53546   0.53608
 Alpha virt. eigenvalues --    0.53917   0.54168   0.54343   0.54794   0.54973
 Alpha virt. eigenvalues --    0.55238   0.55576   0.55821   0.55979   0.56215
 Alpha virt. eigenvalues --    0.56463   0.57164   0.57503   0.58100   0.58446
 Alpha virt. eigenvalues --    0.58502   0.58975   0.59270   0.59825   0.60090
 Alpha virt. eigenvalues --    0.60801   0.61238   0.61596   0.61993   0.62132
 Alpha virt. eigenvalues --    0.62190   0.62771   0.63476   0.63995   0.64148
 Alpha virt. eigenvalues --    0.64389   0.64783   0.65132   0.65369   0.66108
 Alpha virt. eigenvalues --    0.66402   0.66524   0.67058   0.67361   0.67630
 Alpha virt. eigenvalues --    0.67656   0.68176   0.68284   0.68595   0.68793
 Alpha virt. eigenvalues --    0.69046   0.69218   0.69465   0.70080   0.70320
 Alpha virt. eigenvalues --    0.70776   0.71293   0.71875   0.72461   0.72810
 Alpha virt. eigenvalues --    0.73431   0.74040   0.74275   0.74663   0.74999
 Alpha virt. eigenvalues --    0.75431   0.75928   0.76117   0.76600   0.76926
 Alpha virt. eigenvalues --    0.77749   0.78137   0.78447   0.78932   0.79259
 Alpha virt. eigenvalues --    0.79410   0.79665   0.80205   0.80338   0.80749
 Alpha virt. eigenvalues --    0.81294   0.81305   0.82100   0.82141   0.82925
 Alpha virt. eigenvalues --    0.83122   0.83697   0.84289   0.85097   0.85477
 Alpha virt. eigenvalues --    0.86043   0.86564   0.87151   0.87253   0.87622
 Alpha virt. eigenvalues --    0.87726   0.88007   0.88304   0.88472   0.88704
 Alpha virt. eigenvalues --    0.89035   0.89128   0.89518   0.90062   0.90206
 Alpha virt. eigenvalues --    0.90611   0.90842   0.90918   0.91332   0.91560
 Alpha virt. eigenvalues --    0.91706   0.92217   0.92450   0.92569   0.92892
 Alpha virt. eigenvalues --    0.93321   0.93653   0.94030   0.94645   0.94946
 Alpha virt. eigenvalues --    0.95350   0.95525   0.95832   0.96523   0.96911
 Alpha virt. eigenvalues --    0.97443   0.97464   0.97864   0.98481   0.98836
 Alpha virt. eigenvalues --    0.99156   0.99968   1.00195   1.00439   1.00919
 Alpha virt. eigenvalues --    1.01011   1.01227   1.01582   1.01816   1.02664
 Alpha virt. eigenvalues --    1.02797   1.03221   1.03681   1.03825   1.04528
 Alpha virt. eigenvalues --    1.05269   1.05713   1.05875   1.06978   1.07262
 Alpha virt. eigenvalues --    1.07414   1.08444   1.08614   1.09244   1.10196
 Alpha virt. eigenvalues --    1.11060   1.11830   1.12070   1.12792   1.13120
 Alpha virt. eigenvalues --    1.14134   1.15179   1.15768   1.16565   1.17137
 Alpha virt. eigenvalues --    1.18138   1.18657   1.18980   1.19327   1.20132
 Alpha virt. eigenvalues --    1.20266   1.20533   1.21254   1.21744   1.22255
 Alpha virt. eigenvalues --    1.22497   1.22506   1.24407   1.24915   1.25052
 Alpha virt. eigenvalues --    1.25640   1.26281   1.26841   1.27183   1.28513
 Alpha virt. eigenvalues --    1.29112   1.29894   1.30662   1.30806   1.31348
 Alpha virt. eigenvalues --    1.31711   1.32444   1.32717   1.32977   1.33466
 Alpha virt. eigenvalues --    1.33876   1.34807   1.36449   1.36506   1.37234
 Alpha virt. eigenvalues --    1.37475   1.37793   1.38375   1.38478   1.39340
 Alpha virt. eigenvalues --    1.39716   1.40038   1.40365   1.40660   1.41207
 Alpha virt. eigenvalues --    1.41280   1.42526   1.42574   1.43584   1.43746
 Alpha virt. eigenvalues --    1.44949   1.45469   1.46344   1.46750   1.47602
 Alpha virt. eigenvalues --    1.47743   1.48142   1.49103   1.49582   1.50682
 Alpha virt. eigenvalues --    1.51925   1.52023   1.52432   1.53260   1.54262
 Alpha virt. eigenvalues --    1.55224   1.55387   1.55842   1.56324   1.56417
 Alpha virt. eigenvalues --    1.56748   1.57361   1.57869   1.58334   1.59908
 Alpha virt. eigenvalues --    1.60099   1.61383   1.62436   1.63547   1.65086
 Alpha virt. eigenvalues --    1.65730   1.65848   1.66302   1.66644   1.68263
 Alpha virt. eigenvalues --    1.69539   1.70179   1.71057   1.71508   1.72021
 Alpha virt. eigenvalues --    1.74053   1.74796   1.75716   1.77551   1.78039
 Alpha virt. eigenvalues --    1.80696   1.81655   1.82142   1.82455   1.83246
 Alpha virt. eigenvalues --    1.83550   1.83664   1.83922   1.84456   1.84964
 Alpha virt. eigenvalues --    1.85319   1.85680   1.86396   1.86863   1.87409
 Alpha virt. eigenvalues --    1.87643   1.88276   1.88851   1.88938   1.89874
 Alpha virt. eigenvalues --    1.90009   1.90285   1.90775   1.90898   1.92074
 Alpha virt. eigenvalues --    1.92264   1.92445   1.93432   1.93619   1.95345
 Alpha virt. eigenvalues --    1.96182   1.96442   1.97417   1.97639   1.97857
 Alpha virt. eigenvalues --    1.98700   1.98799   1.99382   1.99628   2.00402
 Alpha virt. eigenvalues --    2.01605   2.01728   2.02238   2.03185   2.03920
 Alpha virt. eigenvalues --    2.04196   2.05385   2.05935   2.07174   2.07493
 Alpha virt. eigenvalues --    2.07830   2.08350   2.08536   2.09338   2.10194
 Alpha virt. eigenvalues --    2.10361   2.10852   2.11277   2.11708   2.13269
 Alpha virt. eigenvalues --    2.13412   2.13986   2.14281   2.14945   2.15320
 Alpha virt. eigenvalues --    2.15871   2.16248   2.16726   2.17184   2.17841
 Alpha virt. eigenvalues --    2.18124   2.19111   2.20674   2.20984   2.22230
 Alpha virt. eigenvalues --    2.23325   2.24070   2.24357   2.25002   2.25239
 Alpha virt. eigenvalues --    2.25329   2.26046   2.27076   2.27437   2.27799
 Alpha virt. eigenvalues --    2.27969   2.28285   2.28803   2.29290   2.29646
 Alpha virt. eigenvalues --    2.30135   2.30207   2.30704   2.31505   2.31921
 Alpha virt. eigenvalues --    2.32140   2.32632   2.32935   2.33538   2.34234
 Alpha virt. eigenvalues --    2.34835   2.35269   2.36452   2.37154   2.37513
 Alpha virt. eigenvalues --    2.37616   2.38154   2.38731   2.39082   2.39295
 Alpha virt. eigenvalues --    2.39773   2.40351   2.40785   2.41149   2.41404
 Alpha virt. eigenvalues --    2.41579   2.42450   2.43122   2.43585   2.43957
 Alpha virt. eigenvalues --    2.44642   2.45059   2.45451   2.46226   2.46274
 Alpha virt. eigenvalues --    2.46658   2.47325   2.48972   2.49720   2.50238
 Alpha virt. eigenvalues --    2.51145   2.53642   2.53952   2.54811   2.55570
 Alpha virt. eigenvalues --    2.55676   2.56088   2.56949   2.57330   2.58199
 Alpha virt. eigenvalues --    2.58609   2.59860   2.60224   2.60639   2.61911
 Alpha virt. eigenvalues --    2.62464   2.63076   2.63203   2.64691   2.66353
 Alpha virt. eigenvalues --    2.66928   2.68858   2.70045   2.71043   2.72103
 Alpha virt. eigenvalues --    2.72826   2.73024   2.73877   2.75233   2.77250
 Alpha virt. eigenvalues --    2.77808   2.78305   2.79268   2.79385   2.80165
 Alpha virt. eigenvalues --    2.81430   2.82290   2.82946   2.84275   2.89460
 Alpha virt. eigenvalues --    2.89999   2.90908   2.92507   2.92776   2.94257
 Alpha virt. eigenvalues --    2.96652   2.96900   2.98526   2.99232   2.99760
 Alpha virt. eigenvalues --    3.01634   3.01869   3.02437   3.04395   3.06838
 Alpha virt. eigenvalues --    3.08033   3.08138   3.10136   3.10944   3.12394
 Alpha virt. eigenvalues --    3.15522   3.16629   3.17080   3.17748   3.23196
 Alpha virt. eigenvalues --    3.25158   3.28251   3.32330   3.32759   3.41640
 Alpha virt. eigenvalues --    3.42037   3.43267   3.49633   3.49734   3.70032
 Alpha virt. eigenvalues --    3.72612   3.89816   4.08461   4.23453   4.27240
  Beta  occ. eigenvalues -- -256.16773 -29.98111 -25.83165 -25.82348 -25.82298
  Beta  occ. eigenvalues --  -14.42181 -14.41376 -14.35132 -14.34457 -14.32043
  Beta  occ. eigenvalues --  -14.32014 -14.31906 -14.31885 -10.25382 -10.24445
  Beta  occ. eigenvalues --  -10.23497 -10.22849 -10.20859 -10.20627 -10.20521
  Beta  occ. eigenvalues --  -10.20508 -10.20486 -10.20425 -10.20394 -10.20230
  Beta  occ. eigenvalues --  -10.20011 -10.19992 -10.19896 -10.19853 -10.19519
  Beta  occ. eigenvalues --  -10.19071 -10.18460 -10.18390 -10.18345 -10.18302
  Beta  occ. eigenvalues --  -10.18275 -10.18269 -10.18223 -10.18201 -10.18141
  Beta  occ. eigenvalues --  -10.18130 -10.18003 -10.17991 -10.17963 -10.17939
  Beta  occ. eigenvalues --  -10.17911 -10.17840 -10.17718 -10.17656 -10.17639
  Beta  occ. eigenvalues --  -10.17569  -3.32328  -2.08039  -2.07648  -2.07548
  Beta  occ. eigenvalues --   -1.04308  -1.03601  -0.95491  -0.94535  -0.94469
  Beta  occ. eigenvalues --   -0.93532  -0.89741  -0.89032  -0.80929  -0.80615
  Beta  occ. eigenvalues --   -0.80271  -0.79535  -0.79374  -0.79217  -0.78778
  Beta  occ. eigenvalues --   -0.78257  -0.78244  -0.75611  -0.74529  -0.73192
  Beta  occ. eigenvalues --   -0.72569  -0.72193  -0.70934  -0.70371  -0.69815
  Beta  occ. eigenvalues --   -0.68996  -0.67190  -0.66839  -0.66670  -0.63605
  Beta  occ. eigenvalues --   -0.62917  -0.62858  -0.62761  -0.60245  -0.59645
  Beta  occ. eigenvalues --   -0.59466  -0.58878  -0.56368  -0.55276  -0.54923
  Beta  occ. eigenvalues --   -0.54334  -0.53218  -0.52360  -0.52105  -0.51296
  Beta  occ. eigenvalues --   -0.49766  -0.49701  -0.49210  -0.47451  -0.46877
  Beta  occ. eigenvalues --   -0.46583  -0.46297  -0.46144  -0.46032  -0.45693
  Beta  occ. eigenvalues --   -0.43839  -0.43539  -0.43335  -0.43211  -0.42929
  Beta  occ. eigenvalues --   -0.42526  -0.42342  -0.42252  -0.42083  -0.41908
  Beta  occ. eigenvalues --   -0.41807  -0.41599  -0.41547  -0.41459  -0.41204
  Beta  occ. eigenvalues --   -0.40984  -0.40964  -0.40828  -0.40581  -0.40485
  Beta  occ. eigenvalues --   -0.40378  -0.40347  -0.39207  -0.39147  -0.39045
  Beta  occ. eigenvalues --   -0.38443  -0.38394  -0.37713  -0.37528  -0.37307
  Beta  occ. eigenvalues --   -0.37054  -0.36621  -0.36438  -0.35736  -0.35670
  Beta  occ. eigenvalues --   -0.35492  -0.34807  -0.34494  -0.34009  -0.33136
  Beta  occ. eigenvalues --   -0.32925  -0.32415  -0.31730  -0.31260  -0.30533
  Beta  occ. eigenvalues --   -0.30090  -0.29728  -0.29100  -0.28850  -0.27901
  Beta  occ. eigenvalues --   -0.27327  -0.27009  -0.25222  -0.25061  -0.22679
  Beta  occ. eigenvalues --   -0.22346  -0.21571  -0.21186  -0.20706  -0.20141
  Beta  occ. eigenvalues --   -0.16512  -0.16447  -0.11566
  Beta virt. eigenvalues --   -0.05453  -0.03985  -0.00291   0.00746   0.01292
  Beta virt. eigenvalues --    0.02896   0.04004   0.04216   0.04735   0.07917
  Beta virt. eigenvalues --    0.08065   0.08435   0.08612   0.08869   0.09928
  Beta virt. eigenvalues --    0.10429   0.10614   0.10974   0.11555   0.11608
  Beta virt. eigenvalues --    0.12149   0.12222   0.12894   0.13032   0.13503
  Beta virt. eigenvalues --    0.13639   0.14178   0.14760   0.14809   0.15417
  Beta virt. eigenvalues --    0.15726   0.16019   0.16342   0.16626   0.16763
  Beta virt. eigenvalues --    0.17010   0.17144   0.17504   0.17745   0.18156
  Beta virt. eigenvalues --    0.18353   0.18492   0.18661   0.18861   0.19066
  Beta virt. eigenvalues --    0.19105   0.19153   0.19793   0.19872   0.20159
  Beta virt. eigenvalues --    0.20545   0.20570   0.20767   0.21046   0.21423
  Beta virt. eigenvalues --    0.21875   0.22083   0.22488   0.23012   0.23211
  Beta virt. eigenvalues --    0.23700   0.23861   0.24087   0.24724   0.25158
  Beta virt. eigenvalues --    0.25533   0.25696   0.26468   0.26649   0.27052
  Beta virt. eigenvalues --    0.27742   0.28037   0.28072   0.28481   0.28747
  Beta virt. eigenvalues --    0.29139   0.29243   0.31112   0.31992   0.32229
  Beta virt. eigenvalues --    0.32835   0.33470   0.33930   0.34399   0.35080
  Beta virt. eigenvalues --    0.36330   0.36868   0.37334   0.37368   0.37940
  Beta virt. eigenvalues --    0.38198   0.38282   0.39791   0.40789   0.41338
  Beta virt. eigenvalues --    0.42959   0.43151   0.43514   0.44166   0.44325
  Beta virt. eigenvalues --    0.44911   0.45694   0.45944   0.46087   0.48870
  Beta virt. eigenvalues --    0.49277   0.49453   0.49812   0.50037   0.50488
  Beta virt. eigenvalues --    0.51204   0.51531   0.52214   0.52565   0.52841
  Beta virt. eigenvalues --    0.53049   0.53345   0.53619   0.53816   0.54064
  Beta virt. eigenvalues --    0.54274   0.54369   0.54847   0.55024   0.55376
  Beta virt. eigenvalues --    0.55636   0.56129   0.56191   0.56295   0.56486
  Beta virt. eigenvalues --    0.57277   0.57587   0.58317   0.58494   0.58706
  Beta virt. eigenvalues --    0.59008   0.59386   0.59939   0.60145   0.60891
  Beta virt. eigenvalues --    0.61246   0.61577   0.62021   0.62137   0.62244
  Beta virt. eigenvalues --    0.62945   0.63490   0.64080   0.64145   0.64363
  Beta virt. eigenvalues --    0.64877   0.65178   0.65486   0.66132   0.66448
  Beta virt. eigenvalues --    0.66521   0.67081   0.67413   0.67657   0.67876
  Beta virt. eigenvalues --    0.68266   0.68291   0.68789   0.68833   0.69040
  Beta virt. eigenvalues --    0.69347   0.69571   0.70121   0.70359   0.70806
  Beta virt. eigenvalues --    0.71392   0.71877   0.72516   0.72881   0.73451
  Beta virt. eigenvalues --    0.74320   0.74507   0.74949   0.75304   0.75645
  Beta virt. eigenvalues --    0.76211   0.76430   0.76714   0.76994   0.77795
  Beta virt. eigenvalues --    0.78409   0.78506   0.78788   0.79330   0.79506
  Beta virt. eigenvalues --    0.79752   0.80323   0.80491   0.80983   0.81400
  Beta virt. eigenvalues --    0.81447   0.82168   0.82185   0.83188   0.83424
  Beta virt. eigenvalues --    0.84027   0.84301   0.85117   0.85616   0.86046
  Beta virt. eigenvalues --    0.86621   0.87145   0.87310   0.87717   0.87744
  Beta virt. eigenvalues --    0.88031   0.88351   0.88524   0.88765   0.89134
  Beta virt. eigenvalues --    0.89141   0.89558   0.90154   0.90315   0.90678
  Beta virt. eigenvalues --    0.90997   0.91084   0.91427   0.91675   0.91759
  Beta virt. eigenvalues --    0.92329   0.92607   0.92708   0.93017   0.93469
  Beta virt. eigenvalues --    0.93723   0.94087   0.94747   0.95035   0.95414
  Beta virt. eigenvalues --    0.95572   0.95918   0.96609   0.96950   0.97510
  Beta virt. eigenvalues --    0.97630   0.97999   0.98646   0.99247   0.99441
  Beta virt. eigenvalues --    1.00021   1.00317   1.00495   1.01034   1.01279
  Beta virt. eigenvalues --    1.01416   1.01617   1.02169   1.02845   1.02994
  Beta virt. eigenvalues --    1.03464   1.03988   1.04151   1.04643   1.05295
  Beta virt. eigenvalues --    1.05950   1.05995   1.07160   1.07451   1.07938
  Beta virt. eigenvalues --    1.08689   1.08727   1.09349   1.10250   1.11374
  Beta virt. eigenvalues --    1.11924   1.12245   1.13047   1.13297   1.14273
  Beta virt. eigenvalues --    1.15699   1.16323   1.16679   1.17568   1.18313
  Beta virt. eigenvalues --    1.18810   1.19153   1.19398   1.20354   1.20395
  Beta virt. eigenvalues --    1.20913   1.21343   1.21770   1.22399   1.22499
  Beta virt. eigenvalues --    1.22631   1.24435   1.25058   1.25217   1.25714
  Beta virt. eigenvalues --    1.26750   1.27305   1.28721   1.29260   1.30200
  Beta virt. eigenvalues --    1.30484   1.30881   1.31305   1.31544   1.32196
  Beta virt. eigenvalues --    1.32698   1.32847   1.33183   1.33723   1.33967
  Beta virt. eigenvalues --    1.34819   1.36514   1.36573   1.37387   1.37731
  Beta virt. eigenvalues --    1.38210   1.38513   1.38568   1.39449   1.39691
  Beta virt. eigenvalues --    1.40123   1.40396   1.40725   1.41311   1.41607
  Beta virt. eigenvalues --    1.42642   1.42780   1.43823   1.43892   1.45301
  Beta virt. eigenvalues --    1.45720   1.46742   1.46798   1.47648   1.47770
  Beta virt. eigenvalues --    1.48294   1.49159   1.49661   1.50746   1.52062
  Beta virt. eigenvalues --    1.52235   1.52876   1.53298   1.54391   1.55394
  Beta virt. eigenvalues --    1.55485   1.55898   1.56438   1.56447   1.56820
  Beta virt. eigenvalues --    1.57504   1.58005   1.58627   1.60156   1.60263
  Beta virt. eigenvalues --    1.61447   1.62689   1.63594   1.65208   1.65830
  Beta virt. eigenvalues --    1.66073   1.66451   1.66930   1.68409   1.69997
  Beta virt. eigenvalues --    1.70825   1.71119   1.71564   1.72101   1.74246
  Beta virt. eigenvalues --    1.74955   1.75841   1.77599   1.78145   1.80828
  Beta virt. eigenvalues --    1.81648   1.82157   1.82477   1.83393   1.83619
  Beta virt. eigenvalues --    1.83702   1.84115   1.84685   1.85125   1.85394
  Beta virt. eigenvalues --    1.85721   1.86439   1.86890   1.87469   1.87767
  Beta virt. eigenvalues --    1.88359   1.88943   1.89036   1.89917   1.90088
  Beta virt. eigenvalues --    1.90346   1.90855   1.90922   1.92129   1.92313
  Beta virt. eigenvalues --    1.92544   1.93523   1.93716   1.95498   1.96260
  Beta virt. eigenvalues --    1.96589   1.97475   1.97747   1.98086   1.98916
  Beta virt. eigenvalues --    1.99036   1.99620   2.00005   2.00543   2.01648
  Beta virt. eigenvalues --    2.02073   2.02522   2.03426   2.04196   2.04788
  Beta virt. eigenvalues --    2.05703   2.06111   2.07209   2.07626   2.08174
  Beta virt. eigenvalues --    2.08630   2.09234   2.09556   2.10404   2.10991
  Beta virt. eigenvalues --    2.11176   2.11826   2.12002   2.13320   2.13569
  Beta virt. eigenvalues --    2.14157   2.14379   2.15014   2.15508   2.15952
  Beta virt. eigenvalues --    2.16297   2.16768   2.17273   2.17959   2.18223
  Beta virt. eigenvalues --    2.19144   2.20799   2.21106   2.22286   2.23418
  Beta virt. eigenvalues --    2.24189   2.24544   2.25081   2.25266   2.25675
  Beta virt. eigenvalues --    2.26150   2.27146   2.27517   2.27923   2.28110
  Beta virt. eigenvalues --    2.28360   2.28862   2.29454   2.29835   2.30280
  Beta virt. eigenvalues --    2.30690   2.31072   2.31597   2.32059   2.32215
  Beta virt. eigenvalues --    2.32748   2.33031   2.33569   2.34384   2.35054
  Beta virt. eigenvalues --    2.36349   2.37342   2.37534   2.37774   2.38203
  Beta virt. eigenvalues --    2.38422   2.38892   2.39611   2.39971   2.40104
  Beta virt. eigenvalues --    2.40959   2.41186   2.41471   2.41677   2.41743
  Beta virt. eigenvalues --    2.42725   2.43414   2.43787   2.44290   2.44861
  Beta virt. eigenvalues --    2.45168   2.45490   2.46340   2.46400   2.46954
  Beta virt. eigenvalues --    2.47796   2.49296   2.49913   2.50343   2.51204
  Beta virt. eigenvalues --    2.54014   2.54132   2.54899   2.55640   2.55888
  Beta virt. eigenvalues --    2.57547   2.57873   2.58196   2.58504   2.58933
  Beta virt. eigenvalues --    2.60275   2.61014   2.61524   2.62039   2.62481
  Beta virt. eigenvalues --    2.63318   2.63866   2.64689   2.66666   2.66972
  Beta virt. eigenvalues --    2.68884   2.70217   2.71212   2.72331   2.72940
  Beta virt. eigenvalues --    2.73315   2.73968   2.75374   2.77481   2.78162
  Beta virt. eigenvalues --    2.78473   2.79527   2.79746   2.80399   2.81492
  Beta virt. eigenvalues --    2.82378   2.83210   2.84475   2.89533   2.90128
  Beta virt. eigenvalues --    2.91097   2.92649   2.92977   2.94415   2.96930
  Beta virt. eigenvalues --    2.97209   2.98681   2.99303   2.99883   3.01657
  Beta virt. eigenvalues --    3.01910   3.02477   3.04707   3.07319   3.08167
  Beta virt. eigenvalues --    3.08288   3.10515   3.11422   3.13162   3.15682
  Beta virt. eigenvalues --    3.16802   3.17146   3.17831   3.23275   3.25274
  Beta virt. eigenvalues --    3.28897   3.32359   3.32788   3.41677   3.42190
  Beta virt. eigenvalues --    3.44027   3.49812   3.49913   3.80594   3.82526
  Beta virt. eigenvalues --    4.01537   4.16664   4.34543   4.37686
          Condensed to atoms (all electrons):
          Atomic-Atomic Spin Densities.
 Mulliken charges and spin densities:
               1          2
     1  Fe   1.005832   3.918853
     2  N   -0.687450   0.051505
     3  N   -0.686457   0.048962
     4  N   -0.688881   0.048983
     5  N   -0.685002   0.053771
     6  C    0.315164   0.027541
     7  C    0.021846  -0.044995
     8  C    0.035149   0.043092
     9  C    0.304981  -0.065610
    10  C    0.293575  -0.067642
    11  C    0.030767   0.052499
    12  C   -0.012139  -0.055989
    13  C    0.314763   0.033620
    14  C    0.307935   0.032500
    15  C    0.025354  -0.055524
    16  C   -0.011579   0.046614
    17  C    0.292061  -0.068313
    18  C    0.295815  -0.067765
    19  C    0.032040   0.044833
    20  C    0.022734  -0.047116
    21  C    0.318836   0.028477
    22  C   -0.332011  -0.049380
    23  H    0.155596   0.002498
    24  C   -0.315698   0.032581
    25  H    0.156389  -0.001042
    26  C   -0.329708  -0.067353
    27  H    0.159625   0.003406
    28  C   -0.317906   0.033702
    29  H    0.156425  -0.001084
    30  C   -0.608728  -0.002620
    31  H    0.187432   0.001342
    32  H    0.180124   0.000529
    33  H    0.185954   0.001325
    34  C   -0.607282   0.004640
    35  H    0.182682  -0.002440
    36  H    0.185916  -0.002033
    37  H    0.179607   0.000241
    38  C   -0.612326  -0.003329
    39  H    0.181415   0.000715
    40  H    0.184605   0.002121
    41  H    0.193484   0.000886
    42  C   -0.140342   0.020816
    43  H    0.156508  -0.001882
    44  C   -0.411949  -0.032679
    45  H    0.168566   0.001657
    46  H    0.159524   0.001793
    47  C   -0.608625   0.005551
    48  H    0.177403  -0.002005
    49  H    0.184898  -0.002956
    50  H    0.189499  -0.000037
    51  C   -0.147998  -0.011306
    52  H    0.162990   0.001045
    53  C   -0.405828   0.016007
    54  H    0.171585  -0.000808
    55  H    0.161471  -0.000636
    56  C   -0.608373  -0.002728
    57  H    0.186930   0.001139
    58  H    0.185436   0.001467
    59  H    0.180461   0.000553
    60  C   -0.606661   0.004884
    61  H    0.183013  -0.002450
    62  H    0.178940   0.000256
    63  H    0.185686  -0.002444
    64  C   -0.601183   0.000743
    65  H    0.208324   0.000049
    66  H    0.191306   0.000034
    67  H    0.191314   0.000068
    68  N   -0.636089   0.003362
    69  H    0.360272   0.002268
    70  C    0.270883   0.001584
    71  C    0.243624   0.007603
    72  H    0.218932   0.001024
    73  N   -0.453968   0.038834
    74  C   -0.039212  -0.001596
    75  H    0.196128   0.001748
    76  C   -0.601428   0.000333
    77  H    0.190391   0.000393
    78  H    0.206906   0.000080
    79  H    0.189080   0.000354
    80  N   -0.637097  -0.001058
    81  H    0.357423   0.002619
    82  C    0.270533   0.008850
    83  C    0.235801  -0.025064
    84  H    0.215983   0.002915
    85  N   -0.440865   0.053766
    86  C   -0.044179  -0.009286
    87  H    0.193049   0.002141
 Sum of Mulliken charges =  -0.00000   4.00000
 Mulliken charges and spin densities with hydrogens summed into heavy atoms:
               1          2
     1  Fe   1.005832   3.918853
     2  N   -0.687450   0.051505
     3  N   -0.686457   0.048962
     4  N   -0.688881   0.048983
     5  N   -0.685002   0.053771
     6  C    0.315164   0.027541
     7  C    0.021846  -0.044995
     8  C    0.035149   0.043092
     9  C    0.304981  -0.065610
    10  C    0.293575  -0.067642
    11  C    0.030767   0.052499
    12  C   -0.012139  -0.055989
    13  C    0.314763   0.033620
    14  C    0.307935   0.032500
    15  C    0.025354  -0.055524
    16  C   -0.011579   0.046614
    17  C    0.292061  -0.068313
    18  C    0.295815  -0.067765
    19  C    0.032040   0.044833
    20  C    0.022734  -0.047116
    21  C    0.318836   0.028477
    22  C   -0.176415  -0.046882
    24  C   -0.159309   0.031539
    26  C   -0.170083  -0.063947
    28  C   -0.161480   0.032617
    30  C   -0.055219   0.000576
    34  C   -0.059078   0.000407
    38  C   -0.052822   0.000394
    42  C    0.016166   0.018934
    44  C   -0.083860  -0.029229
    47  C   -0.056825   0.000553
    51  C    0.014992  -0.010261
    53  C   -0.072772   0.014564
    56  C   -0.055544   0.000431
    60  C   -0.059022   0.000244
    64  C   -0.010238   0.000894
    68  N   -0.275817   0.005630
    70  C    0.270883   0.001584
    71  C    0.462556   0.008627
    73  N   -0.453968   0.038834
    74  C    0.156916   0.000152
    76  C   -0.015050   0.001160
    80  N   -0.279674   0.001561
    82  C    0.270533   0.008850
    83  C    0.451785  -0.022149
    85  N   -0.440865   0.053766
    86  C    0.148870  -0.007145
 Electronic spatial extent (au):  <R**2>=          22543.0060
 Charge=             -0.0000 electrons
 Dipole moment (field-independent basis, Debye):
    X=             -1.2569    Y=              0.0489    Z=             -0.5081  Tot=              1.3566
 Quadrupole moment (field-independent basis, Debye-Ang):
   XX=           -272.7546   YY=           -269.3898   ZZ=           -227.4865
   XY=             -0.5700   XZ=              3.8067   YZ=              4.5243
 Traceless Quadrupole moment (field-independent basis, Debye-Ang):
   XX=            -16.2110   YY=            -12.8462   ZZ=             29.0571
   XY=             -0.5700   XZ=              3.8067   YZ=              4.5243
 Octapole moment (field-independent basis, Debye-Ang**2):
  XXX=            -49.7843  YYY=            -36.1559  ZZZ=            -27.8704  XYY=             -4.4802
  XXY=             -6.5451  XXZ=              4.5565  XZZ=             -9.7491  YZZ=             28.5732
  YYZ=             14.3694  XYZ=            -17.6357
 Hexadecapole moment (field-independent basis, Debye-Ang**3):
 XXXX=         -12125.0008 YYYY=         -11896.8862 ZZZZ=          -4803.0838 XXXY=              2.3195
 XXXZ=             34.0650 YYYX=            -47.8240 YYYZ=             71.2516 ZZZX=            153.7119
 ZZZY=            160.2353 XXYY=          -3905.3157 XXZZ=          -3125.1121 YYZZ=          -3077.2878
 XXYZ=            -44.5895 YYXZ=             29.3500 ZZXY=             21.8044
 N-N= 7.154076990382D+03 E-N=-2.175939644652D+04  KE= 3.161405531262D+03
                          Isotropic Fermi Contact Couplings
        Atom                 a.u.       MegaHertz       Gauss      10(-4) cm-1
     1  Fe(57)             0.38242      13.86643       4.94789       4.62534
     2  N(14)              0.11461       9.25811       3.30352       3.08817
     3  N(14)              0.11571       9.34691       3.33521       3.11779
     4  N(14)              0.11655       9.41428       3.35925       3.14027
     5  N(14)              0.11675       9.43032       3.36497       3.14562
     6  C(13)              0.00987       2.77341       0.98962       0.92511
     7  C(13)             -0.00311      -0.87529      -0.31233      -0.29197
     8  C(13)              0.01099       3.08775       1.10178       1.02996
     9  C(13)             -0.00393      -1.10575      -0.39456      -0.36884
    10  C(13)             -0.00435      -1.22335      -0.43652      -0.40806
    11  C(13)              0.01260       3.54022       1.26324       1.18089
    12  C(13)             -0.00473      -1.33045      -0.47474      -0.44379
    13  C(13)              0.01125       3.16255       1.12848       1.05491
    14  C(13)              0.01095       3.07720       1.09802       1.02644
    15  C(13)             -0.00453      -1.27299      -0.45423      -0.42462
    16  C(13)              0.01148       3.22756       1.15168       1.07660
    17  C(13)             -0.00455      -1.27881      -0.45631      -0.42657
    18  C(13)             -0.00419      -1.17736      -0.42011      -0.39273
    19  C(13)              0.01132       3.18007       1.13473       1.06076
    20  C(13)             -0.00333      -0.93544      -0.33379      -0.31203
    21  C(13)              0.01023       2.87570       1.02612       0.95923
    22  C(13)             -0.00657      -1.84584      -0.65864      -0.61571
    23  H(1)               0.00079       0.87925       0.31374       0.29329
    24  C(13)              0.00640       1.79731       0.64133       0.59952
    25  H(1)              -0.00033      -0.36525      -0.13033      -0.12183
    26  C(13)             -0.00914      -2.56842      -0.91648      -0.85673
    27  H(1)               0.00104       1.16318       0.41505       0.38799
    28  C(13)              0.00657       1.84624       0.65878       0.61584
    29  H(1)              -0.00033      -0.37287      -0.13305      -0.12438
    30  C(13)             -0.00034      -0.09663      -0.03448      -0.03223
    31  H(1)               0.00063       0.70896       0.25297       0.23648
    32  H(1)               0.00016       0.18205       0.06496       0.06072
    33  H(1)               0.00063       0.69947       0.24959       0.23332
    34  C(13)              0.00223       0.62765       0.22396       0.20936
    35  H(1)              -0.00097      -1.08199      -0.38608      -0.36091
    36  H(1)              -0.00079      -0.88760      -0.31672      -0.29607
    37  H(1)               0.00005       0.05669       0.02023       0.01891
    38  C(13)             -0.00066      -0.18679      -0.06665      -0.06231
    39  H(1)               0.00037       0.40879       0.14586       0.13636
    40  H(1)               0.00103       1.15031       0.41046       0.38370
    41  H(1)               0.00033       0.37195       0.13272       0.12407
    42  C(13)              0.00443       1.24420       0.44396       0.41502
    43  H(1)              -0.00052      -0.57997      -0.20695      -0.19346
    44  C(13)             -0.00440      -1.23671      -0.44129      -0.41252
    45  H(1)               0.00051       0.56938       0.20317       0.18992
    46  H(1)               0.00054       0.60856       0.21715       0.20299
    47  C(13)              0.00254       0.71365       0.25465       0.23805
    48  H(1)              -0.00066      -0.74045      -0.26421      -0.24699
    49  H(1)              -0.00133      -1.48978      -0.53159      -0.49694
    50  H(1)              -0.00011      -0.11929      -0.04256      -0.03979
    51  C(13)             -0.00169      -0.47433      -0.16925      -0.15822
    52  H(1)               0.00039       0.43658       0.15578       0.14563
    53  C(13)              0.00283       0.79601       0.28404       0.26552
    54  H(1)              -0.00025      -0.28426      -0.10143      -0.09482
    55  H(1)              -0.00019      -0.21700      -0.07743      -0.07238
    56  C(13)             -0.00035      -0.09809      -0.03500      -0.03272
    57  H(1)               0.00059       0.65890       0.23511       0.21979
    58  H(1)               0.00072       0.80868       0.28856       0.26975
    59  H(1)               0.00017       0.19355       0.06906       0.06456
    60  C(13)              0.00235       0.66067       0.23574       0.22038
    61  H(1)              -0.00090      -1.00392      -0.35822      -0.33487
    62  H(1)               0.00006       0.06775       0.02417       0.02260
    63  H(1)              -0.00095      -1.06534      -0.38014      -0.35536
    64  C(13)              0.00046       0.12894       0.04601       0.04301
    65  H(1)               0.00004       0.04190       0.01495       0.01398
    66  H(1)               0.00003       0.03853       0.01375       0.01285
    67  H(1)               0.00005       0.05715       0.02039       0.01906
    68  N(14)              0.00860       0.69479       0.24792       0.23176
    69  H(1)               0.00058       0.65349       0.23318       0.21798
    70  C(13)              0.00285       0.80173       0.28608       0.26743
    71  C(13)              0.00128       0.36015       0.12851       0.12013
    72  H(1)               0.00012       0.13102       0.04675       0.04371
    73  N(14)              0.11623       9.38865       3.35011       3.13172
    74  C(13)             -0.00219      -0.61427      -0.21919      -0.20490
    75  H(1)               0.00040       0.44175       0.15763       0.14735
    76  C(13)              0.00054       0.15063       0.05375       0.05025
    77  H(1)               0.00016       0.18247       0.06511       0.06087
    78  H(1)               0.00005       0.05707       0.02036       0.01904
    79  H(1)               0.00015       0.16218       0.05787       0.05410
    80  N(14)              0.00797       0.64392       0.22977       0.21479
    81  H(1)               0.00075       0.84339       0.30094       0.28132
    82  C(13)              0.00435       1.22220       0.43611       0.40768
    83  C(13)              0.00006       0.01692       0.00604       0.00564
    84  H(1)               0.00077       0.85856       0.30635       0.28638
    85  N(14)              0.12275       9.91497       3.53791       3.30728
    86  C(13)              0.00028       0.07819       0.02790       0.02608
    87  H(1)               0.00056       0.62404       0.22267       0.20816
 --------------------------------------------------------
       Center         ----  Spin Dipole Couplings  ----
                      3XX-RR        3YY-RR        3ZZ-RR
 --------------------------------------------------------
     1   Atom       -0.189024      0.981750     -0.792725
     2   Atom       -0.119360      0.214066     -0.094706
     3   Atom        0.212919     -0.119178     -0.093741
     4   Atom       -0.118514      0.221091     -0.102577
     5   Atom        0.212845     -0.122291     -0.090554
     6   Atom       -0.007142      0.013307     -0.006165
     7   Atom        0.013128      0.039761     -0.052889
     8   Atom       -0.022712      0.002340      0.020372
     9   Atom        0.012420      0.076386     -0.088806
    10   Atom        0.055129      0.038418     -0.093546
    11   Atom       -0.003683     -0.027791      0.031474
    12   Atom        0.044709      0.020186     -0.064895
    13   Atom        0.031259     -0.028535     -0.002723
    14   Atom       -0.008221      0.012775     -0.004554
    15   Atom        0.021766      0.045297     -0.067063
    16   Atom       -0.026246      0.001991      0.024255
    17   Atom        0.019473      0.076328     -0.095800
    18   Atom        0.056200      0.035279     -0.091479
    19   Atom        0.001390     -0.022560      0.021170
    20   Atom        0.040355      0.014155     -0.054510
    21   Atom        0.031700     -0.026192     -0.005508
    22   Atom        0.035164      0.024050     -0.059215
    23   Atom        0.005230      0.000645     -0.005875
    24   Atom       -0.009543      0.005509      0.004034
    25   Atom       -0.000468      0.006860     -0.006392
    26   Atom        0.047325      0.034452     -0.081777
    27   Atom        0.005362      0.001092     -0.006454
    28   Atom       -0.010106      0.005288      0.004818
    29   Atom       -0.000242      0.006681     -0.006440
    30   Atom       -0.003466      0.007073     -0.003607
    31   Atom       -0.002652      0.005387     -0.002735
    32   Atom       -0.002477      0.004814     -0.002337
    33   Atom       -0.002173      0.004987     -0.002814
    34   Atom       -0.000997      0.004530     -0.003534
    35   Atom       -0.000482      0.003179     -0.002697
    36   Atom       -0.000877      0.002854     -0.001977
    37   Atom       -0.001272      0.003362     -0.002090
    38   Atom        0.004427     -0.001159     -0.003268
    39   Atom        0.002452      0.000376     -0.002828
    40   Atom        0.003579     -0.001022     -0.002557
    41   Atom        0.003981     -0.001970     -0.002011
    42   Atom       -0.000916     -0.005520      0.006437
    43   Atom        0.003884     -0.001604     -0.002280
    44   Atom        0.017359      0.003244     -0.020603
    45   Atom        0.005497     -0.003549     -0.001947
    46   Atom        0.001837     -0.000957     -0.000880
    47   Atom       -0.000862      0.004751     -0.003889
    48   Atom       -0.000436      0.002823     -0.002387
    49   Atom       -0.000763      0.003236     -0.002473
    50   Atom       -0.001114      0.003226     -0.002112
    51   Atom       -0.001922      0.010723     -0.008800
    52   Atom       -0.002501      0.005511     -0.003010
    53   Atom       -0.004513     -0.000760      0.005273
    54   Atom       -0.001023      0.002702     -0.001679
    55   Atom       -0.001442      0.003088     -0.001646
    56   Atom        0.004684     -0.001141     -0.003543
    57   Atom        0.003382     -0.000479     -0.002903
    58   Atom        0.002725     -0.000110     -0.002616
    59   Atom        0.004099     -0.001784     -0.002316
    60   Atom        0.006533     -0.003168     -0.003365
    61   Atom        0.005107     -0.002412     -0.002694
    62   Atom        0.003984     -0.001938     -0.002046
    63   Atom        0.004366     -0.002609     -0.001756
    64   Atom       -0.002243     -0.003165      0.005408
    65   Atom       -0.000943     -0.001937      0.002880
    66   Atom       -0.002231     -0.001815      0.004046
    67   Atom       -0.001262     -0.002528      0.003789
    68   Atom       -0.008669     -0.006039      0.014707
    69   Atom       -0.005013     -0.004773      0.009787
    70   Atom       -0.006689     -0.007523      0.014212
    71   Atom       -0.016759     -0.017375      0.034134
    72   Atom       -0.010816     -0.010566      0.021382
    73   Atom       -0.104343     -0.111641      0.215984
    74   Atom       -0.005679     -0.015663      0.021341
    75   Atom        0.002123     -0.005156      0.003033
    76   Atom       -0.002528     -0.003940      0.006468
    77   Atom       -0.001365     -0.002515      0.003880
    78   Atom       -0.001240     -0.002658      0.003898
    79   Atom       -0.002295     -0.002499      0.004794
    80   Atom       -0.012653     -0.008455      0.021108
    81   Atom       -0.004565     -0.003261      0.007826
    82   Atom       -0.005454     -0.007458      0.012912
    83   Atom       -0.030676     -0.014827      0.045503
    84   Atom       -0.014042     -0.000794      0.014837
    85   Atom       -0.096699     -0.106512      0.203211
    86   Atom       -0.011458     -0.022184      0.033642
    87   Atom       -0.001670     -0.009186      0.010856
 --------------------------------------------------------
                        XY            XZ            YZ
 --------------------------------------------------------
     1   Atom       -1.101933     -0.075316     -0.066219
     2   Atom        0.058297      0.004462     -0.028745
     3   Atom       -0.057068     -0.036630      0.005717
     4   Atom        0.058718     -0.002838     -0.017435
     5   Atom       -0.054731     -0.037059      0.015887
     6   Atom        0.033901     -0.002273     -0.009483
     7   Atom        0.005877     -0.016916     -0.004107
     8   Atom        0.002418      0.010668      0.000294
     9   Atom       -0.022310     -0.024777     -0.003543
    10   Atom       -0.034365     -0.019218      0.002591
    11   Atom       -0.007599      0.005321     -0.001465
    12   Atom       -0.001576     -0.011643      0.000394
    13   Atom        0.020646     -0.004092     -0.001686
    14   Atom        0.035055      0.000122     -0.003633
    15   Atom        0.006547     -0.007917     -0.003379
    16   Atom        0.002077      0.002923      0.001121
    17   Atom       -0.021905     -0.003857     -0.008282
    18   Atom       -0.037723     -0.017327     -0.016839
    19   Atom       -0.005401      0.005502      0.009790
    20   Atom       -0.004256     -0.015575     -0.013187
    21   Atom        0.021354     -0.009250     -0.000545
    22   Atom        0.017584     -0.021902     -0.014494
    23   Atom        0.006742     -0.003075     -0.002173
    24   Atom       -0.022342      0.003904      0.002664
    25   Atom       -0.010346     -0.000528      0.001143
    26   Atom        0.019942     -0.013050     -0.003491
    27   Atom        0.005950     -0.000969     -0.000535
    28   Atom       -0.022688      0.002634      0.003076
    29   Atom       -0.010615      0.000330     -0.000127
    30   Atom       -0.002049      0.000076     -0.000175
    31   Atom       -0.001825     -0.000392      0.001331
    32   Atom        0.000079      0.000017     -0.000468
    33   Atom       -0.002405      0.000470     -0.001307
    34   Atom        0.004444     -0.000969     -0.001542
    35   Atom        0.003777     -0.000082     -0.000215
    36   Atom        0.003460     -0.001241     -0.002095
    37   Atom        0.001922     -0.000364     -0.000891
    38   Atom       -0.005017     -0.001058      0.000647
    39   Atom       -0.004370     -0.001509      0.001206
    40   Atom       -0.003685      0.000532     -0.000299
    41   Atom       -0.002506     -0.001485      0.000353
    42   Atom        0.001332     -0.003794      0.007229
    43   Atom        0.002395     -0.001694     -0.000612
    44   Atom        0.004485      0.008556     -0.018583
    45   Atom        0.000108      0.000373      0.000767
    46   Atom       -0.001253      0.000672     -0.000455
    47   Atom        0.004446     -0.000657     -0.000549
    48   Atom        0.003867     -0.000883     -0.001279
    49   Atom        0.003206      0.000262      0.000404
    50   Atom        0.001844     -0.000286     -0.000625
    51   Atom       -0.003205      0.004140      0.002910
    52   Atom       -0.002566      0.000294     -0.000944
    53   Atom        0.003330     -0.008673     -0.005656
    54   Atom        0.000929      0.000565      0.000554
    55   Atom       -0.001245     -0.000304     -0.000200
    56   Atom       -0.004872     -0.000499      0.000396
    57   Atom       -0.004071      0.000792     -0.000632
    58   Atom       -0.003986     -0.001433      0.001139
    59   Atom       -0.002132     -0.000610      0.000227
    60   Atom        0.001830     -0.002156     -0.000421
    61   Atom        0.002028     -0.000568     -0.000092
    62   Atom        0.000105     -0.001055     -0.000084
    63   Atom        0.001416     -0.002593     -0.000517
    64   Atom        0.001261      0.004008      0.002762
    65   Atom        0.001777      0.003706      0.002778
    66   Atom        0.000541      0.001583      0.002374
    67   Atom        0.000303      0.003018      0.000680
    68   Atom       -0.004660      0.001506      0.000650
    69   Atom        0.000076     -0.000608     -0.001652
    70   Atom        0.001345      0.006849      0.003884
    71   Atom       -0.002142     -0.012020     -0.010126
    72   Atom        0.007428     -0.016541     -0.016756
    73   Atom        0.001261      0.056406      0.025148
    74   Atom        0.010767      0.024503      0.016573
    75   Atom        0.016712      0.021111      0.016908
    76   Atom       -0.000499      0.004020     -0.001016
    77   Atom        0.000276      0.002908      0.000527
    78   Atom       -0.001061      0.003703     -0.001809
    79   Atom       -0.000151      0.001375     -0.000969
    80   Atom       -0.006997      0.004752      0.007038
    81   Atom       -0.000210      0.000176      0.003826
    82   Atom        0.004488      0.004823     -0.000256
    83   Atom       -0.029566     -0.001371      0.031819
    84   Atom       -0.009334     -0.013124      0.025140
    85   Atom        0.024917      0.050696      0.035244
    86   Atom       -0.016152      0.029932     -0.009983
    87   Atom       -0.012632      0.022152     -0.016393
 --------------------------------------------------------


 ---------------------------------------------------------------------------------
              Anisotropic Spin Dipole Couplings in Principal Axis System
 ---------------------------------------------------------------------------------

       Atom             a.u.   MegaHertz   Gauss  10(-4) cm-1        Axes

              Baa    -0.9250   -16.015    -5.715    -5.342  0.6847  0.4165  0.5981
     1 Fe(57) Bbb    -0.7192   -12.452    -4.443    -4.153 -0.5158 -0.3029  0.8014
              Bcc     1.6443    28.467    10.158     9.496 -0.5149  0.8572 -0.0074
 
              Baa    -0.1317    -5.079    -1.812    -1.694  0.9496 -0.1814 -0.2555
     2 N(14)  Bbb    -0.0946    -3.650    -1.302    -1.218  0.2666  0.0393  0.9630
              Bcc     0.2263     8.729     3.115     2.912  0.1646  0.9826 -0.0857
 
              Baa    -0.1287    -4.964    -1.771    -1.656  0.1661  0.9860  0.0128
     3 N(14)  Bbb    -0.0980    -3.781    -1.349    -1.261  0.1112 -0.0316  0.9933
              Bcc     0.2267     8.745     3.120     2.917  0.9798 -0.1635 -0.1149
 
              Baa    -0.1284    -4.951    -1.767    -1.652  0.9861 -0.1659 -0.0036
     4 N(14)  Bbb    -0.1035    -3.992    -1.424    -1.332  0.0123  0.0514  0.9986
              Bcc     0.2319     8.943     3.191     2.983  0.1655  0.9848 -0.0527
 
              Baa    -0.1335    -5.150    -1.837    -1.718  0.1254  0.9608 -0.2471
[...]
    28 C(13)  Bbb     0.0052     0.704     0.251     0.235  0.1343  0.0241  0.9906
              Bcc     0.0216     2.899     1.035     0.967 -0.5776  0.8142  0.0586
 
              Baa    -0.0080    -4.252    -1.517    -1.418  0.8039  0.5814 -0.1253
    29 H(1)   Bbb    -0.0064    -3.425    -1.222    -1.143  0.0931  0.0851  0.9920
              Bcc     0.0144     7.677     2.739     2.561 -0.5874  0.8092 -0.0142
 
              Baa    -0.0039    -0.518    -0.185    -0.173  0.9693  0.1790 -0.1684
    30 C(13)  Bbb    -0.0036    -0.483    -0.172    -0.161  0.1625  0.0474  0.9856
              Bcc     0.0075     1.001     0.357     0.334 -0.1844  0.9827 -0.0168
 
              Baa    -0.0031    -1.660    -0.592    -0.554  0.8409  0.0972  0.5324
    31 H(1)   Bbb    -0.0029    -1.542    -0.550    -0.514 -0.4985 -0.2437  0.8319
              Bcc     0.0060     3.202     1.143     1.068 -0.2106  0.9650  0.1565
 
              Baa    -0.0025    -1.324    -0.473    -0.442  0.9826 -0.0224 -0.1842
    32 H(1)   Bbb    -0.0024    -1.261    -0.450    -0.421  0.1853  0.0619  0.9807
              Bcc     0.0048     2.585     0.922     0.862  0.0106  0.9978 -0.0649
 
              Baa    -0.0031    -1.634    -0.583    -0.545 -0.4193  0.0221  0.9076
    33 H(1)   Bbb    -0.0029    -1.535    -0.548    -0.512  0.8606  0.3279  0.3897
              Bcc     0.0059     3.169     1.131     1.057 -0.2890  0.9444 -0.1565
 
              Baa    -0.0039    -0.518    -0.185    -0.173  0.2856  0.0248  0.9580
    34 C(13)  Bbb    -0.0034    -0.462    -0.165    -0.154  0.8293 -0.5075 -0.2341
              Bcc     0.0073     0.980     0.350     0.327  0.4804  0.8613 -0.1655
 
              Baa    -0.0029    -1.527    -0.545    -0.509  0.8110 -0.5169 -0.2738
    35 H(1)   Bbb    -0.0027    -1.435    -0.512    -0.479  0.2461 -0.1232  0.9614
              Bcc     0.0056     2.962     1.057     0.988  0.5307  0.8471 -0.0273
 
              Baa    -0.0029    -1.570    -0.560    -0.524  0.8519 -0.5223 -0.0382
    36 H(1)   Bbb    -0.0028    -1.467    -0.524    -0.489  0.1893  0.2391  0.9524
              Bcc     0.0057     3.037     1.084     1.013  0.4883  0.8186 -0.3026
 
              Baa    -0.0022    -1.196    -0.427    -0.399  0.1858  0.0917  0.9783
    37 H(1)   Bbb    -0.0020    -1.046    -0.373    -0.349  0.9232 -0.3572 -0.1418
              Bcc     0.0042     2.242     0.800     0.748  0.3364  0.9295 -0.1511
 
              Baa    -0.0041    -0.551    -0.197    -0.184  0.5036  0.8634 -0.0313
    38 C(13)  Bbb    -0.0034    -0.457    -0.163    -0.153  0.1144 -0.0307  0.9930
              Bcc     0.0075     1.009     0.360     0.337  0.8563 -0.5036 -0.1142
 
              Baa    -0.0032    -1.727    -0.616    -0.576  0.1200 -0.1808  0.9762
    39 H(1)   Bbb    -0.0031    -1.642    -0.586    -0.548  0.6297  0.7740  0.0659
              Bcc     0.0063     3.369     1.202     1.124  0.7675 -0.6068 -0.2068
 
              Baa    -0.0031    -1.636    -0.584    -0.546  0.4845  0.8748  0.0077
    40 H(1)   Bbb    -0.0026    -1.389    -0.495    -0.463 -0.0685  0.0292  0.9972
              Bcc     0.0057     3.024     1.079     1.009  0.8721 -0.4837  0.0740
 
              Baa    -0.0029    -1.566    -0.559    -0.522  0.3788  0.8850  0.2706
    41 H(1)   Bbb    -0.0023    -1.216    -0.434    -0.406  0.0921 -0.3270  0.9405
              Bcc     0.0052     2.782     0.993     0.928  0.9209 -0.3313 -0.2054
 
              Baa    -0.0099    -1.323    -0.472    -0.441 -0.3139  0.8386 -0.4452
    42 C(13)  Bbb    -0.0007    -0.097    -0.035    -0.032  0.9159  0.3909  0.0907
              Bcc     0.0106     1.420     0.507     0.474 -0.2501  0.3793  0.8908
 
              Baa    -0.0027    -1.449    -0.517    -0.483  0.2532 -0.0133  0.9673
    43 H(1)   Bbb    -0.0025    -1.334    -0.476    -0.445 -0.3265  0.9400  0.0984
              Bcc     0.0052     2.783     0.993     0.928  0.9106  0.3408 -0.2337
 
              Baa    -0.0326    -4.378    -1.562    -1.460 -0.1897  0.4703  0.8619
    44 C(13)  Bbb     0.0134     1.797     0.641     0.600  0.0276  0.8800 -0.4741
              Bcc     0.0192     2.581     0.921     0.861  0.9814  0.0662  0.1799
 
              Baa    -0.0039    -2.058    -0.734    -0.687  0.0042  0.9276 -0.3734
    45 H(1)   Bbb    -0.0017    -0.886    -0.316    -0.295 -0.0539  0.3731  0.9262
              Bcc     0.0055     2.944     1.050     0.982  0.9985  0.0162  0.0516
 
              Baa    -0.0015    -0.806    -0.287    -0.269  0.2604  0.8928  0.3675
    46 H(1)   Bbb    -0.0010    -0.529    -0.189    -0.177 -0.3353 -0.2733  0.9016
              Bcc     0.0025     1.335     0.476     0.445  0.9054 -0.3580  0.2282
 
              Baa    -0.0041    -0.546    -0.195    -0.182  0.3623 -0.1251  0.9236
    47 C(13)  Bbb    -0.0032    -0.428    -0.153    -0.143  0.7969 -0.4724 -0.3766
              Bcc     0.0073     0.974     0.348     0.325  0.4835  0.8725 -0.0714
 
              Baa    -0.0030    -1.604    -0.572    -0.535  0.8388 -0.5378  0.0849
    48 H(1)   Bbb    -0.0027    -1.432    -0.511    -0.478  0.0322  0.2047  0.9783
              Bcc     0.0057     3.035     1.083     1.013  0.5435  0.8178 -0.1890
 
              Baa    -0.0026    -1.367    -0.488    -0.456  0.7736 -0.3933 -0.4968
    49 H(1)   Bbb    -0.0025    -1.326    -0.473    -0.442  0.4084 -0.2900  0.8655
              Bcc     0.0050     2.692     0.961     0.898  0.4845  0.8725  0.0637
 
              Baa    -0.0022    -1.172    -0.418    -0.391  0.1597  0.0593  0.9854
    50 H(1)   Bbb    -0.0018    -0.952    -0.340    -0.318  0.9254 -0.3566 -0.1286
              Bcc     0.0040     2.124     0.758     0.708  0.3437  0.9324 -0.1118
 
              Baa    -0.0115    -1.539    -0.549    -0.513 -0.4414 -0.1790  0.8793
    51 C(13)  Bbb    -0.0002    -0.027    -0.010    -0.009  0.8748  0.1325  0.4661
              Bcc     0.0117     1.566     0.559     0.523 -0.1999  0.9749  0.0981
 
              Baa    -0.0033    -1.736    -0.620    -0.579  0.9564  0.2673 -0.1175
    52 H(1)   Bbb    -0.0031    -1.661    -0.593    -0.554  0.0841  0.1331  0.9875
              Bcc     0.0064     3.397     1.212     1.133 -0.2796  0.9544 -0.1049
 
              Baa    -0.0096    -1.285    -0.459    -0.429  0.8641 -0.0035  0.5033
    53 C(13)  Bbb    -0.0038    -0.511    -0.182    -0.170 -0.2091  0.9071  0.3653
              Bcc     0.0134     1.796     0.641     0.599 -0.4578 -0.4209  0.7831
 
              Baa    -0.0020    -1.069    -0.382    -0.357 -0.4958 -0.0043  0.8685
    54 H(1)   Bbb    -0.0010    -0.540    -0.193    -0.180  0.8344 -0.2795  0.4749
              Bcc     0.0030     1.610     0.574     0.537  0.2407  0.9601  0.1422
 
              Baa    -0.0021    -1.096    -0.391    -0.366  0.7350  0.2031  0.6469
    55 H(1)   Bbb    -0.0014    -0.724    -0.258    -0.241 -0.6315 -0.1425  0.7622
              Bcc     0.0034     1.820     0.649     0.607 -0.2470  0.9687 -0.0235
 
              Baa    -0.0039    -0.528    -0.188    -0.176  0.4625  0.8454 -0.2672
    56 C(13)  Bbb    -0.0036    -0.477    -0.170    -0.159  0.1799  0.2056  0.9620
              Bcc     0.0075     1.004     0.358     0.335  0.8682 -0.4930 -0.0570
 
              Baa    -0.0031    -1.679    -0.599    -0.560  0.3486  0.6838  0.6410
    57 H(1)   Bbb    -0.0029    -1.560    -0.556    -0.520 -0.4175 -0.4990  0.7594
              Bcc     0.0061     3.239     1.156     1.080  0.8392 -0.5323  0.1115
 
              Baa    -0.0031    -1.641    -0.585    -0.547 -0.1802 -0.5544  0.8125
    58 H(1)   Bbb    -0.0029    -1.523    -0.543    -0.508  0.5757  0.6103  0.5441
              Bcc     0.0059     3.163     1.129     1.055  0.7975 -0.5659 -0.2092
 
              Baa    -0.0025    -1.324    -0.473    -0.442  0.2779  0.9284 -0.2466
    59 H(1)   Bbb    -0.0024    -1.263    -0.451    -0.421  0.1598  0.2085  0.9649
              Bcc     0.0048     2.588     0.923     0.863  0.9472 -0.3075 -0.0904
 
              Baa    -0.0038    -0.512    -0.183    -0.171  0.1822  0.1193  0.9760
    60 C(13)  Bbb    -0.0035    -0.470    -0.168    -0.157 -0.1961  0.9771 -0.0828
              Bcc     0.0073     0.982     0.350     0.328  0.9635  0.1763 -0.2014
 
              Baa    -0.0029    -1.567    -0.559    -0.523 -0.2532  0.9376 -0.2384
    61 H(1)   Bbb    -0.0027    -1.452    -0.518    -0.484  0.0061  0.2480  0.9687
              Bcc     0.0057     3.019     1.077     1.007  0.9674  0.2438 -0.0685
 
              Baa    -0.0022    -1.195    -0.426    -0.399  0.1598  0.2133  0.9638
    62 H(1)   Bbb    -0.0019    -1.028    -0.367    -0.343 -0.0544  0.9768 -0.2072
              Bcc     0.0042     2.223     0.793     0.741  0.9857  0.0193 -0.1676
 
              Baa    -0.0029    -1.540    -0.549    -0.514 -0.1740  0.9835  0.0502
    63 H(1)   Bbb    -0.0027    -1.444    -0.515    -0.482  0.3420  0.0126  0.9396
              Bcc     0.0056     2.984     1.065     0.995  0.9234  0.1807 -0.3385
 
              Baa    -0.0040    -0.543    -0.194    -0.181 -0.6463  0.7613  0.0515
    64 C(13)  Bbb    -0.0039    -0.524    -0.187    -0.175  0.6612  0.5924 -0.4603
              Bcc     0.0080     1.067     0.381     0.356  0.3810  0.2634  0.8863
 
              Baa    -0.0033    -1.754    -0.626    -0.585 -0.6737  0.7354  0.0736
    65 H(1)   Bbb    -0.0031    -1.680    -0.599    -0.560 -0.5563 -0.5701  0.6046
              Bcc     0.0064     3.434     1.225     1.146  0.4865  0.3664  0.7931
 
              Baa    -0.0027    -1.420    -0.507    -0.474  0.2994  0.8751 -0.3803
    66 H(1)   Bbb    -0.0026    -1.387    -0.495    -0.463  0.9289 -0.3583 -0.0933
              Bcc     0.0053     2.807     1.002     0.936  0.2179  0.3253  0.9201
 
              Baa    -0.0027    -1.427    -0.509    -0.476  0.8855  0.1719 -0.4316
    67 H(1)   Bbb    -0.0026    -1.385    -0.494    -0.462 -0.1960  0.9805 -0.0117
              Bcc     0.0053     2.812     1.003     0.938  0.4212  0.0950  0.9020
 
              Baa    -0.0123    -0.474    -0.169    -0.158  0.7974  0.6006 -0.0589
    68 N(14)  Bbb    -0.0025    -0.097    -0.035    -0.032 -0.6004  0.7994  0.0223
              Bcc     0.0148     0.571     0.204     0.191  0.0605  0.0176  0.9980
 
              Baa    -0.0050    -2.689    -0.959    -0.897  0.9949 -0.0959  0.0301
    69 H(1)   Bbb    -0.0050    -2.645    -0.944    -0.882  0.0918  0.9892  0.1146
              Bcc     0.0100     5.334     1.903     1.779 -0.0408 -0.1113  0.9930
 
              Baa    -0.0088    -1.179    -0.421    -0.393  0.9299 -0.2883 -0.2282
    70 C(13)  Bbb    -0.0082    -1.095    -0.391    -0.365  0.2346  0.9431 -0.2356
              Bcc     0.0169     2.274     0.811     0.758  0.2832  0.1655  0.9447
 
              Baa    -0.0235    -3.149    -1.124    -1.050  0.6868  0.6778  0.2625
    71 C(13)  Bbb    -0.0150    -2.008    -0.716    -0.670 -0.6977  0.7160 -0.0232
              Bcc     0.0384     5.157     1.840     1.720 -0.2036 -0.1672  0.9647
 
              Baa    -0.0181    -9.669    -3.450    -3.225  0.7358 -0.6768  0.0210
    72 H(1)   Bbb    -0.0175    -9.344    -3.334    -3.117  0.5713  0.6371  0.5174
              Bcc     0.0356    19.013     6.784     6.342 -0.3636 -0.3687  0.8555
 
              Baa    -0.1167    -4.502    -1.606    -1.502  0.7173  0.6751 -0.1726
    73 N(14)  Bbb    -0.1107    -4.271    -1.524    -1.425 -0.6764  0.7341  0.0603
              Bcc     0.2275     8.773     3.130     2.926  0.1674  0.0735  0.9831
 
              Baa    -0.0226    -3.036    -1.083    -1.013 -0.4195  0.9015 -0.1060
    74 C(13)  Bbb    -0.0199    -2.669    -0.953    -0.890  0.7672  0.2897 -0.5723
              Bcc     0.0425     5.705     2.036     1.903  0.4852  0.3215  0.8132
 
              Baa    -0.0186    -9.946    -3.549    -3.318  0.7474 -0.6168 -0.2468
    75 H(1)   Bbb    -0.0184    -9.837    -3.510    -3.281 -0.2626 -0.6156  0.7430
              Bcc     0.0371    19.782     7.059     6.599  0.6103  0.4905  0.6221
 
              Baa    -0.0042    -0.558    -0.199    -0.186  0.7100  0.6739 -0.2042
    76 C(13)  Bbb    -0.0040    -0.530    -0.189    -0.177 -0.6077  0.7329  0.3060
              Bcc     0.0081     1.088     0.388     0.363  0.3558 -0.0932  0.9299
 
              Baa    -0.0027    -1.425    -0.509    -0.475  0.8750 -0.3208 -0.3626
    77 H(1)   Bbb    -0.0025    -1.359    -0.485    -0.453  0.2644  0.9441 -0.1970
              Bcc     0.0052     2.785     0.994     0.929  0.4055  0.0765  0.9109
 
              Baa    -0.0033    -1.741    -0.621    -0.581  0.7422  0.6316 -0.2243
    78 H(1)   Bbb    -0.0031    -1.634    -0.583    -0.545 -0.4933  0.7413  0.4552
              Bcc     0.0063     3.374     1.204     1.126  0.4537 -0.2272  0.8617
 
              Baa    -0.0026    -1.406    -0.502    -0.469 -0.3055  0.9353  0.1785
    79 H(1)   Bbb    -0.0025    -1.356    -0.484    -0.452  0.9346  0.3304 -0.1315
              Bcc     0.0052     2.762     0.985     0.921  0.1820 -0.1267  0.9751
 
              Baa    -0.0195    -0.751    -0.268    -0.250  0.7660  0.6123 -0.1960
    80 N(14)  Bbb    -0.0035    -0.136    -0.048    -0.045 -0.6364  0.7654 -0.0959
              Bcc     0.0230     0.886     0.316     0.296  0.0912  0.1982  0.9759
 
              Baa    -0.0048    -2.544    -0.908    -0.849  0.7801  0.5955 -0.1918
    81 H(1)   Bbb    -0.0043    -2.268    -0.809    -0.757 -0.6256  0.7463 -0.2273
              Bcc     0.0090     4.812     1.717     1.605  0.0078  0.2973  0.9547
 
              Baa    -0.0115    -1.544    -0.551    -0.515 -0.6587  0.7397  0.1379
    82 C(13)  Bbb    -0.0026    -0.353    -0.126    -0.118  0.7105  0.6718 -0.2094
              Bcc     0.0141     1.897     0.677     0.633  0.2475  0.0400  0.9681
 
              Baa    -0.0570    -7.648    -2.729    -2.551  0.7282  0.6572 -0.1943
    83 C(13)  Bbb    -0.0042    -0.561    -0.200    -0.187  0.6682 -0.6180  0.4142
              Bcc     0.0612     8.209     2.929     2.738 -0.1522  0.4315  0.8892
 
              Baa    -0.0194   -10.376    -3.703    -3.461  0.4678 -0.6178  0.6321
    84 H(1)   Bbb    -0.0189   -10.059    -3.589    -3.355  0.8335  0.5463 -0.0829
              Bcc     0.0383    20.436     7.292     6.817 -0.2940  0.5656  0.7705
 
              Baa    -0.1271    -4.902    -1.749    -1.635 -0.6530  0.7571  0.0194
    85 N(14)  Bbb    -0.0891    -3.438    -1.227    -1.147  0.7385  0.6422 -0.2055
              Bcc     0.2162     8.340     2.976     2.782  0.1681  0.1198  0.9785
 
              Baa    -0.0358    -4.810    -1.716    -1.604  0.7027  0.6813 -0.2048
    86 C(13)  Bbb    -0.0163    -2.186    -0.780    -0.729 -0.5426  0.6995  0.4651
              Bcc     0.0521     6.996     2.496     2.334  0.4602 -0.2157  0.8612
 
              Baa    -0.0186    -9.936    -3.545    -3.314  0.7069  0.6920 -0.1464
    87 H(1)   Bbb    -0.0183    -9.755    -3.481    -3.254 -0.4429  0.5944  0.6712
              Bcc     0.0369    19.691     7.026     6.568  0.5515 -0.4096  0.7267
 

 ---------------------------------------------------------------------------------

 Unable to Open any file for archive entry.
 1\1\GINC-BGN1038\SP\UAPFD\Gen\C38H40Fe1N8(5)\BECSLEIP\12-Oct-2024\0\\#
  apfd/gen scf=maxcycle=999 geom=check\\5nvi_II_Q\\0,5\Fe,0,17.79963722
 28,56.162756154,36.0248220621\N,0,17.4387824416,58.1347947031,35.94276
 81497\N,0,15.921646892,55.8003194785,35.4059154524\N,0,18.12235312,54.
 1879217959,36.1917846547\N,0,19.6548353211,56.5247308108,36.6667885908
 \C,0,18.2943620321,59.1310877288,36.2825362949\C,0,17.7143758924,60.42
 50390752,35.9902933939\C,0,16.4802279319,60.1818633684,35.4746287026\C
 ,0,16.3275618161,58.7424366712,35.4512569741\C,0,14.9966245591,56.7223
 779394,35.02749713\C,0,13.7456658888,56.0885579216,34.6981663715\C,0,1
 3.9271823046,54.7458647703,34.9076528212\C,0,15.3028258754,54.59299268
 68,35.3452176874\C,0,17.2021624213,53.1968647753,36.0497607057\C,0,17.
 7874832021,51.9130712239,36.3367875931\C,0,19.103381193,52.1496048067,
 36.6420538559\C,0,19.2899730344,53.5822882707,36.5215029199\C,0,20.635
 7516537,55.6083458658,36.8776881939\C,0,21.855045865,56.257152819,37.3
 102367369\C,0,21.5876094404,57.5898275335,37.3415207874\C,0,20.2093293
 962,57.7373466664,36.9251878326\C,0,19.5788966098,58.9578278563,36.767
 4816324\H,0,20.1453996161,59.8463277665,37.004041915\C,0,15.190755007,
 58.0951535638,35.011572861\H,0,14.3735138818,58.7109668199,34.66699512
 2\C,0,15.8854342533,53.379737359,35.6582094857\H,0,15.2644464466,52.49
 79293607,35.6025893349\C,0,20.4745192588,54.2362742733,36.8183892216\H
 ,0,21.3334293887,53.6253709981,37.0545250868\C,0,15.4479089903,61.1480
 663698,35.0020451361\H,0,15.2353107088,60.9968090465,33.9433749234\H,0
 ,15.7851436692,62.172670409,35.139459012\H,0,14.5173888996,61.01670936
 68,35.5551366975\C,0,18.3897004581,61.7295810625,36.2453538984\H,0,19.
 2710151243,61.837986928,35.6119673661\H,0,18.7111875947,61.7974643681,
 37.2845405784\H,0,17.7180253242,62.5594416604,36.0402078593\C,0,12.538
 9561147,56.7866942927,34.1729430251\H,0,12.8208443096,57.6625165967,33
 .5923346395\H,0,11.8915868332,57.1164996328,34.9872061588\H,0,11.96796
 23156,56.1153977693,33.5345903917\C,0,12.9942498448,53.6579971973,34.7
 220418921\H,0,13.4361217997,52.7041342806,34.4564705283\C,0,11.6732853
 46,53.7356661591,34.854794328\H,0,11.1815717454,54.64135803,35.1631265
 557\H,0,11.0368698769,52.8821133097,34.6869055065\C,0,17.0824069361,50
 .6047963341,36.2346423051\H,0,16.4603929764,50.5719030456,35.340917611
 9\H,0,16.4362649432,50.4414306028,37.0982653561\H,0,17.8042499954,49.7
 927123213,36.1844830515\C,0,20.1462547515,51.2107462125,36.9917703735\
 H,0,21.1388420494,51.4603680588,36.6337856699\C,0,19.9854584574,50.104
 256385,37.7108478132\H,0,19.0357170279,49.8272486975,38.1343852764\H,0
 ,20.8111663424,49.4441782714,37.9212258567\C,0,23.1196047139,55.537646
 944,37.637226521\H,0,23.4264275152,54.9066638497,36.8033073831\H,0,22.
 9845268187,54.8988814347,38.5111842659\H,0,23.9220379932,56.2400650678
 ,37.8493711171\C,0,22.4779130873,58.7245477711,37.7197807168\H,0,22.55
 64741447,59.4392081888,36.9008951084\H,0,23.4767810001,58.3701997981,3
 7.9626433989\H,0,22.0797463086,59.2503497235,38.5885599602\C,0,20.2643
 746321,57.3764284789,31.1695715275\H,0,20.6718067338,58.3133894739,31.
 5357390249\H,0,19.6319651231,57.5841498096,30.3063082812\H,0,21.087577
 2242,56.7409645614,30.8436278414\N,0,18.8457461447,55.5206354361,32.07
 60143138\H,0,18.8409411217,54.9733507205,31.2309531545\C,0,19.48416479
 72,56.7211074985,32.2496729313\C,0,18.2306704038,55.2127670996,33.2401
 739179\H,0,17.6518120198,54.3269542638,33.4020408502\N,0,18.440892215,
 56.1425559573,34.1389825399\C,0,19.2191052182,57.0875171784,33.5375007
 831\H,0,19.5320711349,57.9594721153,34.0731019404\C,0,14.8604550144,56
 .6957752039,40.7743194288\H,0,14.4913988426,55.779000827,41.2335327482
 \H,0,14.0294697913,57.2045496268,40.2965891585\H,0,15.2559979303,57.33
 61689395,41.5631908291\N,0,17.0616189394,55.7266154019,40.084483851\H,
 0,17.312675306,55.3944806809,41.0011333893\C,0,15.9062719219,56.391747
 1597,39.7650980938\C,0,17.7881218068,55.6021824358,38.9520857504\H,0,1
 8.7428936718,55.1214203023,38.9003691788\N,0,17.1652286065,56.14672891
 24,37.9364964943\C,0,15.9940288947,56.6433175591,38.4258838852\H,0,15.
 2981065234,57.1455781081,37.7864682335\\Version=ES64L-G16RevC.02\State
 =5-A\HF=-3172.3625501\S2=6.249768\S2-1=0.\S2A=6.002271\RMSD=2.127e-09\
 Dipole=0.5077353,0.1152695,-0.1173845\Quadrupole=-9.5694156,-10.603669
 ,20.1730846,-1.3840027,-7.9790284,0.179429\PG=C01 [X(C38H40Fe1N8)]\\@
 The archive entry for this job was punched.


 It takes a long time to grow an old friend.
                            -- John Leonard
 Job cpu time:       0 days  5 hours 31 minutes 32.4 seconds.
 Elapsed time:       0 days  0 hours  5 minutes 37.0 seconds.
 File lengths (MBytes):  RWF=    533 Int=      0 D2E=      0 Chk=    233 Scr=      1
 Normal termination of Gaussian 16 at Sat Oct 12 21:32:00 2024.
