 Entering Gaussian System, Link 0=g16
 Input=5o1712.com
 Output=5o1712.log
 Initial command:
 /sw/chem/gaussian/g16_C02/a100/g16/l1.exe "/local/becsleip_8046639/Gau-360521.inp" -scrdir="/local/becsleip_8046639/"
 Entering Link 1 = /sw/chem/gaussian/g16_C02/a100/g16/l1.exe PID=    360522.
  
 Copyright (c) 1988-2021, Gaussian, Inc.  All Rights Reserved.
  
 This is part of the Gaussian(R) 16 program.  It is based on
 the Gaussian(R) 09 system (copyright 2009, Gaussian, Inc.),
 the Gaussian(R) 03 system (copyright 2003, Gaussian, Inc.),
 the Gaussian(R) 98 system (copyright 1998, Gaussian, Inc.),
 the Gaussian(R) 94 system (copyright 1995, Gaussian, Inc.),
 the Gaussian 92(TM) system (copyright 1992, Gaussian, Inc.),
 the Gaussian 90(TM) system (copyright 1990, Gaussian, Inc.),
 the Gaussian 88(TM) system (copyright 1988, Gaussian, Inc.),
 the Gaussian 86(TM) system (copyright 1986, Carnegie Mellon
 University), and the Gaussian 82(TM) system (copyright 1983,
 Carnegie Mellon University). Gaussian is a federally registered
 trademark of Gaussian, Inc.
  
 This software contains proprietary and confidential information,
 including trade secrets, belonging to Gaussian, Inc.
  
 This software is provided under written license and may be
 used, copied, transmitted, or stored only in accord with that
 written license.
  
 The following legend is applicable only to US Government
 contracts under FAR:
  
                    RESTRICTED RIGHTS LEGEND
  
 Use, reproduction and disclosure by the US Government is
 subject to restrictions as set forth in subparagraphs (a)
 and (c) of the Commercial Computer Software - Restricted
 Rights clause in FAR 52.227-19.
  
 Gaussian, Inc.
 340 Quinnipiac St., Bldg. 40, Wallingford CT 06492
  
  
 ---------------------------------------------------------------
 Warning -- This program may not be used in any manner that
 competes with the business of Gaussian, Inc. or will provide
 assistance to any competitor of Gaussian, Inc.  The licensee
 of this program is prohibited from giving any competitor of
 Gaussian, Inc. access to this program.  By using this program,
 the user acknowledges that Gaussian, Inc. is engaged in the
 business of creating and licensing software in the field of
 computational chemistry and represents and warrants to the
 licensee that it is not a competitor of Gaussian, Inc. and that
 it will not use this program in any manner prohibited above.
 ---------------------------------------------------------------
  

 Cite this work as:
 Gaussian 16, Revision C.02,
 M. J. Frisch, G. W. Trucks, H. B. Schlegel, G. E. Scuseria, 
 M. A. Robb, J. R. Cheeseman, G. Scalmani, V. Barone, 
 G. A. Petersson, H. Nakatsuji, X. Li, M. Caricato, A. V. Marenich, 
 J. Bloino, B. G. Janesko, R. Gomperts, B. Mennucci, H. P. Hratchian, 
 J. V. Ortiz, A. F. Izmaylov, J. L. Sonnenberg, D. Williams-Young, 
 F. Ding, F. Lipparini, F. Egidi, J. Goings, B. Peng, A. Petrone, 
 T. Henderson, D. Ranasinghe, V. G. Zakrzewski, J. Gao, N. Rega, 
 G. Zheng, W. Liang, M. Hada, M. Ehara, K. Toyota, R. Fukuda, 
 J. Hasegawa, M. Ishida, T. Nakajima, Y. Honda, O. Kitao, H. Nakai, 
 T. Vreven, K. Throssell, J. A. Montgomery, Jr., J. E. Peralta, 
 F. Ogliaro, M. J. Bearpark, J. J. Heyd, E. N. Brothers, K. N. Kudin, 
 V. N. Staroverov, T. A. Keith, R. Kobayashi, J. Normand, 
 K. Raghavachari, A. P. Rendell, J. C. Burant, S. S. Iyengar, 
 J. Tomasi, M. Cossi, J. M. Millam, M. Klene, C. Adamo, R. Cammi, 
 J. W. Ochterski, R. L. Martin, K. Morokuma, O. Farkas, 
 J. B. Foresman, and D. J. Fox, Gaussian, Inc., Wallingford CT, 2019.
 
 ******************************************
 Gaussian 16:  ES64L-G16RevC.02  7-Dec-2021
                15-Oct-2024 
 ******************************************
 %mem=16GB
 %CPU=0-71
 SetSPE:  set environment variable "OMP_PROC_BIND" = "true"
 SetSPE:  set environment variable "OMP_PLACES" = "{0},{1},{2},{3},{4},{5},{6},{7},{8},{9},{10},{11},{12},{13},{14},{15},{16},{17},{18},{19},{20},{21},{22},{23},{24},{25},{26},{27},{28},{29},{30},{31},{32},{33},{34},{35},{36},{37},{38},{39},{40},{41},{42},{43},{44},{45},{46},{47},{48},{49},{50},{51},{52},{53},{54},{55},{56},{57},{58},{59},{60},{61},{62},{63},{64},{65},{66},{67},{68},{69},{70},{71}"
 Will use up to   72 processors via shared memory.
 %gpucpu=0,1,2,3=0,1,2,3
 Will use    4 GPUs:
 Thread  CPU   GPU
      0    0     0
      1    1     1
      2    2     2
      3    3     3
      4    4    -1
      5    5    -1
      6    6    -1
      7    7    -1
      8    8    -1
      9    9    -1
     10   10    -1
     11   11    -1
     12   12    -1
     13   13    -1
     14   14    -1
     15   15    -1
     16   16    -1
     17   17    -1
     18   18    -1
     19   19    -1
     20   20    -1
     21   21    -1
     22   22    -1
     23   23    -1
     24   24    -1
     25   25    -1
     26   26    -1
     27   27    -1
     28   28    -1
     29   29    -1
     30   30    -1
     31   31    -1
     32   32    -1
     33   33    -1
     34   34    -1
     35   35    -1
     36   36    -1
     37   37    -1
     38   38    -1
     39   39    -1
     40   40    -1
     41   41    -1
     42   42    -1
     43   43    -1
     44   44    -1
     45   45    -1
     46   46    -1
     47   47    -1
     48   48    -1
     49   49    -1
     50   50    -1
     51   51    -1
     52   52    -1
     53   53    -1
     54   54    -1
     55   55    -1
     56   56    -1
     57   57    -1
     58   58    -1
     59   59    -1
     60   60    -1
     61   61    -1
     62   62    -1
     63   63    -1
     64   64    -1
     65   65    -1
     66   66    -1
     67   67    -1
     68   68    -1
     69   69    -1
     70   70    -1
     71   71    -1
 SetGPE:  set environment variable "OMP_PROC_BIND" = "true"
 SetGPE:  set environment variable "OMP_PLACES" = "{0},{1},{2},{3},{4},{5},{6},{7},{8},{9},{10},{11},{12},{13},{14},{15},{16},{17},{18},{19},{20},{21},{22},{23},{24},{25},{26},{27},{28},{29},{30},{31},{32},{33},{34},{35},{36},{37},{38},{39},{40},{41},{42},{43},{44},{45},{46},{47},{48},{49},{50},{51},{52},{53},{54},{55},{56},{57},{58},{59},{60},{61},{62},{63},{64},{65},{66},{67},{68},{69},{70},{71}"
 %oldchk=5o17_II_Sre.chk
 %chk=5o17_III_Dn.chk
 Properties for Device   0
 Minimum vector length:                              32
 Maximum vector length:                            1024
 Number of SMPs:                                    108
 Maximum number of threads per SMP:                2048
 Number of ASync Engines:                             5
 Memory:                                           9207742464
 Properties for Device   1
 Minimum vector length:                              32
 Maximum vector length:                            1024
 Number of SMPs:                                    108
 Maximum number of threads per SMP:                2048
 Number of ASync Engines:                             5
 Memory:                                           9207742464
 Properties for Device   2
 Minimum vector length:                              32
 Maximum vector length:                            1024
 Number of SMPs:                                    108
 Maximum number of threads per SMP:                2048
 Number of ASync Engines:                             5
 Memory:                                           9207742464
 Properties for Device   3
 Minimum vector length:                              32
 Maximum vector length:                            1024
 Number of SMPs:                                    108
 Maximum number of threads per SMP:                2048
 Number of ASync Engines:                             5
 Memory:                                           9207742464
   8286968217 words of memory will be used on each GPU.
 Copying data from "5o17_II_Sre.chk" to current chk file "5o17_III_Dn.chk"
 IOpt=  2 FromEx=T IUOpen= 4 IOptOp= 5 NList=   0 IFRang= 0 IUIn= 4 IUOut= 2.
 --------------------------------------------------------------
 # apfd/def2TZVP guess=read scf=maxcycle=999 geom=check pop=nbo
 --------------------------------------------------------------
 1/29=2,38=1,172=1/1;
 2/12=2,40=1/2;
 3/5=44,7=101,11=2,14=-4,25=1,30=1,74=-44,116=-2/1,2,3;
 4/5=1/1;
 5/5=2,7=999,38=6/2;
 6/7=2,8=2,9=2,10=2,28=1,40=1/1,7;
 99/5=1,9=1/99;
 ----------
 5o17_III_D
 ----------
 Structure from the checkpoint file:  "5o17_III_Dn.chk"
 Charge =  1 Multiplicity = 2
 Z-Matrix found in chk file.
 Fe,0,17.5807262805,55.4076793587,35.5992868792
 N,0,17.2308023084,57.3792061009,35.4720972432
 N,0,15.6993246782,55.0490608486,34.9945159619
 N,0,17.9060812271,53.4405197025,35.762401347
 N,0,19.4296955887,55.7832153461,36.2386059579
 C,0,18.0812081134,58.3813614023,35.8127761037
 C,0,17.5015337499,59.6720382536,35.5086142613
 C,0,16.2712781676,59.4232557396,34.9866901889
 C,0,16.1177338213,57.9842608055,34.9814174604
 C,0,14.767560174,55.9680244611,34.6276277943
 C,0,13.5154656493,55.331505007,34.3088438738
 C,0,13.6935743328,53.9932331002,34.5434084864
 C,0,15.0710550394,53.8455282376,34.977389858
 C,0,16.9904700965,52.4461288231,35.608695805
 C,0,17.5830156976,51.1608802922,35.8732640571
 C,0,18.9034306152,51.397118633,36.1610423243
 C,0,19.0794065223,52.8340562058,36.0701756166
 C,0,20.4073750899,54.8649355916,36.4591455036
 C,0,21.6349139148,55.5149154344,36.8641846956
 C,0,21.3743003092,56.8495411692,36.8746981577
 C,0,19.9970490895,56.9965397021,36.456465088
 C,0,19.3585752112,58.2152161626,36.3177385931
 H,0,19.9243799425,59.1048073085,36.5507060401
 C,0,14.9727131036,57.336870657,34.5623950706
 H,0,14.1535721246,57.9494675456,34.217102238
 C,0,15.6635785643,52.6285417004,35.2538404321
 H,0,15.0455243965,51.7462675522,35.1854617104
 C,0,20.2597322894,53.4933694363,36.3692742246
 H,0,21.131500736,52.8906538598,36.5764699382
 C,0,15.2442105077,60.3828069376,34.4904239221
 H,0,15.5978712699,61.4073117291,34.5777806453
 H,0,14.320686655,60.2897229156,35.0628297716
 H,0,15.0125678434,60.1879289885,33.4430076386
 C,0,18.1838209305,60.97633177,35.7432220984
 H,0,19.102701829,61.037851617,35.1591573087
 H,0,18.4451669121,61.089519634,36.7953670268
 H,0,17.5421385202,61.8066314836,35.4585905566
 C,0,12.3068932812,56.0285142141,33.7873169112
 H,0,12.5874160849,56.8250346378,33.0993315436
 H,0,11.7322348501,56.4738005708,34.6017602674
 H,0,11.6662026088,55.3235588318,33.2614399412
 C,0,12.7565971522,52.9034153561,34.3878420711
 H,0,13.1871709253,51.9529155592,34.0931524868
 C,0,11.4435082223,52.9743936528,34.5840801716
 H,0,10.9616095567,53.8744595096,34.9233312135
 H,0,10.8050772071,52.1189615205,34.4353751967
 C,0,16.849763628,49.8643362217,35.8870636008
 H,0,16.7948819629,49.4365519184,34.8841504625
 H,0,15.8323684472,49.9991440869,36.2511668587
 H,0,17.3589550232,49.1526710512,36.53413752
 C,0,19.9499085843,50.4631532382,36.5089796539
 H,0,20.7232368477,50.8513445742,37.1617170473
 C,0,20.04350126,49.2034217361,36.0927642771
 H,0,19.337681336,48.770128612,35.4066654053
 H,0,20.8539023587,48.5664308768,36.4076213774
 C,0,22.8992284563,54.7970418047,37.1944916493
 H,0,23.2271443152,54.1911105006,36.3495655906
 H,0,22.7543188809,54.1340332411,38.0484384056
 H,0,23.691497684,55.5003887916,37.4392325279
 C,0,22.2739762331,57.9866056502,37.221876417
 H,0,23.2530220147,57.6270032939,37.5295607958
 H,0,21.8516273646,58.5727541682,38.0386624223
 H,0,22.4058430421,58.6484894014,36.3652262083
 C,0,19.9919013036,56.5258106324,30.6917621971
 H,0,20.4951591553,57.4150868991,31.0581455513
 H,0,19.3426860465,56.8085108275,29.862904858
 H,0,20.7416510633,55.8299364779,30.3151739586
 N,0,18.4660756693,54.7703420178,31.6204043773
 H,0,18.3824987127,54.2465141114,30.7647735818
 C,0,19.205825928,55.9113341745,31.7916383228
 C,0,17.8769621501,54.483637564,32.8035431485
 H,0,17.2361721032,53.6418674027,32.9662651629
 N,0,18.1981336766,55.3722075381,33.7112055779
 C,0,19.024381738,56.2663090746,33.0974895283
 H,0,19.4298015662,57.0988495425,33.6341498835
 C,0,14.6866269909,56.1604926946,40.3303712621
 H,0,14.2113906093,55.2821705844,40.7674141358
 H,0,13.9235569779,56.7664177608,39.8519105205
 H,0,15.1389783448,56.7394425672,41.1356370228
 N,0,16.7938003532,54.9920408923,39.6467827775
 H,0,17.0084810096,54.6267099475,40.560014121
 C,0,15.7064608775,55.7630757963,39.3268225207
 C,0,17.5128693899,54.8106029487,38.5159861177
 H,0,18.420702762,54.245624024,38.4665366049
 N,0,16.9483477801,55.4181616603,37.5023274063
 C,0,15.8249676419,56.0163452408,37.9904589111
 H,0,15.1822595211,56.5855430881,37.3516185496
 Recover connectivity data from disk.
 Stoichiometry    C38H40FeN8(1+,2)
 Framework group  C1[X(C38H40FeN8)]
 Deg. of freedom   255
 Full point group                 C1      NOp   1
 Largest Abelian subgroup         C1      NOp   1
 Largest concise Abelian subgroup C1      NOp   1
                         Standard orientation:                         
 ---------------------------------------------------------------------
 Center     Atomic      Atomic             Coordinates (Angstroms)
 Number     Number       Type             X           Y           Z
 ---------------------------------------------------------------------
      1         26           0        0.113883   -0.093626    0.017344
      2          7           0        0.104826   -2.097433   -0.083730
      3          7           0       -1.872050   -0.113850    0.316825
      4          7           0        0.105426    1.905964    0.078560
      5          7           0        2.076679   -0.091349   -0.323053
      6          6           0        1.162383   -2.904374   -0.355731
      7          6           0        0.781458   -4.297622   -0.265514
      8          6           0       -0.539341   -4.311044    0.055633
      9          6           0       -0.945353   -2.925567    0.155225
     10          6           0       -2.670976   -1.206570    0.439158
     11          6           0       -4.050410   -0.820552    0.589739
     12          6           0       -4.078968    0.546676    0.502630
     13          6           0       -2.699308    0.962746    0.326468
     14          6           0       -0.985060    2.715752    0.155167
     15          6           0       -0.596813    4.101311    0.105572
     16          6           0        0.772981    4.115308    0.030817
     17          6           0        1.185485    2.724677    0.029620
     18          6           0        2.897603    0.991686   -0.293897
     19          6           0        4.268972    0.598189   -0.534496
     20          6           0        4.254792   -0.751276   -0.701830
     21          6           0        2.877676   -1.164848   -0.541026
     22          6           0        2.452511   -2.478427   -0.617260
     23          1           0        3.196760   -3.233073   -0.823134
     24          6           0       -2.238251   -2.522848    0.423550
     25          1           0       -2.978887   -3.294570    0.569829
     26          6           0       -2.297093    2.282708    0.259473
     27          1           0       -3.065237    3.040219    0.294193
     28          6           0        2.496177    2.302507   -0.115923
     29          1           0        3.268251    3.057538   -0.118428
     30          6           0       -1.443757   -5.473480    0.285113
     31          1           0       -0.904273   -6.411023    0.174260
     32          1           0       -2.268768   -5.467138   -0.427997
     33          1           0       -1.866260   -5.437433    1.289557
     34          6           0        1.712922   -5.439865   -0.487761
     35          1           0        2.525995   -5.417319    0.238642
     36          1           0        2.150491   -5.390490   -1.484866
     37          1           0        1.192878   -6.389557   -0.388726
     38          6           0       -5.181824   -1.757735    0.834788
     39          1           0       -4.874440   -2.570617    1.491445
     40          1           0       -5.534459   -2.195709   -0.100978
     41          1           0       -6.011506   -1.229101    1.299725
     42          6           0       -5.207480    1.446365    0.585398
     43          1           0       -5.003969    2.414760    1.028659
     44          6           0       -6.440296    1.186683    0.160570
     45          1           0       -6.695728    0.264448   -0.331033
     46          1           0       -7.235947    1.905566    0.268360
     47          6           0       -1.537824    5.255614    0.074585
     48          1           0       -1.823087    5.553568    1.085374
     49          1           0       -2.445876    4.999965   -0.469403
     50          1           0       -1.069101    6.108280   -0.412966
     51          6           0        1.677762    5.239140   -0.051889
     52          1           0        2.599689    5.056750   -0.591870
     53          6           0        1.479933    6.442641    0.478551
     54          1           0        0.610397    6.676412    1.066697
     55          1           0        2.203007    7.233452    0.362687
     56          6           0        5.421129    1.543363   -0.580513
     57          1           0        5.500688    2.095561    0.356146
     58          1           0        5.295058    2.265884   -1.387900
     59          1           0        6.354131    1.009228   -0.743274
     60          6           0        5.385236   -1.681800   -0.983053
     61          1           0        6.320415   -1.136519   -1.086118
     62          1           0        5.206023   -2.233016   -1.906705
     63          1           0        5.498012   -2.405629   -0.175166
     64          6           0        1.893215   -1.351395    5.155416
     65          1           0        2.597360   -2.100857    4.807849
     66          1           0        1.183873   -1.826510    5.833283
     67          1           0        2.439442   -0.590284    5.712667
     68          7           0        0.242563    0.227543    4.128529
     69          1           0       -0.064784    0.631564    4.997891
     70          6           0        1.190967   -0.752423    3.992100
     71          6           0       -0.197049    0.546315    2.889902
     72          1           0       -0.944172    1.286388    2.690487
     73          7           0        0.414141   -0.171096    1.979778
     74          6           0        1.280708   -0.983155    2.649384
     75          1           0        1.906149   -1.673677    2.122605
     76          6           0       -1.829289   -0.768063   -5.187933
     77          1           0       -2.379421    0.065392   -5.624983
     78          1           0       -2.537319   -1.539137   -4.900734
     79          1           0       -1.161622   -1.172210   -5.948948
     80          7           0       -0.095818    0.641207   -4.055772
     81          1           0        0.189695    1.136615   -4.884385
     82          6           0       -1.064942   -0.326339   -3.993879
     83          6           0        0.394924    0.808299   -2.806799
     84          1           0        1.168879    1.503341   -2.554374
     85          7           0       -0.203043    0.007607   -1.960251
     86          6           0       -1.112376   -0.705557   -2.683154
     87          1           0       -1.734903   -1.439186   -2.214724
 ---------------------------------------------------------------------
 Rotational constants (GHZ):           0.0761985           0.0758379           0.0583486
 Standard basis: def2TZVP (5D, 7F)
 There are  1948 symmetry adapted cartesian basis functions of A   symmetry.
 There are  1711 symmetry adapted basis functions of A   symmetry.
  1711 basis functions,  2768 primitive gaussians,  1948 cartesian basis functions
   175 alpha electrons      174 beta electrons
       nuclear repulsion energy      7158.8672278847 Hartrees.
 NAtoms=   87 NActive=   87 NUniq=   87 SFac= 1.00D+00 NAtFMM=   60 NAOKFM=T Big=T
 Integral buffers will be    131072 words long.
 Raffenetti 2 integral format.
 Two-electron integral symmetry is turned on.
 R6APFD:  NTU= -4 IXU= 1 FactS= 1.050
 Nuclear repulsion after empirical dispersion term =     7158.6982763133 Hartrees.
 One-electron integrals computed using PRISM.
   1 Symmetry operations used in ECPInt.
 ECPInt:  NShTT=  232221 NPrTT=  716997 LenC2=  182831 LenP2D=  370644.
 LDataN:  DoStor=T MaxTD1= 6 Len=  172
 Number of processors reduced to  20 by ecpmxn.
 NBasis=  1711 RedAO= T EigKep=  3.31D-06  NBF=  1711
 NBsUse=  1711 1.00D-06 EigRej= -1.00D+00 NBFU=  1711
 Initial guess from the checkpoint file:  "5o17_III_Dn.chk"
 B after Tr=     0.000000    0.000000    0.000000
         Rot=    1.000000    0.000000    0.000000    0.000000 Ang=   0.00 deg.
 Initial guess <Sx>= 0.0000 <Sy>= 0.0000 <Sz>= 0.5000 <S**2>= 0.7895 S= 0.5195
 Requested convergence on RMS density matrix=1.00D-08 within 999 cycles.
 Requested convergence on MAX density matrix=1.00D-06.
 Requested convergence on             energy=1.00D-06.
 No special actions if energy rises.
 Restarting incremental Fock formation.
 Restarting incremental Fock formation.
 SCF Done:  E(UAPFD) =  -3172.91003813     A.U. after   42 cycles
            NFock= 42  Conv=0.17D-08     -V/T= 2.0036
 <Sx>= 0.0000 <Sy>= 0.0000 <Sz>= 0.5000 <S**2>= 0.7952 S= 0.5224
 <L.S>=  0.00000000000    
 Annihilation of the first spin contaminant:
 S**2 before annihilation     0.7952,   after     0.7507

 **********************************************************************

            Population analysis using the SCF Density.

 **********************************************************************

 Orbital symmetries:
 Alpha Orbitals:
       Occupied  (A) (A) (A) (A) (A) (A) (A) (A) (A) (A) (A) (A)
                 (A) (A) (A) (A) (A) (A) (A) (A) (A) (A) (A) (A)
                 (A) (A) (A) (A) (A) (A) (A) (A) (A) (A) (A) (A)
                 (A) (A) (A) (A) (A) (A) (A) (A) (A) (A) (A) (A)
                 (A) (A) (A) (A) (A) (A) (A) (A) (A) (A) (A) (A)
                 (A) (A) (A) (A) (A) (A) (A) (A) (A) (A) (A) (A)
                 (A) (A) (A) (A) (A) (A) (A) (A) (A) (A) (A) (A)
                 (A) (A) (A) (A) (A) (A) (A) (A) (A) (A) (A) (A)
                 (A) (A) (A) (A) (A) (A) (A) (A) (A) (A) (A) (A)
                 (A) (A) (A) (A) (A) (A) (A) (A) (A) (A) (A) (A)
                 (A) (A) (A) (A) (A) (A) (A) (A) (A) (A) (A) (A)
                 (A) (A) (A) (A) (A) (A) (A) (A) (A) (A) (A) (A)
                 (A) (A) (A) (A) (A) (A) (A) (A) (A) (A) (A) (A)
                 (A) (A) (A) (A) (A) (A) (A) (A) (A) (A) (A) (A)
                 (A) (A) (A) (A) (A) (A) (A)
       Virtual   (A) (A) (A) (A) (A) (A) (A) (A) (A) (A) (A) (A)
                 (A) (A) (A) (A) (A) (A) (A) (A) (A) (A) (A) (A)
                 (A) (A) (A) (A) (A) (A) (A) (A) (A) (A) (A) (A)
                 (A) (A) (A) (A) (A) (A) (A) (A) (A) (A) (A) (A)
                 (A) (A) (A) (A) (A) (A) (A) (A) (A) (A) (A) (A)
                 (A) (A) (A) (A) (A) (A) (A) (A) (A) (A) (A) (A)
                 (A) (A) (A) (A) (A) (A) (A) (A) (A) (A) (A) (A)
                 (A) (A) (A) (A) (A) (A) (A) (A) (A) (A) (A) (A)
                 (A) (A) (A) (A) (A) (A) (A) (A) (A) (A) (A) (A)
                 (A) (A) (A) (A) (A) (A) (A) (A) (A) (A) (A) (A)
                 (A) (A) (A) (A) (A) (A) (A) (A) (A) (A) (A) (A)
                 (A) (A) (A) (A) (A) (A) (A) (A) (A) (A) (A) (A)
                 (A) (A) (A) (A) (A) (A) (A) (A) (A) (A) (A) (A)
                 (A) (A) (A) (A) (A) (A) (A) (A) (A) (A) (A) (A)
                 (A) (A) (A) (A) (A) (A) (A) (A) (A) (A) (A) (A)
                 (A) (A) (A) (A) (A) (A) (A) (A) (A) (A) (A) (A)
                 (A) (A) (A) (A) (A) (A) (A) (A) (A) (A) (A) (A)
                 (A) (A) (A) (A) (A) (A) (A) (A) (A) (A) (A) (A)
                 (A) (A) (A) (A) (A) (A) (A) (A) (A) (A) (A) (A)
                 (A) (A) (A) (A) (A) (A) (A) (A) (A) (A) (A) (A)
                 (A) (A) (A) (A) (A) (A) (A) (A) (A) (A) (A) (A)
                 (A) (A) (A) (A) (A) (A) (A) (A) (A) (A) (A) (A)
                 (A) (A) (A) (A) (A) (A) (A) (A) (A) (A) (A) (A)
                 (A) (A) (A) (A) (A) (A) (A) (A) (A) (A) (A) (A)
                 (A) (A) (A) (A) (A) (A) (A) (A) (A) (A) (A) (A)
                 (A) (A) (A) (A) (A) (A) (A) (A) (A) (A) (A) (A)
                 (A) (A) (A) (A) (A) (A) (A) (A) (A) (A) (A) (A)
                 (A) (A) (A) (A) (A) (A) (A) (A) (A) (A) (A) (A)
                 (A) (A) (A) (A) (A) (A) (A) (A) (A) (A) (A) (A)
                 (A) (A) (A) (A) (A) (A) (A) (A) (A) (A) (A) (A)
                 (A) (A) (A) (A) (A) (A) (A) (A) (A) (A) (A) (A)
                 (A) (A) (A) (A) (A) (A) (A) (A) (A) (A) (A) (A)
                 (A) (A) (A) (A) (A) (A) (A) (A) (A) (A) (A) (A)
                 (A) (A) (A) (A) (A) (A) (A) (A) (A) (A) (A) (A)
                 (A) (A) (A) (A) (A) (A) (A) (A) (A) (A) (A) (A)
                 (A) (A) (A) (A) (A) (A) (A) (A) (A) (A) (A) (A)
                 (A) (A) (A) (A) (A) (A) (A) (A) (A) (A) (A) (A)
                 (A) (A) (A) (A) (A) (A) (A) (A) (A) (A) (A) (A)
                 (A) (A) (A) (A) (A) (A) (A) (A) (A) (A) (A) (A)
                 (A) (A) (A) (A) (A) (A) (A) (A) (A) (A) (A) (A)
                 (A) (A) (A) (A) (A) (A) (A) (A) (A) (A) (A) (A)
                 (A) (A) (A) (A) (A) (A) (A) (A) (A) (A) (A) (A)
                 (A) (A) (A) (A) (A) (A) (A) (A) (A) (A) (A) (A)
                 (A) (A) (A) (A) (A) (A) (A) (A) (A) (A) (A) (A)
                 (A) (A) (A) (A) (A) (A) (A) (A) (A) (A) (A) (A)
                 (A) (A) (A) (A) (A) (A) (A) (A) (A) (A) (A) (A)
                 (A) (A) (A) (A) (A) (A) (A) (A) (A) (A) (A) (A)
                 (A) (A) (A) (A) (A) (A) (A) (A) (A) (A) (A) (A)
                 (A) (A) (A) (A) (A) (A) (A) (A) (A) (A) (A) (A)
                 (A) (A) (A) (A) (A) (A) (A) (A) (A) (A) (A) (A)
                 (A) (A) (A) (A) (A) (A) (A) (A) (A) (A) (A) (A)
                 (A) (A) (A) (A) (A) (A) (A) (A) (A) (A) (A) (A)
                 (A) (A) (A) (A) (A) (A) (A) (A) (A) (A) (A) (A)
                 (A) (A) (A) (A) (A) (A) (A) (A) (A) (A) (A) (A)
                 (A) (A) (A) (A) (A) (A) (A) (A) (A) (A) (A) (A)
                 (A) (A) (A) (A) (A) (A) (A) (A) (A) (A) (A) (A)
                 (A) (A) (A) (A) (A) (A) (A) (A) (A) (A) (A) (A)
                 (A) (A) (A) (A) (A) (A) (A) (A) (A) (A) (A) (A)
                 (A) (A) (A) (A) (A) (A) (A) (A) (A) (A) (A) (A)
                 (A) (A) (A) (A) (A) (A) (A) (A) (A) (A) (A) (A)
                 (A) (A) (A) (A) (A) (A) (A) (A) (A) (A) (A) (A)
                 (A) (A) (A) (A) (A) (A) (A) (A) (A) (A) (A) (A)
                 (A) (A) (A) (A) (A) (A) (A) (A) (A) (A) (A) (A)
                 (A) (A) (A) (A) (A) (A) (A) (A) (A) (A) (A) (A)
                 (A) (A) (A) (A) (A) (A) (A) (A) (A) (A) (A) (A)
                 (A) (A) (A) (A) (A) (A) (A) (A) (A) (A) (A) (A)
                 (A) (A) (A) (A) (A) (A) (A) (A) (A) (A) (A) (A)
                 (A) (A) (A) (A) (A) (A) (A) (A) (A) (A) (A) (A)
                 (A) (A) (A) (A) (A) (A) (A) (A) (A) (A) (A) (A)
                 (A) (A) (A) (A) (A) (A) (A) (A) (A) (A) (A) (A)
                 (A) (A) (A) (A) (A) (A) (A) (A) (A) (A) (A) (A)
                 (A) (A) (A) (A) (A) (A) (A) (A) (A) (A) (A) (A)
                 (A) (A) (A) (A) (A) (A) (A) (A) (A) (A) (A) (A)
                 (A) (A) (A) (A) (A) (A) (A) (A) (A) (A) (A) (A)
                 (A) (A) (A) (A) (A) (A) (A) (A) (A) (A) (A) (A)
                 (A) (A) (A) (A) (A) (A) (A) (A) (A) (A) (A) (A)
                 (A) (A) (A) (A) (A) (A) (A) (A) (A) (A) (A) (A)
                 (A) (A) (A) (A) (A) (A) (A) (A) (A) (A) (A) (A)
                 (A) (A) (A) (A) (A) (A) (A) (A) (A) (A) (A) (A)
                 (A) (A) (A) (A) (A) (A) (A) (A) (A) (A) (A) (A)
                 (A) (A) (A) (A) (A) (A) (A) (A) (A) (A) (A) (A)
                 (A) (A) (A) (A) (A) (A) (A) (A) (A) (A) (A) (A)
                 (A) (A) (A) (A) (A) (A) (A) (A) (A) (A) (A) (A)
                 (A) (A) (A) (A) (A) (A) (A) (A) (A) (A) (A) (A)
                 (A) (A) (A) (A) (A) (A) (A) (A) (A) (A) (A) (A)
                 (A) (A) (A) (A) (A) (A) (A) (A) (A) (A) (A) (A)
                 (A) (A) (A) (A) (A) (A) (A) (A) (A) (A) (A) (A)
                 (A) (A) (A) (A) (A) (A) (A) (A) (A) (A) (A) (A)
                 (A) (A) (A) (A) (A) (A) (A) (A) (A) (A) (A) (A)
                 (A) (A) (A) (A) (A) (A) (A) (A) (A) (A) (A) (A)
                 (A) (A) (A) (A) (A) (A) (A) (A) (A) (A) (A) (A)
                 (A) (A) (A) (A) (A) (A) (A) (A) (A) (A) (A) (A)
                 (A) (A) (A) (A) (A) (A) (A) (A) (A) (A) (A) (A)
                 (A) (A) (A) (A) (A) (A) (A) (A) (A) (A) (A) (A)
                 (A) (A) (A) (A) (A) (A) (A) (A) (A) (A) (A) (A)
                 (A) (A) (A) (A) (A) (A) (A) (A) (A) (A) (A) (A)
                 (A) (A) (A) (A) (A) (A) (A) (A) (A) (A) (A) (A)
                 (A) (A) (A) (A) (A) (A) (A) (A) (A) (A) (A) (A)
                 (A) (A) (A) (A) (A) (A) (A) (A) (A) (A) (A) (A)
                 (A) (A) (A) (A) (A) (A) (A) (A) (A) (A) (A) (A)
                 (A) (A) (A) (A) (A) (A) (A) (A) (A) (A) (A) (A)
                 (A) (A) (A) (A) (A) (A) (A) (A) (A) (A) (A) (A)
                 (A) (A) (A) (A) (A) (A) (A) (A) (A) (A) (A) (A)
                 (A) (A) (A) (A) (A) (A) (A) (A) (A) (A) (A) (A)
                 (A) (A) (A) (A) (A) (A) (A) (A) (A) (A) (A) (A)
                 (A) (A) (A) (A) (A) (A) (A) (A) (A) (A) (A) (A)
                 (A) (A) (A) (A) (A) (A) (A) (A) (A) (A) (A) (A)
                 (A) (A) (A) (A) (A) (A) (A) (A) (A) (A) (A) (A)
                 (A) (A) (A) (A) (A) (A) (A) (A) (A) (A) (A) (A)
                 (A) (A) (A) (A) (A) (A) (A) (A) (A) (A) (A) (A)
                 (A) (A) (A) (A) (A) (A) (A) (A) (A) (A) (A) (A)
                 (A) (A) (A) (A) (A) (A) (A) (A) (A) (A) (A) (A)
                 (A) (A) (A) (A) (A) (A) (A) (A) (A) (A) (A) (A)
                 (A) (A) (A) (A) (A) (A) (A) (A) (A) (A) (A) (A)
                 (A) (A) (A) (A) (A) (A) (A) (A) (A) (A) (A) (A)
                 (A) (A) (A) (A) (A) (A) (A) (A) (A) (A) (A) (A)
                 (A) (A) (A) (A) (A) (A) (A) (A) (A) (A) (A) (A)
                 (A) (A) (A) (A) (A) (A) (A) (A) (A) (A) (A) (A)
                 (A) (A) (A) (A) (A) (A) (A) (A) (A) (A) (A) (A)
                 (A) (A) (A) (A) (A) (A) (A) (A) (A) (A) (A) (A)
                 (A) (A) (A) (A) (A) (A) (A) (A) (A) (A) (A) (A)
                 (A) (A) (A) (A) (A) (A) (A) (A) (A) (A) (A) (A)
                 (A) (A) (A) (A) (A) (A) (A) (A) (A) (A) (A) (A)
                 (A) (A) (A) (A) (A) (A) (A) (A) (A) (A) (A) (A)
                 (A) (A) (A) (A) (A) (A) (A) (A) (A) (A) (A) (A)
                 (A) (A) (A) (A) (A) (A) (A) (A) (A) (A) (A) (A)
                 (A) (A) (A) (A) (A) (A) (A) (A) (A) (A) (A) (A)
                 (A) (A) (A) (A) (A) (A) (A) (A) (A) (A) (A) (A)
 Beta  Orbitals:
       Occupied  (A) (A) (A) (A) (A) (A) (A) (A) (A) (A) (A) (A)
                 (A) (A) (A) (A) (A) (A) (A) (A) (A) (A) (A) (A)
                 (A) (A) (A) (A) (A) (A) (A) (A) (A) (A) (A) (A)
                 (A) (A) (A) (A) (A) (A) (A) (A) (A) (A) (A) (A)
                 (A) (A) (A) (A) (A) (A) (A) (A) (A) (A) (A) (A)
                 (A) (A) (A) (A) (A) (A) (A) (A) (A) (A) (A) (A)
                 (A) (A) (A) (A) (A) (A) (A) (A) (A) (A) (A) (A)
                 (A) (A) (A) (A) (A) (A) (A) (A) (A) (A) (A) (A)
                 (A) (A) (A) (A) (A) (A) (A) (A) (A) (A) (A) (A)
                 (A) (A) (A) (A) (A) (A) (A) (A) (A) (A) (A) (A)
                 (A) (A) (A) (A) (A) (A) (A) (A) (A) (A) (A) (A)
                 (A) (A) (A) (A) (A) (A) (A) (A) (A) (A) (A) (A)
                 (A) (A) (A) (A) (A) (A) (A) (A) (A) (A) (A) (A)
                 (A) (A) (A) (A) (A) (A) (A) (A) (A) (A) (A) (A)
                 (A) (A) (A) (A) (A) (A)
       Virtual   (A) (A) (A) (A) (A) (A) (A) (A) (A) (A) (A) (A)
                 (A) (A) (A) (A) (A) (A) (A) (A) (A) (A) (A) (A)
                 (A) (A) (A) (A) (A) (A) (A) (A) (A) (A) (A) (A)
                 (A) (A) (A) (A) (A) (A) (A) (A) (A) (A) (A) (A)
                 (A) (A) (A) (A) (A) (A) (A) (A) (A) (A) (A) (A)
                 (A) (A) (A) (A) (A) (A) (A) (A) (A) (A) (A) (A)
                 (A) (A) (A) (A) (A) (A) (A) (A) (A) (A) (A) (A)
                 (A) (A) (A) (A) (A) (A) (A) (A) (A) (A) (A) (A)
                 (A) (A) (A) (A) (A) (A) (A) (A) (A) (A) (A) (A)
                 (A) (A) (A) (A) (A) (A) (A) (A) (A) (A) (A) (A)
                 (A) (A) (A) (A) (A) (A) (A) (A) (A) (A) (A) (A)
                 (A) (A) (A) (A) (A) (A) (A) (A) (A) (A) (A) (A)
                 (A) (A) (A) (A) (A) (A) (A) (A) (A) (A) (A) (A)
                 (A) (A) (A) (A) (A) (A) (A) (A) (A) (A) (A) (A)
                 (A) (A) (A) (A) (A) (A) (A) (A) (A) (A) (A) (A)
                 (A) (A) (A) (A) (A) (A) (A) (A) (A) (A) (A) (A)
                 (A) (A) (A) (A) (A) (A) (A) (A) (A) (A) (A) (A)
                 (A) (A) (A) (A) (A) (A) (A) (A) (A) (A) (A) (A)
                 (A) (A) (A) (A) (A) (A) (A) (A) (A) (A) (A) (A)
                 (A) (A) (A) (A) (A) (A) (A) (A) (A) (A) (A) (A)
                 (A) (A) (A) (A) (A) (A) (A) (A) (A) (A) (A) (A)
                 (A) (A) (A) (A) (A) (A) (A) (A) (A) (A) (A) (A)
                 (A) (A) (A) (A) (A) (A) (A) (A) (A) (A) (A) (A)
                 (A) (A) (A) (A) (A) (A) (A) (A) (A) (A) (A) (A)
                 (A) (A) (A) (A) (A) (A) (A) (A) (A) (A) (A) (A)
                 (A) (A) (A) (A) (A) (A) (A) (A) (A) (A) (A) (A)
                 (A) (A) (A) (A) (A) (A) (A) (A) (A) (A) (A) (A)
                 (A) (A) (A) (A) (A) (A) (A) (A) (A) (A) (A) (A)
                 (A) (A) (A) (A) (A) (A) (A) (A) (A) (A) (A) (A)
                 (A) (A) (A) (A) (A) (A) (A) (A) (A) (A) (A) (A)
                 (A) (A) (A) (A) (A) (A) (A) (A) (A) (A) (A) (A)
                 (A) (A) (A) (A) (A) (A) (A) (A) (A) (A) (A) (A)
                 (A) (A) (A) (A) (A) (A) (A) (A) (A) (A) (A) (A)
                 (A) (A) (A) (A) (A) (A) (A) (A) (A) (A) (A) (A)
                 (A) (A) (A) (A) (A) (A) (A) (A) (A) (A) (A) (A)
                 (A) (A) (A) (A) (A) (A) (A) (A) (A) (A) (A) (A)
                 (A) (A) (A) (A) (A) (A) (A) (A) (A) (A) (A) (A)
                 (A) (A) (A) (A) (A) (A) (A) (A) (A) (A) (A) (A)
                 (A) (A) (A) (A) (A) (A) (A) (A) (A) (A) (A) (A)
                 (A) (A) (A) (A) (A) (A) (A) (A) (A) (A) (A) (A)
                 (A) (A) (A) (A) (A) (A) (A) (A) (A) (A) (A) (A)
                 (A) (A) (A) (A) (A) (A) (A) (A) (A) (A) (A) (A)
                 (A) (A) (A) (A) (A) (A) (A) (A) (A) (A) (A) (A)
                 (A) (A) (A) (A) (A) (A) (A) (A) (A) (A) (A) (A)
                 (A) (A) (A) (A) (A) (A) (A) (A) (A) (A) (A) (A)
                 (A) (A) (A) (A) (A) (A) (A) (A) (A) (A) (A) (A)
                 (A) (A) (A) (A) (A) (A) (A) (A) (A) (A) (A) (A)
                 (A) (A) (A) (A) (A) (A) (A) (A) (A) (A) (A) (A)
                 (A) (A) (A) (A) (A) (A) (A) (A) (A) (A) (A) (A)
                 (A) (A) (A) (A) (A) (A) (A) (A) (A) (A) (A) (A)
                 (A) (A) (A) (A) (A) (A) (A) (A) (A) (A) (A) (A)
                 (A) (A) (A) (A) (A) (A) (A) (A) (A) (A) (A) (A)
                 (A) (A) (A) (A) (A) (A) (A) (A) (A) (A) (A) (A)
                 (A) (A) (A) (A) (A) (A) (A) (A) (A) (A) (A) (A)
                 (A) (A) (A) (A) (A) (A) (A) (A) (A) (A) (A) (A)
                 (A) (A) (A) (A) (A) (A) (A) (A) (A) (A) (A) (A)
                 (A) (A) (A) (A) (A) (A) (A) (A) (A) (A) (A) (A)
                 (A) (A) (A) (A) (A) (A) (A) (A) (A) (A) (A) (A)
                 (A) (A) (A) (A) (A) (A) (A) (A) (A) (A) (A) (A)
                 (A) (A) (A) (A) (A) (A) (A) (A) (A) (A) (A) (A)
                 (A) (A) (A) (A) (A) (A) (A) (A) (A) (A) (A) (A)
                 (A) (A) (A) (A) (A) (A) (A) (A) (A) (A) (A) (A)
                 (A) (A) (A) (A) (A) (A) (A) (A) (A) (A) (A) (A)
                 (A) (A) (A) (A) (A) (A) (A) (A) (A) (A) (A) (A)
                 (A) (A) (A) (A) (A) (A) (A) (A) (A) (A) (A) (A)
                 (A) (A) (A) (A) (A) (A) (A) (A) (A) (A) (A) (A)
                 (A) (A) (A) (A) (A) (A) (A) (A) (A) (A) (A) (A)
                 (A) (A) (A) (A) (A) (A) (A) (A) (A) (A) (A) (A)
                 (A) (A) (A) (A) (A) (A) (A) (A) (A) (A) (A) (A)
                 (A) (A) (A) (A) (A) (A) (A) (A) (A) (A) (A) (A)
                 (A) (A) (A) (A) (A) (A) (A) (A) (A) (A) (A) (A)
                 (A) (A) (A) (A) (A) (A) (A) (A) (A) (A) (A) (A)
                 (A) (A) (A) (A) (A) (A) (A) (A) (A) (A) (A) (A)
                 (A) (A) (A) (A) (A) (A) (A) (A) (A) (A) (A) (A)
                 (A) (A) (A) (A) (A) (A) (A) (A) (A) (A) (A) (A)
                 (A) (A) (A) (A) (A) (A) (A) (A) (A) (A) (A) (A)
                 (A) (A) (A) (A) (A) (A) (A) (A) (A) (A) (A) (A)
                 (A) (A) (A) (A) (A) (A) (A) (A) (A) (A) (A) (A)
                 (A) (A) (A) (A) (A) (A) (A) (A) (A) (A) (A) (A)
                 (A) (A) (A) (A) (A) (A) (A) (A) (A) (A) (A) (A)
                 (A) (A) (A) (A) (A) (A) (A) (A) (A) (A) (A) (A)
                 (A) (A) (A) (A) (A) (A) (A) (A) (A) (A) (A) (A)
                 (A) (A) (A) (A) (A) (A) (A) (A) (A) (A) (A) (A)
                 (A) (A) (A) (A) (A) (A) (A) (A) (A) (A) (A) (A)
                 (A) (A) (A) (A) (A) (A) (A) (A) (A) (A) (A) (A)
                 (A) (A) (A) (A) (A) (A) (A) (A) (A) (A) (A) (A)
                 (A) (A) (A) (A) (A) (A) (A) (A) (A) (A) (A) (A)
                 (A) (A) (A) (A) (A) (A) (A) (A) (A) (A) (A) (A)
                 (A) (A) (A) (A) (A) (A) (A) (A) (A) (A) (A) (A)
                 (A) (A) (A) (A) (A) (A) (A) (A) (A) (A) (A) (A)
                 (A) (A) (A) (A) (A) (A) (A) (A) (A) (A) (A) (A)
                 (A) (A) (A) (A) (A) (A) (A) (A) (A) (A) (A) (A)
                 (A) (A) (A) (A) (A) (A) (A) (A) (A) (A) (A) (A)
                 (A) (A) (A) (A) (A) (A) (A) (A) (A) (A) (A) (A)
                 (A) (A) (A) (A) (A) (A) (A) (A) (A) (A) (A) (A)
                 (A) (A) (A) (A) (A) (A) (A) (A) (A) (A) (A) (A)
                 (A) (A) (A) (A) (A) (A) (A) (A) (A) (A) (A) (A)
                 (A) (A) (A) (A) (A) (A) (A) (A) (A) (A) (A) (A)
                 (A) (A) (A) (A) (A) (A) (A) (A) (A) (A) (A) (A)
                 (A) (A) (A) (A) (A) (A) (A) (A) (A) (A) (A) (A)
                 (A) (A) (A) (A) (A) (A) (A) (A) (A) (A) (A) (A)
                 (A) (A) (A) (A) (A) (A) (A) (A) (A) (A) (A) (A)
                 (A) (A) (A) (A) (A) (A) (A) (A) (A) (A) (A) (A)
                 (A) (A) (A) (A) (A) (A) (A) (A) (A) (A) (A) (A)
                 (A) (A) (A) (A) (A) (A) (A) (A) (A) (A) (A) (A)
                 (A) (A) (A) (A) (A) (A) (A) (A) (A) (A) (A) (A)
                 (A) (A) (A) (A) (A) (A) (A) (A) (A) (A) (A) (A)
                 (A) (A) (A) (A) (A) (A) (A) (A) (A) (A) (A) (A)
                 (A) (A) (A) (A) (A) (A) (A) (A) (A) (A) (A) (A)
                 (A) (A) (A) (A) (A) (A) (A) (A) (A) (A) (A) (A)
                 (A) (A) (A) (A) (A) (A) (A) (A) (A) (A) (A) (A)
                 (A) (A) (A) (A) (A) (A) (A) (A) (A) (A) (A) (A)
                 (A) (A) (A) (A) (A) (A) (A) (A) (A) (A) (A) (A)
                 (A) (A) (A) (A) (A) (A) (A) (A) (A) (A) (A) (A)
                 (A) (A) (A) (A) (A) (A) (A) (A) (A) (A) (A) (A)
                 (A) (A) (A) (A) (A) (A) (A) (A) (A) (A) (A) (A)
                 (A) (A) (A) (A) (A) (A) (A) (A) (A) (A) (A) (A)
                 (A) (A) (A) (A) (A) (A) (A) (A) (A) (A) (A) (A)
                 (A) (A) (A) (A) (A) (A) (A) (A) (A) (A) (A) (A)
                 (A) (A) (A) (A) (A) (A) (A) (A) (A) (A) (A) (A)
                 (A) (A) (A) (A) (A) (A) (A) (A) (A) (A) (A) (A)
                 (A) (A) (A) (A) (A) (A) (A) (A) (A) (A) (A) (A)
                 (A) (A) (A) (A) (A) (A) (A) (A) (A) (A) (A) (A)
                 (A) (A) (A) (A) (A) (A) (A) (A) (A) (A) (A) (A)
                 (A) (A) (A) (A) (A) (A) (A) (A) (A) (A) (A) (A)
                 (A) (A) (A) (A) (A) (A) (A) (A) (A) (A) (A) (A)
                 (A) (A) (A) (A) (A) (A) (A) (A) (A) (A) (A) (A)
                 (A) (A) (A) (A) (A) (A) (A) (A) (A) (A) (A) (A)
                 (A)
 The electronic state is 2-A.
 Alpha  occ. eigenvalues -- -256.36848 -30.23785 -26.08334 -26.07778 -26.06101
 Alpha  occ. eigenvalues --  -14.52020 -14.51524 -14.47853 -14.47436 -14.44777
 Alpha  occ. eigenvalues --  -14.44715 -14.44647 -14.44546 -10.36508 -10.35953
 Alpha  occ. eigenvalues --  -10.33820 -10.33433 -10.31886 -10.31880 -10.31751
 Alpha  occ. eigenvalues --  -10.31726 -10.31695 -10.31642 -10.31608 -10.31515
 Alpha  occ. eigenvalues --  -10.31242 -10.30915 -10.29544 -10.29270 -10.29060
 Alpha  occ. eigenvalues --  -10.29037 -10.28861 -10.28804 -10.28784 -10.28763
 Alpha  occ. eigenvalues --  -10.28722 -10.28664 -10.28656 -10.28642 -10.28641
 Alpha  occ. eigenvalues --  -10.28578 -10.28312 -10.28219 -10.27358 -10.27307
 Alpha  occ. eigenvalues --  -10.27278 -10.27239 -10.27197 -10.27137 -10.26956
 Alpha  occ. eigenvalues --  -10.26833  -3.62167  -2.40169  -2.39029  -2.35490
 Alpha  occ. eigenvalues --   -1.15949  -1.15497  -1.07992  -1.06972  -1.06964
 Alpha  occ. eigenvalues --   -1.05982  -1.01733  -1.01287  -0.92676  -0.91514
 Alpha  occ. eigenvalues --   -0.91243  -0.90592  -0.90253  -0.89928  -0.89864
 Alpha  occ. eigenvalues --   -0.89854  -0.89550  -0.86107  -0.84948  -0.84403
 Alpha  occ. eigenvalues --   -0.83632  -0.82272  -0.81492  -0.81160  -0.80514
 Alpha  occ. eigenvalues --   -0.79582  -0.77850  -0.77622  -0.77386  -0.75035
 Alpha  occ. eigenvalues --   -0.74582  -0.74352  -0.74318  -0.71603  -0.71213
 Alpha  occ. eigenvalues --   -0.70069  -0.69462  -0.68053  -0.67332  -0.66171
 Alpha  occ. eigenvalues --   -0.65845  -0.64385  -0.63650  -0.62947  -0.62597
 Alpha  occ. eigenvalues --   -0.61137  -0.61091  -0.60700  -0.58560  -0.58235
 Alpha  occ. eigenvalues --   -0.57959  -0.57774  -0.57548  -0.57307  -0.57101
 Alpha  occ. eigenvalues --   -0.55041  -0.54489  -0.54257  -0.54134  -0.53874
 Alpha  occ. eigenvalues --   -0.53261  -0.53096  -0.53011  -0.52887  -0.52652
 Alpha  occ. eigenvalues --   -0.52625  -0.52477  -0.52473  -0.52144  -0.51645
 Alpha  occ. eigenvalues --   -0.51462  -0.51428  -0.51249  -0.51029  -0.50501
 Alpha  occ. eigenvalues --   -0.50122  -0.49972  -0.49680  -0.49634  -0.49548
 Alpha  occ. eigenvalues --   -0.49330  -0.49196  -0.48912  -0.48778  -0.48418
 Alpha  occ. eigenvalues --   -0.48123  -0.47773  -0.47606  -0.47388  -0.47003
 Alpha  occ. eigenvalues --   -0.46867  -0.46569  -0.45905  -0.45513  -0.45045
 Alpha  occ. eigenvalues --   -0.44988  -0.44769  -0.44198  -0.43747  -0.43166
 Alpha  occ. eigenvalues --   -0.42756  -0.42136  -0.42084  -0.41651  -0.40561
 Alpha  occ. eigenvalues --   -0.39908  -0.39127  -0.38756  -0.38434  -0.38210
 Alpha  occ. eigenvalues --   -0.36758  -0.36584  -0.34161  -0.33774  -0.32831
 Alpha  occ. eigenvalues --   -0.32589  -0.31500  -0.31446  -0.28894  -0.28166
 Alpha virt. eigenvalues --   -0.17048  -0.16946  -0.14704  -0.13186  -0.11506
 Alpha virt. eigenvalues --   -0.09007  -0.08485  -0.08442  -0.07251  -0.06194
 Alpha virt. eigenvalues --   -0.05227  -0.05155  -0.04791  -0.04570  -0.04002
 Alpha virt. eigenvalues --   -0.03397  -0.03052  -0.02583  -0.01818  -0.01620
 Alpha virt. eigenvalues --   -0.01458  -0.01225  -0.00740  -0.00557  -0.00097
 Alpha virt. eigenvalues --    0.00518   0.00679   0.00821   0.01139   0.01566
 Alpha virt. eigenvalues --    0.01632   0.01995   0.02265   0.02626   0.03017
 Alpha virt. eigenvalues --    0.03238   0.03332   0.03639   0.03786   0.03945
 Alpha virt. eigenvalues --    0.04033   0.04140   0.04328   0.04569   0.04706
 Alpha virt. eigenvalues --    0.04758   0.04992   0.05208   0.05345   0.05622
 Alpha virt. eigenvalues --    0.05826   0.06135   0.06307   0.06320   0.06478
 Alpha virt. eigenvalues --    0.06992   0.07202   0.07486   0.07580   0.07822
 Alpha virt. eigenvalues --    0.07890   0.08256   0.08427   0.08565   0.08602
 Alpha virt. eigenvalues --    0.08837   0.09044   0.09327   0.09393   0.09551
 Alpha virt. eigenvalues --    0.10413   0.10535   0.10848   0.11135   0.11178
 Alpha virt. eigenvalues --    0.11286   0.11478   0.11551   0.11800   0.12164
 Alpha virt. eigenvalues --    0.12344   0.12777   0.13025   0.13335   0.13478
 Alpha virt. eigenvalues --    0.13546   0.14036   0.14203   0.14440   0.14713
 Alpha virt. eigenvalues --    0.15051   0.15257   0.15550   0.15883   0.16159
 Alpha virt. eigenvalues --    0.16401   0.16784   0.17083   0.17304   0.17470
 Alpha virt. eigenvalues --    0.17747   0.17931   0.18003   0.18263   0.18461
 Alpha virt. eigenvalues --    0.18651   0.18882   0.18952   0.19347   0.19753
 Alpha virt. eigenvalues --    0.20174   0.20327   0.20435   0.20618   0.20916
 Alpha virt. eigenvalues --    0.21058   0.21194   0.21804   0.21924   0.22113
 Alpha virt. eigenvalues --    0.22286   0.22506   0.22728   0.22808   0.23106
 Alpha virt. eigenvalues --    0.23438   0.23782   0.23866   0.24056   0.24381
 Alpha virt. eigenvalues --    0.24477   0.24825   0.25024   0.25275   0.25769
 Alpha virt. eigenvalues --    0.26093   0.26354   0.26529   0.27176   0.27353
 Alpha virt. eigenvalues --    0.27471   0.27867   0.28032   0.28115   0.28360
 Alpha virt. eigenvalues --    0.28663   0.28703   0.28790   0.28832   0.29245
 Alpha virt. eigenvalues --    0.29826   0.29921   0.30046   0.30259   0.30746
 Alpha virt. eigenvalues --    0.31019   0.31269   0.31386   0.31689   0.31831
 Alpha virt. eigenvalues --    0.32018   0.32306   0.32348   0.32581   0.32806
 Alpha virt. eigenvalues --    0.32949   0.33232   0.33302   0.33520   0.33660
 Alpha virt. eigenvalues --    0.33766   0.33826   0.33963   0.34349   0.34690
 Alpha virt. eigenvalues --    0.34814   0.34923   0.35002   0.35276   0.35407
 Alpha virt. eigenvalues --    0.35626   0.35794   0.36011   0.36151   0.36201
 Alpha virt. eigenvalues --    0.36403   0.36834   0.36978   0.37368   0.37593
 Alpha virt. eigenvalues --    0.37724   0.37829   0.38083   0.38284   0.38330
 Alpha virt. eigenvalues --    0.38440   0.38701   0.38970   0.39105   0.39495
 Alpha virt. eigenvalues --    0.39613   0.39825   0.39905   0.40205   0.40278
 Alpha virt. eigenvalues --    0.40534   0.40546   0.40719   0.41041   0.41416
 Alpha virt. eigenvalues --    0.41719   0.41845   0.41907   0.41935   0.42230
 Alpha virt. eigenvalues --    0.42495   0.42773   0.43007   0.43096   0.43277
 Alpha virt. eigenvalues --    0.43544   0.43669   0.44046   0.44225   0.44308
 Alpha virt. eigenvalues --    0.44646   0.44908   0.45055   0.45335   0.45510
 Alpha virt. eigenvalues --    0.45662   0.45873   0.46197   0.46374   0.46660
 Alpha virt. eigenvalues --    0.46700   0.46924   0.47208   0.47383   0.47529
 Alpha virt. eigenvalues --    0.47683   0.47971   0.48309   0.48670   0.48920
 Alpha virt. eigenvalues --    0.49002   0.49087   0.49315   0.49554   0.49823
 Alpha virt. eigenvalues --    0.49997   0.50158   0.50491   0.50653   0.51286
 Alpha virt. eigenvalues --    0.51504   0.51594   0.51749   0.52407   0.52811
 Alpha virt. eigenvalues --    0.53061   0.53382   0.53504   0.53636   0.54263
 Alpha virt. eigenvalues --    0.54387   0.54545   0.54815   0.55160   0.55612
 Alpha virt. eigenvalues --    0.56067   0.56176   0.56265   0.56683   0.56873
 Alpha virt. eigenvalues --    0.56944   0.57341   0.57381   0.57913   0.57979
 Alpha virt. eigenvalues --    0.58117   0.58643   0.59042   0.59387   0.59977
 Alpha virt. eigenvalues --    0.60077   0.60097   0.61001   0.61431   0.61971
 Alpha virt. eigenvalues --    0.62441   0.62522   0.62780   0.62872   0.63254
 Alpha virt. eigenvalues --    0.63530   0.63986   0.64127   0.64369   0.64516
 Alpha virt. eigenvalues --    0.64956   0.65389   0.65687   0.65843   0.66146
 Alpha virt. eigenvalues --    0.66745   0.66947   0.67182   0.67339   0.67708
 Alpha virt. eigenvalues --    0.67801   0.68472   0.68523   0.68685   0.69113
 Alpha virt. eigenvalues --    0.69299   0.69586   0.69707   0.70380   0.70549
 Alpha virt. eigenvalues --    0.70978   0.71114   0.71363   0.71945   0.72145
 Alpha virt. eigenvalues --    0.72399   0.72702   0.73028   0.73519   0.73735
 Alpha virt. eigenvalues --    0.74214   0.74350   0.74941   0.75235   0.75344
 Alpha virt. eigenvalues --    0.75592   0.76293   0.76389   0.77048   0.77087
 Alpha virt. eigenvalues --    0.77718   0.78307   0.78443   0.78743   0.79553
 Alpha virt. eigenvalues --    0.79714   0.80100   0.80183   0.80538   0.80793
 Alpha virt. eigenvalues --    0.81028   0.81437   0.81695   0.81751   0.82172
 Alpha virt. eigenvalues --    0.82398   0.82897   0.83342   0.83561   0.84260
 Alpha virt. eigenvalues --    0.84833   0.85079   0.85320   0.85762   0.85925
 Alpha virt. eigenvalues --    0.86174   0.86517   0.87008   0.87259   0.87553
 Alpha virt. eigenvalues --    0.87883   0.88063   0.88295   0.88530   0.88775
 Alpha virt. eigenvalues --    0.89081   0.89376   0.89699   0.90023   0.90361
 Alpha virt. eigenvalues --    0.90395   0.90486   0.90967   0.91423   0.91827
 Alpha virt. eigenvalues --    0.92128   0.92587   0.92833   0.93040   0.93356
 Alpha virt. eigenvalues --    0.93685   0.93863   0.94185   0.94426   0.94786
 Alpha virt. eigenvalues --    0.95067   0.95163   0.95775   0.96091   0.96177
 Alpha virt. eigenvalues --    0.96561   0.97004   0.97264   0.97674   0.97757
 Alpha virt. eigenvalues --    0.98344   0.98749   0.99016   0.99142   0.99639
 Alpha virt. eigenvalues --    0.99744   1.00178   1.00349   1.00749   1.01012
 Alpha virt. eigenvalues --    1.01428   1.02041   1.02313   1.02596   1.03075
 Alpha virt. eigenvalues --    1.03302   1.03783   1.04584   1.05165   1.05384
 Alpha virt. eigenvalues --    1.06209   1.06570   1.06751   1.06951   1.07199
 Alpha virt. eigenvalues --    1.07377   1.07522   1.07993   1.08496   1.08857
 Alpha virt. eigenvalues --    1.09588   1.09727   1.10099   1.10314   1.10658
 Alpha virt. eigenvalues --    1.10930   1.11309   1.11545   1.11617   1.12052
 Alpha virt. eigenvalues --    1.12254   1.12414   1.12856   1.13186   1.13833
 Alpha virt. eigenvalues --    1.14571   1.14686   1.14886   1.15477   1.16103
 Alpha virt. eigenvalues --    1.16338   1.16718   1.16778   1.17209   1.17532
 Alpha virt. eigenvalues --    1.17997   1.18336   1.18504   1.19106   1.19335
 Alpha virt. eigenvalues --    1.19495   1.19706   1.19814   1.19989   1.20588
 Alpha virt. eigenvalues --    1.20843   1.21696   1.22332   1.22556   1.22789
 Alpha virt. eigenvalues --    1.23345   1.23768   1.24317   1.24792   1.25135
 Alpha virt. eigenvalues --    1.25682   1.25943   1.26335   1.26436   1.26838
 Alpha virt. eigenvalues --    1.27728   1.28029   1.28349   1.28650   1.29663
 Alpha virt. eigenvalues --    1.29888   1.30295   1.30413   1.31082   1.31346
 Alpha virt. eigenvalues --    1.32182   1.32612   1.33192   1.33646   1.33808
 Alpha virt. eigenvalues --    1.34562   1.34863   1.35088   1.36083   1.36424
 Alpha virt. eigenvalues --    1.36896   1.37113   1.37505   1.37592   1.37628
 Alpha virt. eigenvalues --    1.38467   1.38667   1.38768   1.39210   1.39395
 Alpha virt. eigenvalues --    1.39647   1.39901   1.40370   1.40624   1.40817
 Alpha virt. eigenvalues --    1.41225   1.41579   1.41941   1.42172   1.42630
 Alpha virt. eigenvalues --    1.42794   1.43256   1.43408   1.43962   1.44027
 Alpha virt. eigenvalues --    1.44075   1.44214   1.44333   1.44490   1.44750
 Alpha virt. eigenvalues --    1.45193   1.45249   1.45779   1.46331   1.46374
 Alpha virt. eigenvalues --    1.46626   1.46694   1.47102   1.47236   1.47357
 Alpha virt. eigenvalues --    1.47507   1.47696   1.47903   1.48252   1.48378
 Alpha virt. eigenvalues --    1.49077   1.49203   1.49664   1.49721   1.50053
 Alpha virt. eigenvalues --    1.50220   1.50464   1.50803   1.51258   1.51764
 Alpha virt. eigenvalues --    1.51845   1.52039   1.52454   1.52933   1.53222
 Alpha virt. eigenvalues --    1.53435   1.53724   1.53773   1.54037   1.54157
 Alpha virt. eigenvalues --    1.54458   1.54874   1.55003   1.55229   1.55547
 Alpha virt. eigenvalues --    1.55916   1.56102   1.56168   1.56677   1.56937
 Alpha virt. eigenvalues --    1.57606   1.57763   1.57886   1.58085   1.58307
 Alpha virt. eigenvalues --    1.58625   1.58912   1.59359   1.59519   1.59827
 Alpha virt. eigenvalues --    1.60143   1.60595   1.60819   1.61016   1.61069
 Alpha virt. eigenvalues --    1.61437   1.61694   1.62041   1.62332   1.62674
 Alpha virt. eigenvalues --    1.63043   1.63466   1.63978   1.64080   1.64620
 Alpha virt. eigenvalues --    1.64937   1.65726   1.66048   1.66611   1.66771
 Alpha virt. eigenvalues --    1.67485   1.67531   1.68812   1.69759   1.70508
 Alpha virt. eigenvalues --    1.71264   1.71631   1.72135   1.72289   1.72962
 Alpha virt. eigenvalues --    1.73372   1.73459   1.74099   1.74703   1.74801
 Alpha virt. eigenvalues --    1.75166   1.75596   1.76176   1.76294   1.76660
 Alpha virt. eigenvalues --    1.76962   1.77053   1.77180   1.77596   1.77919
 Alpha virt. eigenvalues --    1.78390   1.78573   1.79068   1.79179   1.79448
 Alpha virt. eigenvalues --    1.79692   1.80982   1.81028   1.81678   1.82157
 Alpha virt. eigenvalues --    1.82725   1.83200   1.83880   1.84519   1.84807
 Alpha virt. eigenvalues --    1.85195   1.86082   1.86941   1.87152   1.87337
 Alpha virt. eigenvalues --    1.87712   1.87835   1.88048   1.88469   1.88704
 Alpha virt. eigenvalues --    1.88797   1.89160   1.89529   1.90167   1.90327
 Alpha virt. eigenvalues --    1.90533   1.91370   1.92007   1.92263   1.92528
 Alpha virt. eigenvalues --    1.92884   1.93156   1.93498   1.93866   1.94147
 Alpha virt. eigenvalues --    1.94360   1.95265   1.95663   1.95931   1.97239
 Alpha virt. eigenvalues --    1.97537   1.97965   1.98302   1.98812   1.99277
 Alpha virt. eigenvalues --    2.00076   2.00194   2.00541   2.00813   2.00894
 Alpha virt. eigenvalues --    2.01028   2.01177   2.01689   2.01899   2.02281
 Alpha virt. eigenvalues --    2.02766   2.03113   2.03662   2.04094   2.04363
 Alpha virt. eigenvalues --    2.04737   2.05248   2.05334   2.05537   2.05683
 Alpha virt. eigenvalues --    2.06829   2.07616   2.07824   2.08008   2.08982
 Alpha virt. eigenvalues --    2.09269   2.09547   2.09832   2.10047   2.10387
 Alpha virt. eigenvalues --    2.11197   2.11241   2.11691   2.11750   2.12421
 Alpha virt. eigenvalues --    2.12836   2.13292   2.13399   2.13903   2.14704
 Alpha virt. eigenvalues --    2.15421   2.15824   2.16025   2.16897   2.17152
 Alpha virt. eigenvalues --    2.17918   2.18129   2.18392   2.18699   2.18881
 Alpha virt. eigenvalues --    2.19171   2.20083   2.20290   2.20818   2.21543
 Alpha virt. eigenvalues --    2.21850   2.22018   2.22580   2.22786   2.22981
 Alpha virt. eigenvalues --    2.23404   2.23645   2.24095   2.24759   2.25259
 Alpha virt. eigenvalues --    2.25351   2.25943   2.26156   2.26660   2.27129
 Alpha virt. eigenvalues --    2.27690   2.27962   2.28085   2.28668   2.28902
 Alpha virt. eigenvalues --    2.29027   2.29167   2.29628   2.30003   2.30313
 Alpha virt. eigenvalues --    2.30951   2.31023   2.31430   2.31539   2.32544
 Alpha virt. eigenvalues --    2.32797   2.33517   2.33891   2.34345   2.34432
 Alpha virt. eigenvalues --    2.35089   2.35494   2.35893   2.36306   2.36752
 Alpha virt. eigenvalues --    2.36966   2.37508   2.37972   2.38277   2.38596
 Alpha virt. eigenvalues --    2.39042   2.39162   2.39457   2.39510   2.39980
 Alpha virt. eigenvalues --    2.40198   2.40497   2.40930   2.41414   2.41942
 Alpha virt. eigenvalues --    2.42157   2.42827   2.43281   2.43849   2.44084
 Alpha virt. eigenvalues --    2.44441   2.44570   2.44709   2.44949   2.45803
 Alpha virt. eigenvalues --    2.46557   2.47030   2.47135   2.47253   2.47372
 Alpha virt. eigenvalues --    2.47524   2.47909   2.48693   2.49122   2.49326
 Alpha virt. eigenvalues --    2.49811   2.50187   2.50390   2.50977   2.51414
 Alpha virt. eigenvalues --    2.51787   2.51922   2.52107   2.52366   2.52859
 Alpha virt. eigenvalues --    2.53030   2.53588   2.54469   2.54589   2.54918
 Alpha virt. eigenvalues --    2.55480   2.55948   2.56177   2.56424   2.56601
 Alpha virt. eigenvalues --    2.56962   2.57080   2.57733   2.58141   2.58417
 Alpha virt. eigenvalues --    2.58567   2.58731   2.59475   2.59781   2.60099
 Alpha virt. eigenvalues --    2.60324   2.60490   2.60879   2.61041   2.61824
 Alpha virt. eigenvalues --    2.62052   2.62272   2.62492   2.62715   2.63109
 Alpha virt. eigenvalues --    2.63807   2.64179   2.64467   2.65083   2.65297
 Alpha virt. eigenvalues --    2.66137   2.66453   2.66851   2.67523   2.67857
 Alpha virt. eigenvalues --    2.68122   2.68311   2.68691   2.69305   2.69400
 Alpha virt. eigenvalues --    2.70031   2.70343   2.70510   2.71013   2.71499
 Alpha virt. eigenvalues --    2.72075   2.72519   2.73070   2.73378   2.73828
 Alpha virt. eigenvalues --    2.74218   2.74567   2.74654   2.75366   2.75493
 Alpha virt. eigenvalues --    2.75914   2.76454   2.76711   2.77128   2.77555
 Alpha virt. eigenvalues --    2.77806   2.78607   2.78838   2.78930   2.78972
 Alpha virt. eigenvalues --    2.79645   2.79946   2.80402   2.80606   2.80786
 Alpha virt. eigenvalues --    2.80863   2.81181   2.81532   2.81800   2.82237
 Alpha virt. eigenvalues --    2.82828   2.82945   2.83249   2.83589   2.84043
 Alpha virt. eigenvalues --    2.84477   2.84749   2.84895   2.85121   2.85537
 Alpha virt. eigenvalues --    2.85861   2.86048   2.86823   2.86979   2.87289
 Alpha virt. eigenvalues --    2.87806   2.88220   2.88624   2.88912   2.88963
 Alpha virt. eigenvalues --    2.89146   2.89454   2.89516   2.90453   2.90697
 Alpha virt. eigenvalues --    2.90865   2.91232   2.91495   2.91675   2.91769
 Alpha virt. eigenvalues --    2.92085   2.92531   2.92746   2.93369   2.93597
 Alpha virt. eigenvalues --    2.93836   2.94096   2.94666   2.95064   2.95278
 Alpha virt. eigenvalues --    2.95591   2.96007   2.96340   2.96532   2.96933
 Alpha virt. eigenvalues --    2.97110   2.97729   2.98119   2.98219   2.98374
 Alpha virt. eigenvalues --    2.98498   2.99371   2.99496   2.99636   2.99974
 Alpha virt. eigenvalues --    3.00287   3.00494   3.01144   3.01196   3.01375
 Alpha virt. eigenvalues --    3.01781   3.02015   3.02435   3.02917   3.03021
 Alpha virt. eigenvalues --    3.03153   3.03643   3.03823   3.04026   3.04084
 Alpha virt. eigenvalues --    3.04195   3.04971   3.05273   3.05598   3.06036
 Alpha virt. eigenvalues --    3.06113   3.06419   3.06980   3.07274   3.07478
 Alpha virt. eigenvalues --    3.07754   3.08082   3.08358   3.08801   3.08977
 Alpha virt. eigenvalues --    3.09133   3.09507   3.09752   3.10351   3.10629
 Alpha virt. eigenvalues --    3.10739   3.11213   3.11671   3.11858   3.12186
 Alpha virt. eigenvalues --    3.12367   3.12629   3.12690   3.13001   3.13357
 Alpha virt. eigenvalues --    3.13745   3.14268   3.14640   3.14869   3.14973
 Alpha virt. eigenvalues --    3.15399   3.15776   3.15898   3.16061   3.16211
 Alpha virt. eigenvalues --    3.16432   3.16587   3.16806   3.16936   3.17352
 Alpha virt. eigenvalues --    3.17598   3.17885   3.18188   3.18268   3.18781
 Alpha virt. eigenvalues --    3.18963   3.19604   3.19641   3.19857   3.20099
 Alpha virt. eigenvalues --    3.20233   3.20899   3.21117   3.21371   3.21542
 Alpha virt. eigenvalues --    3.21733   3.21862   3.21942   3.22191   3.22329
 Alpha virt. eigenvalues --    3.22481   3.22762   3.23436   3.23488   3.23645
 Alpha virt. eigenvalues --    3.24211   3.24409   3.24524   3.24783   3.25188
 Alpha virt. eigenvalues --    3.25303   3.25423   3.26150   3.26509   3.26635
 Alpha virt. eigenvalues --    3.26757   3.26910   3.27221   3.27580   3.27770
 Alpha virt. eigenvalues --    3.28018   3.28185   3.28186   3.28456   3.28828
 Alpha virt. eigenvalues --    3.29036   3.29405   3.29762   3.30288   3.30299
 Alpha virt. eigenvalues --    3.30573   3.30831   3.30997   3.31480   3.31698
 Alpha virt. eigenvalues --    3.31819   3.32443   3.32908   3.33236   3.33461
 Alpha virt. eigenvalues --    3.34145   3.34314   3.34563   3.35158   3.35249
 Alpha virt. eigenvalues --    3.35880   3.36278   3.36482   3.36839   3.37141
 Alpha virt. eigenvalues --    3.37375   3.37420   3.38045   3.38689   3.38862
 Alpha virt. eigenvalues --    3.39498   3.40289   3.40665   3.41043   3.41183
 Alpha virt. eigenvalues --    3.41739   3.41898   3.42077   3.42419   3.42845
 Alpha virt. eigenvalues --    3.43156   3.43789   3.44315   3.44418   3.45075
 Alpha virt. eigenvalues --    3.45233   3.45541   3.46046   3.46211   3.46799
 Alpha virt. eigenvalues --    3.47316   3.47364   3.47813   3.47903   3.48147
 Alpha virt. eigenvalues --    3.49019   3.49124   3.49575   3.50031   3.50636
 Alpha virt. eigenvalues --    3.50987   3.51115   3.51398   3.51802   3.52055
 Alpha virt. eigenvalues --    3.52971   3.53393   3.53832   3.54130   3.54395
 Alpha virt. eigenvalues --    3.55282   3.55659   3.56273   3.56555   3.56972
 Alpha virt. eigenvalues --    3.57317   3.57660   3.57803   3.58060   3.58493
 Alpha virt. eigenvalues --    3.59147   3.59702   3.60249   3.60336   3.60389
 Alpha virt. eigenvalues --    3.61020   3.61249   3.61771   3.62006   3.62168
 Alpha virt. eigenvalues --    3.62446   3.62832   3.63166   3.63769   3.64114
 Alpha virt. eigenvalues --    3.64651   3.64755   3.65213   3.65404   3.65780
 Alpha virt. eigenvalues --    3.66160   3.66409   3.66817   3.67372   3.67725
 Alpha virt. eigenvalues --    3.68430   3.68957   3.69613   3.70034   3.70664
 Alpha virt. eigenvalues --    3.71167   3.71376   3.71757   3.72136   3.72950
 Alpha virt. eigenvalues --    3.73270   3.73672   3.74341   3.74469   3.75309
 Alpha virt. eigenvalues --    3.75536   3.76221   3.76842   3.77426   3.77987
 Alpha virt. eigenvalues --    3.79093   3.79342   3.80155   3.80245   3.80863
 Alpha virt. eigenvalues --    3.80985   3.81383   3.81983   3.82273   3.82451
 Alpha virt. eigenvalues --    3.82865   3.83511   3.83592   3.84393   3.84580
 Alpha virt. eigenvalues --    3.85608   3.86080   3.87582   3.88050   3.88462
 Alpha virt. eigenvalues --    3.89366   3.89978   3.90302   3.90601   3.91194
 Alpha virt. eigenvalues --    3.91324   3.91831   3.92140   3.92857   3.93012
 Alpha virt. eigenvalues --    3.93390   3.93972   3.94550   3.94813   3.95310
 Alpha virt. eigenvalues --    3.95551   3.96109   3.96987   3.97241   3.99014
 Alpha virt. eigenvalues --    4.00161   4.00833   4.01561   4.01880   4.02368
 Alpha virt. eigenvalues --    4.02562   4.03959   4.04631   4.05004   4.05343
 Alpha virt. eigenvalues --    4.05729   4.06322   4.07396   4.07508   4.08182
 Alpha virt. eigenvalues --    4.08752   4.09175   4.09472   4.10102   4.10218
 Alpha virt. eigenvalues --    4.10532   4.11835   4.12538   4.12970   4.13122
 Alpha virt. eigenvalues --    4.13892   4.14054   4.14833   4.15189   4.15999
 Alpha virt. eigenvalues --    4.16214   4.16750   4.17241   4.17435   4.17875
 Alpha virt. eigenvalues --    4.18183   4.19246   4.19751   4.20214   4.20517
 Alpha virt. eigenvalues --    4.21068   4.21136   4.21596   4.23335   4.23921
 Alpha virt. eigenvalues --    4.24020   4.24173   4.24595   4.25067   4.25826
 Alpha virt. eigenvalues --    4.26247   4.26933   4.27148   4.28861   4.28932
 Alpha virt. eigenvalues --    4.29180   4.29988   4.30685   4.31250   4.31900
 Alpha virt. eigenvalues --    4.32264   4.32594   4.32790   4.33688   4.34044
 Alpha virt. eigenvalues --    4.34410   4.34885   4.35030   4.35328   4.35666
 Alpha virt. eigenvalues --    4.36173   4.36477   4.36627   4.37147   4.37638
 Alpha virt. eigenvalues --    4.37865   4.38636   4.38891   4.39835   4.40298
 Alpha virt. eigenvalues --    4.41256   4.42247   4.42963   4.43550   4.44343
 Alpha virt. eigenvalues --    4.45263   4.46154   4.47369   4.47654   4.48067
 Alpha virt. eigenvalues --    4.48528   4.49644   4.50344   4.51570   4.52123
 Alpha virt. eigenvalues --    4.53819   4.54459   4.54812   4.55676   4.56372
 Alpha virt. eigenvalues --    4.58168   4.59106   4.59739   4.60240   4.60422
 Alpha virt. eigenvalues --    4.60606   4.61133   4.62492   4.62713   4.63151
 Alpha virt. eigenvalues --    4.63872   4.64131   4.64948   4.65333   4.65412
 Alpha virt. eigenvalues --    4.65972   4.67116   4.67903   4.68303   4.70033
 Alpha virt. eigenvalues --    4.70510   4.71410   4.72444   4.73416   4.73624
 Alpha virt. eigenvalues --    4.74105   4.74475   4.75075   4.75280   4.75629
 Alpha virt. eigenvalues --    4.75755   4.76054   4.76888   4.77635   4.78724
 Alpha virt. eigenvalues --    4.79375   4.80021   4.80811   4.81764   4.83020
 Alpha virt. eigenvalues --    4.83682   4.84232   4.84668   4.85228   4.85948
 Alpha virt. eigenvalues --    4.86062   4.87082   4.87778   4.88309   4.88982
 Alpha virt. eigenvalues --    4.89410   4.89970   4.90282   4.91380   4.92401
 Alpha virt. eigenvalues --    4.93252   4.93554   4.94262   4.95087   4.96028
 Alpha virt. eigenvalues --    4.96725   4.97143   4.98129   4.99277   4.99664
 Alpha virt. eigenvalues --    4.99834   5.01075   5.01487   5.02514   5.03142
 Alpha virt. eigenvalues --    5.03432   5.05708   5.06259   5.09007   5.10532
 Alpha virt. eigenvalues --    5.10620   5.11089   5.11281   5.12314   5.13490
 Alpha virt. eigenvalues --    5.13904   5.14430   5.15009   5.17287   5.18520
 Alpha virt. eigenvalues --    5.18764   5.19438   5.20892   5.21371   5.22681
 Alpha virt. eigenvalues --    5.24489   5.26068   5.26775   5.27551   5.27930
 Alpha virt. eigenvalues --    5.28616   5.29156   5.29272   5.29567   5.29745
 Alpha virt. eigenvalues --    5.30370   5.33025   5.34389   5.34812   5.35477
 Alpha virt. eigenvalues --    5.36552   5.37661   5.38135   5.40213   5.40485
 Alpha virt. eigenvalues --    5.41754   5.41914   5.43058   5.43676   5.46678
 Alpha virt. eigenvalues --    5.48586   5.50389   5.50811   5.51895   5.53294
 Alpha virt. eigenvalues --    5.53770   5.54739   5.55202   5.55479   5.56451
 Alpha virt. eigenvalues --    5.57029   5.57756   5.58058   5.59700   5.61359
 Alpha virt. eigenvalues --    5.63162   5.64666   5.65484   5.67990   5.71367
 Alpha virt. eigenvalues --    5.72322   5.77020   5.80313   5.86154   5.87972
 Alpha virt. eigenvalues --    5.88993   5.90465   5.91611   5.92110   5.93709
 Alpha virt. eigenvalues --    5.94182   5.96141   5.99520   6.00916   6.04809
 Alpha virt. eigenvalues --    6.05221   6.06153   6.07312   6.08861   6.10241
 Alpha virt. eigenvalues --    6.13924   6.17567   6.25334   6.25423   6.31528
 Alpha virt. eigenvalues --   22.27914  22.28803  22.35556  22.35879  22.37440
 Alpha virt. eigenvalues --   22.38286  22.43842  22.44606  22.53954  22.54140
 Alpha virt. eigenvalues --   22.72585  22.73769  22.78667  22.78950  22.85619
 Alpha virt. eigenvalues --   22.86047  22.86776  22.89113  22.90546  22.94413
 Alpha virt. eigenvalues --   22.94988  22.99947  23.01265  23.05898  23.18468
 Alpha virt. eigenvalues --   23.19447  23.20225  23.22519  23.22960  23.32027
 Alpha virt. eigenvalues --   23.37375  23.41802  23.41901  23.46556  23.64775
 Alpha virt. eigenvalues --   23.70187  23.70594  23.80747  32.31089  32.32728
 Alpha virt. eigenvalues --   32.69855  32.76435  32.93979  32.94056  32.95185
 Alpha virt. eigenvalues --   33.32891
  Beta  occ. eigenvalues -- -256.36814 -30.21602 -26.06009 -26.05725 -26.05014
  Beta  occ. eigenvalues --  -14.52012 -14.51527 -14.47921 -14.47503 -14.44831
  Beta  occ. eigenvalues --  -14.44768 -14.44700 -14.44599 -10.36481 -10.35951
  Beta  occ. eigenvalues --  -10.33821 -10.33435 -10.31882 -10.31878 -10.31743
  Beta  occ. eigenvalues --  -10.31713 -10.31681 -10.31644 -10.31610 -10.31518
  Beta  occ. eigenvalues --  -10.31242 -10.30911 -10.29544 -10.29271 -10.29067
  Beta  occ. eigenvalues --  -10.29020 -10.28866 -10.28785 -10.28767 -10.28766
  Beta  occ. eigenvalues --  -10.28704 -10.28669 -10.28660 -10.28648 -10.28645
  Beta  occ. eigenvalues --  -10.28583 -10.28319 -10.28220 -10.27359 -10.27308
  Beta  occ. eigenvalues --  -10.27280 -10.27240 -10.27197 -10.27138 -10.26945
  Beta  occ. eigenvalues --  -10.26833  -3.56870  -2.32840  -2.32641  -2.32226
  Beta  occ. eigenvalues --   -1.15947  -1.15521  -1.08016  -1.06996  -1.06989
  Beta  occ. eigenvalues --   -1.06005  -1.01761  -1.01329  -0.92676  -0.91512
  Beta  occ. eigenvalues --   -0.91243  -0.90582  -0.90253  -0.89925  -0.89868
  Beta  occ. eigenvalues --   -0.89858  -0.89553  -0.86105  -0.84946  -0.84415
  Beta  occ. eigenvalues --   -0.83630  -0.82270  -0.81487  -0.81160  -0.80515
  Beta  occ. eigenvalues --   -0.79587  -0.77857  -0.77633  -0.77398  -0.75051
  Beta  occ. eigenvalues --   -0.74603  -0.74361  -0.74306  -0.71601  -0.71214
  Beta  occ. eigenvalues --   -0.70070  -0.69467  -0.68048  -0.67331  -0.66171
  Beta  occ. eigenvalues --   -0.65835  -0.64388  -0.63659  -0.62950  -0.62601
  Beta  occ. eigenvalues --   -0.61154  -0.61111  -0.60716  -0.58542  -0.58237
  Beta  occ. eigenvalues --   -0.57950  -0.57668  -0.57546  -0.57285  -0.57105
  Beta  occ. eigenvalues --   -0.55042  -0.54462  -0.54198  -0.54105  -0.53839
  Beta  occ. eigenvalues --   -0.53241  -0.53080  -0.52994  -0.52838  -0.52633
  Beta  occ. eigenvalues --   -0.52616  -0.52467  -0.52444  -0.52131  -0.51580
  Beta  occ. eigenvalues --   -0.51455  -0.51408  -0.51244  -0.51012  -0.50507
  Beta  occ. eigenvalues --   -0.50110  -0.49962  -0.49655  -0.49641  -0.49518
  Beta  occ. eigenvalues --   -0.49190  -0.49005  -0.48880  -0.48705  -0.48403
  Beta  occ. eigenvalues --   -0.48101  -0.47762  -0.47522  -0.47338  -0.46970
  Beta  occ. eigenvalues --   -0.46752  -0.46404  -0.45872  -0.45522  -0.44978
  Beta  occ. eigenvalues --   -0.44955  -0.44211  -0.43749  -0.43150  -0.42568
  Beta  occ. eigenvalues --   -0.42464  -0.42102  -0.41880  -0.40546  -0.40426
  Beta  occ. eigenvalues --   -0.39068  -0.38803  -0.37516  -0.36935  -0.36038
  Beta  occ. eigenvalues --   -0.35568  -0.34166  -0.33755  -0.33082  -0.32621
  Beta  occ. eigenvalues --   -0.31635  -0.31115  -0.28940  -0.28096
  Beta virt. eigenvalues --   -0.19192  -0.16935  -0.15541  -0.12427  -0.11455
  Beta virt. eigenvalues --   -0.10535  -0.08610  -0.08456  -0.08359  -0.07204
  Beta virt. eigenvalues --   -0.06167  -0.05225  -0.04978  -0.04791  -0.04550
  Beta virt. eigenvalues --   -0.03994  -0.03381  -0.03052  -0.02580  -0.01664
  Beta virt. eigenvalues --   -0.01561  -0.01442  -0.01183  -0.00725  -0.00553
  Beta virt. eigenvalues --   -0.00073   0.00522   0.00685   0.00824   0.01155
  Beta virt. eigenvalues --    0.01586   0.01655   0.02005   0.02274   0.02648
  Beta virt. eigenvalues --    0.03031   0.03243   0.03357   0.03660   0.03794
  Beta virt. eigenvalues --    0.03948   0.04057   0.04162   0.04344   0.04590
  Beta virt. eigenvalues --    0.04710   0.04764   0.04997   0.05216   0.05372
  Beta virt. eigenvalues --    0.05632   0.05841   0.06142   0.06317   0.06333
  Beta virt. eigenvalues --    0.06490   0.06997   0.07206   0.07494   0.07584
  Beta virt. eigenvalues --    0.07830   0.07896   0.08269   0.08440   0.08584
  Beta virt. eigenvalues --    0.08620   0.08847   0.09054   0.09336   0.09400
  Beta virt. eigenvalues --    0.09557   0.10416   0.10547   0.10875   0.11141
  Beta virt. eigenvalues --    0.11193   0.11292   0.11500   0.11557   0.11806
  Beta virt. eigenvalues --    0.12171   0.12351   0.12789   0.13038   0.13340
  Beta virt. eigenvalues --    0.13484   0.13552   0.14042   0.14224   0.14450
  Beta virt. eigenvalues --    0.14711   0.15062   0.15264   0.15596   0.15909
  Beta virt. eigenvalues --    0.16183   0.16439   0.16808   0.17097   0.17315
  Beta virt. eigenvalues --    0.17475   0.17758   0.17947   0.18093   0.18282
  Beta virt. eigenvalues --    0.18468   0.18709   0.18924   0.18974   0.19359
  Beta virt. eigenvalues --    0.19787   0.20184   0.20376   0.20442   0.20622
  Beta virt. eigenvalues --    0.20924   0.21064   0.21249   0.21814   0.21950
  Beta virt. eigenvalues --    0.22145   0.22319   0.22528   0.22752   0.22832
  Beta virt. eigenvalues --    0.23125   0.23473   0.23792   0.23922   0.24092
  Beta virt. eigenvalues --    0.24405   0.24519   0.24863   0.25028   0.25297
  Beta virt. eigenvalues --    0.25833   0.26126   0.26370   0.26549   0.27219
  Beta virt. eigenvalues --    0.27377   0.27592   0.27884   0.28048   0.28143
  Beta virt. eigenvalues --    0.28404   0.28691   0.28762   0.28825   0.28851
  Beta virt. eigenvalues --    0.29265   0.29842   0.29929   0.30064   0.30268
  Beta virt. eigenvalues --    0.30758   0.31042   0.31286   0.31412   0.31711
  Beta virt. eigenvalues --    0.31860   0.32055   0.32339   0.32367   0.32617
  Beta virt. eigenvalues --    0.32847   0.32974   0.33253   0.33325   0.33578
  Beta virt. eigenvalues --    0.33685   0.33800   0.33909   0.34019   0.34368
  Beta virt. eigenvalues --    0.34736   0.34847   0.34947   0.35017   0.35283
  Beta virt. eigenvalues --    0.35508   0.35686   0.35884   0.36045   0.36185
  Beta virt. eigenvalues --    0.36234   0.36477   0.36849   0.37010   0.37379
  Beta virt. eigenvalues --    0.37611   0.37749   0.37864   0.38098   0.38296
  Beta virt. eigenvalues --    0.38356   0.38471   0.38710   0.38982   0.39115
  Beta virt. eigenvalues --    0.39508   0.39619   0.39843   0.39928   0.40214
  Beta virt. eigenvalues --    0.40286   0.40548   0.40564   0.40730   0.41066
  Beta virt. eigenvalues --    0.41461   0.41721   0.41848   0.41921   0.41944
  Beta virt. eigenvalues --    0.42245   0.42510   0.42797   0.43037   0.43138
  Beta virt. eigenvalues --    0.43273   0.43551   0.43685   0.44045   0.44226
  Beta virt. eigenvalues --    0.44339   0.44671   0.44949   0.45063   0.45345
  Beta virt. eigenvalues --    0.45551   0.45705   0.45931   0.46224   0.46410
  Beta virt. eigenvalues --    0.46679   0.46707   0.46949   0.47216   0.47398
  Beta virt. eigenvalues --    0.47547   0.47716   0.47989   0.48328   0.48679
  Beta virt. eigenvalues --    0.48930   0.49051   0.49103   0.49319   0.49576
  Beta virt. eigenvalues --    0.49845   0.50001   0.50200   0.50500   0.50671
  Beta virt. eigenvalues --    0.51315   0.51539   0.51609   0.51767   0.52425
  Beta virt. eigenvalues --    0.52833   0.53086   0.53396   0.53510   0.53653
  Beta virt. eigenvalues --    0.54286   0.54405   0.54575   0.54838   0.55195
  Beta virt. eigenvalues --    0.55628   0.56094   0.56203   0.56301   0.56735
  Beta virt. eigenvalues --    0.56916   0.56987   0.57376   0.57461   0.57922
  Beta virt. eigenvalues --    0.57989   0.58127   0.58650   0.59064   0.59400
  Beta virt. eigenvalues --    0.60004   0.60094   0.60111   0.61016   0.61482
  Beta virt. eigenvalues --    0.62019   0.62496   0.62629   0.62790   0.62907
  Beta virt. eigenvalues --    0.63303   0.63553   0.64021   0.64211   0.64398
  Beta virt. eigenvalues --    0.64557   0.64984   0.65462   0.65706   0.65888
  Beta virt. eigenvalues --    0.66164   0.66753   0.66977   0.67199   0.67370
  Beta virt. eigenvalues --    0.67716   0.67847   0.68485   0.68549   0.68746
  Beta virt. eigenvalues --    0.69127   0.69335   0.69597   0.69713   0.70428
  Beta virt. eigenvalues --    0.70572   0.71001   0.71161   0.71409   0.71967
  Beta virt. eigenvalues --    0.72159   0.72425   0.72727   0.73064   0.73538
  Beta virt. eigenvalues --    0.73763   0.74242   0.74375   0.74954   0.75251
  Beta virt. eigenvalues --    0.75369   0.75607   0.76315   0.76402   0.77070
  Beta virt. eigenvalues --    0.77109   0.77738   0.78323   0.78484   0.78779
  Beta virt. eigenvalues --    0.79589   0.79782   0.80149   0.80202   0.80561
  Beta virt. eigenvalues --    0.80812   0.81047   0.81457   0.81721   0.81760
  Beta virt. eigenvalues --    0.82216   0.82421   0.82939   0.83362   0.83597
  Beta virt. eigenvalues --    0.84306   0.84858   0.85105   0.85340   0.85793
  Beta virt. eigenvalues --    0.85977   0.86200   0.86541   0.87027   0.87303
  Beta virt. eigenvalues --    0.87606   0.87969   0.88087   0.88326   0.88576
  Beta virt. eigenvalues --    0.88809   0.89125   0.89398   0.89727   0.90060
  Beta virt. eigenvalues --    0.90407   0.90417   0.90498   0.90973   0.91464
  Beta virt. eigenvalues --    0.91855   0.92155   0.92616   0.92863   0.93072
  Beta virt. eigenvalues --    0.93368   0.93704   0.93883   0.94195   0.94441
  Beta virt. eigenvalues --    0.94830   0.95083   0.95189   0.95795   0.96164
  Beta virt. eigenvalues --    0.96186   0.96592   0.97019   0.97292   0.97696
  Beta virt. eigenvalues --    0.97797   0.98435   0.98781   0.99121   0.99194
  Beta virt. eigenvalues --    0.99673   0.99989   1.00290   1.00366   1.00836
  Beta virt. eigenvalues --    1.01044   1.01451   1.02130   1.02347   1.02654
  Beta virt. eigenvalues --    1.03116   1.03324   1.03838   1.04632   1.05196
  Beta virt. eigenvalues --    1.05399   1.06262   1.06584   1.06793   1.06983
  Beta virt. eigenvalues --    1.07242   1.07389   1.07633   1.08017   1.08528
  Beta virt. eigenvalues --    1.08919   1.09620   1.09745   1.10128   1.10367
  Beta virt. eigenvalues --    1.10725   1.10950   1.11322   1.11568   1.11666
  Beta virt. eigenvalues --    1.12181   1.12265   1.12432   1.12932   1.13200
  Beta virt. eigenvalues --    1.13925   1.14604   1.14741   1.14937   1.15539
  Beta virt. eigenvalues --    1.16150   1.16470   1.16752   1.16816   1.17248
  Beta virt. eigenvalues --    1.17579   1.18062   1.18353   1.18523   1.19156
  Beta virt. eigenvalues --    1.19410   1.19524   1.19716   1.19856   1.20014
  Beta virt. eigenvalues --    1.20639   1.20918   1.21733   1.22361   1.22576
  Beta virt. eigenvalues --    1.22798   1.23359   1.23825   1.24337   1.24821
  Beta virt. eigenvalues --    1.25195   1.25751   1.26004   1.26380   1.26520
  Beta virt. eigenvalues --    1.26867   1.27771   1.28031   1.28379   1.28697
  Beta virt. eigenvalues --    1.29682   1.29911   1.30322   1.30441   1.31099
  Beta virt. eigenvalues --    1.31385   1.32225   1.32687   1.33236   1.33643
  Beta virt. eigenvalues --    1.33851   1.34588   1.34916   1.35103   1.36114
  Beta virt. eigenvalues --    1.36507   1.36962   1.37205   1.37554   1.37613
  Beta virt. eigenvalues --    1.37695   1.38488   1.38687   1.38781   1.39246
  Beta virt. eigenvalues --    1.39410   1.39681   1.39949   1.40410   1.40640
  Beta virt. eigenvalues --    1.40857   1.41237   1.41599   1.41960   1.42186
  Beta virt. eigenvalues --    1.42658   1.42836   1.43276   1.43448   1.43986
  Beta virt. eigenvalues --    1.44043   1.44086   1.44253   1.44358   1.44522
  Beta virt. eigenvalues --    1.44772   1.45234   1.45275   1.45790   1.46345
  Beta virt. eigenvalues --    1.46393   1.46644   1.46728   1.47174   1.47260
  Beta virt. eigenvalues --    1.47376   1.47533   1.47721   1.47922   1.48269
  Beta virt. eigenvalues --    1.48395   1.49109   1.49213   1.49680   1.49755
  Beta virt. eigenvalues --    1.50072   1.50233   1.50481   1.50821   1.51281
  Beta virt. eigenvalues --    1.51790   1.51904   1.52047   1.52463   1.52940
  Beta virt. eigenvalues --    1.53233   1.53445   1.53740   1.53784   1.54043
  Beta virt. eigenvalues --    1.54161   1.54462   1.54890   1.55006   1.55260
  Beta virt. eigenvalues --    1.55582   1.55925   1.56115   1.56174   1.56698
  Beta virt. eigenvalues --    1.56961   1.57615   1.57771   1.57904   1.58102
  Beta virt. eigenvalues --    1.58322   1.58636   1.58944   1.59369   1.59531
  Beta virt. eigenvalues --    1.59851   1.60157   1.60608   1.60857   1.61031
  Beta virt. eigenvalues --    1.61085   1.61449   1.61703   1.62056   1.62357
  Beta virt. eigenvalues --    1.62684   1.63064   1.63488   1.63978   1.64092
  Beta virt. eigenvalues --    1.64629   1.65023   1.65755   1.66062   1.66651
  Beta virt. eigenvalues --    1.66781   1.67500   1.67549   1.68821   1.69782
  Beta virt. eigenvalues --    1.70520   1.71276   1.71649   1.72158   1.72300
  Beta virt. eigenvalues --    1.72964   1.73385   1.73474   1.74110   1.74729
[...]
  1514. RY*(   4) C  83                  0.00059     1.52994   
  1515. RY*(   5) C  83                  0.00054     2.51841   
  1516. RY*(   6) C  83                  0.00025     1.97377   
  1517. RY*(   7) C  83                  0.00012     1.66181   
  1518. RY*(   8) C  83                  0.00011     1.08490   
  1519. RY*(   9) C  83                  0.00009     1.44733   
  1520. RY*(  10) C  83                  0.00005     2.10593   
  1521. RY*(  11) C  83                  0.00005     2.36894   
  1522. RY*(  12) C  83                  0.00002     2.04889   
  1523. RY*(  13) C  83                  0.00002     3.15294   
  1524. RY*(  14) C  83                  0.00002     2.62716   
  1525. RY*(  15) C  83                  0.00002     1.75257   
  1526. RY*(  16) C  83                  0.00002     2.48596   
  1527. RY*(  17) C  83                  0.00000     3.15699   
  1528. RY*(  18) C  83                  0.00000     3.59408   
  1529. RY*(  19) C  83                  0.00000    20.70060   
  1530. RY*(  20) C  83                  0.00000     3.56038   
  1531. RY*(  21) C  83                  0.00000     3.36114   
  1532. RY*(  22) C  83                  0.00000     3.68934   
  1533. RY*(  23) C  83                  0.00000     3.48071   
  1534. RY*(  24) C  83                  0.00000     3.57699   
  1535. RY*(  25) C  83                  0.00000     3.46441   
  1536. RY*(  26) C  83                  0.00000     3.55097   
  1537. RY*(   1) H  84                  0.00029     0.62779   
  1538. RY*(   2) H  84                  0.00017     2.27721   
  1539. RY*(   3) H  84                  0.00009     2.16770   
  1540. RY*(   4) H  84                  0.00002     2.52890   
  1541. RY*(   5) H  84                  0.00000     2.99183   
  1542. RY*(   1) N  85                  0.00684     0.69359   
  1543. RY*(   2) N  85                  0.00384     1.31161   
  1544. RY*(   3) N  85                  0.00143     1.12846   
  1545. RY*(   4) N  85                  0.00077     1.65172   
  1546. RY*(   5) N  85                  0.00034     2.02660   
  1547. RY*(   6) N  85                  0.00031     1.94792   
  1548. RY*(   7) N  85                  0.00025     2.25037   
  1549. RY*(   8) N  85                  0.00018     3.33477   
  1550. RY*(   9) N  85                  0.00006     3.81465   
  1551. RY*(  10) N  85                  0.00006     2.14095   
  1552. RY*(  11) N  85                  0.00003     3.16746   
  1553. RY*(  12) N  85                  0.00001     4.68869   
  1554. RY*(  13) N  85                  0.00001     4.80336   
  1555. RY*(  14) N  85                  0.00002     3.18277   
  1556. RY*(  15) N  85                  0.00001     3.05413   
  1557. RY*(  16) N  85                  0.00001     3.11262   
  1558. RY*(  17) N  85                  0.00000    31.55174   
  1559. RY*(  18) N  85                  0.00000     4.76711   
  1560. RY*(  19) N  85                  0.00001     4.33903   
  1561. RY*(  20) N  85                  0.00000     4.30744   
  1562. RY*(  21) N  85                  0.00000     4.60188   
  1563. RY*(  22) N  85                  0.00001     4.59833   
  1564. RY*(  23) N  85                  0.00000     4.67311   
  1565. RY*(  24) N  85                  0.00000     4.54551   
  1566. RY*(  25) N  85                  0.00000     4.40939   
  1567. RY*(  26) N  85                  0.00000     4.37705   
  1568. RY*(   1) C  86                  0.00203     1.39758   
  1569. RY*(   2) C  86                  0.00126     0.62080   
  1570. RY*(   3) C  86                  0.00073     1.87384   
  1571. RY*(   4) C  86                  0.00029     1.54233   
  1572. RY*(   5) C  86                  0.00024     1.88391   
  1573. RY*(   6) C  86                  0.00022     2.18240   
  1574. RY*(   7) C  86                  0.00017     2.01958   
  1575. RY*(   8) C  86                  0.00012     1.45308   
  1576. RY*(   9) C  86                  0.00012     1.79046   
  1577. RY*(  10) C  86                  0.00006     1.55132   
  1578. RY*(  11) C  86                  0.00004     1.02744   
  1579. RY*(  12) C  86                  0.00003     2.05177   
  1580. RY*(  13) C  86                  0.00003     2.66392   
  1581. RY*(  14) C  86                  0.00001     2.24506   
  1582. RY*(  15) C  86                  0.00001     1.32183   
  1583. RY*(  16) C  86                  0.00002     3.22674   
  1584. RY*(  17) C  86                  0.00000     3.17046   
  1585. RY*(  18) C  86                  0.00000     3.55467   
  1586. RY*(  19) C  86                  0.00000    21.48434   
  1587. RY*(  20) C  86                  0.00000     3.86285   
  1588. RY*(  21) C  86                  0.00000     3.64097   
  1589. RY*(  22) C  86                  0.00000     3.63164   
  1590. RY*(  23) C  86                  0.00000     3.34153   
  1591. RY*(  24) C  86                  0.00000     3.72108   
  1592. RY*(  25) C  86                  0.00000     3.53662   
  1593. RY*(  26) C  86                  0.00000     3.48151   
  1594. RY*(   1) H  87                  0.00024     0.67454   
  1595. RY*(   2) H  87                  0.00017     2.22122   
  1596. RY*(   3) H  87                  0.00013     2.21845   
  1597. RY*(   4) H  87                  0.00003     2.63244   
  1598. RY*(   5) H  87                  0.00000     3.03965   
  1599. BD*(   1)Fe   1 - N   2          0.03277     0.31417   
  1600. BD*(   1)Fe   1 - N   3          0.03315     0.31409   
  1601. BD*(   1)Fe   1 - N   4          0.03293     0.31398   
  1602. BD*(   1)Fe   1 - N   5          0.03301     0.31514   
  1603. BD*(   1)Fe   1 - N  73          0.03415     0.29023   
  1604. BD*(   1)Fe   1 - N  85          0.03660     0.29185   
  1605. BD*(   1) N   2 - C   6          0.01375     0.41452   
  1606. BD*(   2) N   2 - C   6          0.31733    -0.08966  1652(v),1620(v),1625(v)
                                                    309(g),172(v),204(g),723(v)
  1607. BD*(   1) N   2 - C   9          0.01355     0.41327   
  1608. BD*(   1) N   3 - C  10          0.01368     0.41114   
  1609. BD*(   2) N   3 - C  10          0.32342    -0.09227  1625(v),1629(v),1615(r)
                                                    1634(v),413(g),172(v),230(g)
                                                    754(v)
  1610. BD*(   1) N   3 - C  13          0.01357     0.41321   
  1611. BD*(   1) N   4 - C  14          0.01417     0.40883   
  1612. BD*(   2) N   4 - C  14          0.33066    -0.09379  1634(v),1638(v),1643(v)
                                                    172(v),517(g),256(g),516(g)
                                                    785(v)
  1613. BD*(   1) N   4 - C  17          0.01321     0.41441   
  1614. BD*(   1) N   5 - C  18          0.01377     0.41065   
  1615. BD*(   2) N   5 - C  18          0.32454    -0.09222  1643(v),1609(r),1652(v)
                                                    1647(v),621(g),172(v),282(g)
  1616. BD*(   1) N   5 - C  21          0.01391     0.41475   
  1617. BD*(   1) C   6 - C   7          0.01739     0.39304   
  1618. BD*(   1) C   6 - C  22          0.01035     0.47540   
  1619. BD*(   1) C   7 - C   8          0.01144     0.51502   
  1620. BD*(   2) C   7 - C   8          0.11781    -0.02337  1625(v),1606(v),1658(v)
                                                    1660(v),1659(v),1661(v)
  1621. BD*(   1) C   7 - C  34          0.00825     0.32677   
  1622. BD*(   1) C   8 - C   9          0.01755     0.39349   
  1623. BD*(   1) C   8 - C  30          0.00818     0.32676   
  1624. BD*(   1) C   9 - C  24          0.01035     0.48026   
  1625. BD*(   2) C   9 - C  24          0.19888    -0.04942  1609(v),1620(v),1606(v)
                                                    1652(r),754(g),1634(r)
                                                    389(g)
  1626. BD*(   1) C  10 - C  11          0.01706     0.40115   
  1627. BD*(   1) C  10 - C  24          0.01061     0.47266   
  1628. BD*(   1) C  11 - C  12          0.01254     0.49732   
  1629. BD*(   2) C  11 - C  12          0.13907    -0.02850  1668(v),1634(v),1609(v)
                                                    1664(v),1663(v)
  1630. BD*(   1) C  11 - C  38          0.00783     0.32772   
  1631. BD*(   1) C  12 - C  13          0.01696     0.38839   
  1632. BD*(   1) C  12 - C  42          0.01335     0.40880   
  1633. BD*(   1) C  13 - C  26          0.01030     0.47703   
  1634. BD*(   2) C  13 - C  26          0.19756    -0.05093  1612(v),1629(v),1609(v)
                                                    1625(r),1643(r),785(g)
                                                    493(g),1652(r)
  1635. BD*(   1) C  14 - C  15          0.01680     0.40090   
  1636. BD*(   1) C  14 - C  26          0.01064     0.47175   
  1637. BD*(   1) C  15 - C  16          0.01253     0.49451   
  1638. BD*(   2) C  15 - C  16          0.14241    -0.03013  1676(v),1643(v),1612(v)
                                                    1671(v)
  1639. BD*(   1) C  15 - C  47          0.00784     0.32668   
  1640. BD*(   1) C  16 - C  17          0.01680     0.38889   
  1641. BD*(   1) C  16 - C  51          0.01332     0.40868   
  1642. BD*(   1) C  17 - C  28          0.01049     0.47279   
  1643. BD*(   2) C  17 - C  28          0.20975    -0.05326  1615(v),1638(v),1612(v)
                                                    1634(r),1652(r),816(g)
                                                    597(g)
  1644. BD*(   1) C  18 - C  19          0.01744     0.39285   
  1645. BD*(   1) C  18 - C  28          0.01048     0.47686   
  1646. BD*(   1) C  19 - C  20          0.01143     0.51349   
  1647. BD*(   2) C  19 - C  20          0.11900    -0.02445  1652(v),1615(v),1680(v)
                                                    1684(v),1679(v),1683(v)
  1648. BD*(   1) C  19 - C  56          0.00819     0.32561   
  1649. BD*(   1) C  20 - C  21          0.01733     0.39304   
  1650. BD*(   1) C  20 - C  60          0.00822     0.32571   
  1651. BD*(   1) C  21 - C  22          0.01039     0.47647   
  1652. BD*(   2) C  21 - C  22          0.19972    -0.05046  1606(v),1647(v),1615(v)
                                                    1625(r),723(g),1643(r)
                                                    701(g),1634(r)
  1653. BD*(   1) C  22 - H  23          0.00620     0.34040   
  1654. BD*(   1) C  24 - H  25          0.00644     0.34131   
  1655. BD*(   1) C  26 - H  27          0.00672     0.34087   
  1656. BD*(   1) C  28 - H  29          0.00656     0.34058   
  1657. BD*(   1) C  30 - H  31          0.00305     0.31148   
  1658. BD*(   1) C  30 - H  32          0.00472     0.29830   
  1659. BD*(   1) C  30 - H  33          0.00463     0.29910   
  1660. BD*(   1) C  34 - H  35          0.00485     0.29822   
  1661. BD*(   1) C  34 - H  36          0.00466     0.29990   
  1662. BD*(   1) C  34 - H  37          0.00305     0.31196   
  1663. BD*(   1) C  38 - H  39          0.00447     0.30370   
  1664. BD*(   1) C  38 - H  40          0.00552     0.29649   
  1665. BD*(   1) C  38 - H  41          0.00375     0.31255   
  1666. BD*(   1) C  42 - H  43          0.01042     0.33915   
  1667. BD*(   1) C  42 - C  44          0.00370     0.54984   
  1668. BD*(   2) C  42 - C  44          0.03192    -0.02347   
  1669. BD*(   1) C  44 - H  45          0.00521     0.35605   
  1670. BD*(   1) C  44 - H  46          0.00390     0.35919   
  1671. BD*(   1) C  47 - H  48          0.00571     0.29565   
  1672. BD*(   1) C  47 - H  49          0.00438     0.30465   
  1673. BD*(   1) C  47 - H  50          0.00384     0.31096   
  1674. BD*(   1) C  51 - H  52          0.01030     0.33878   
  1675. BD*(   1) C  51 - C  53          0.00370     0.54966   
  1676. BD*(   2) C  51 - C  53          0.03216    -0.02565   
  1677. BD*(   1) C  53 - H  54          0.00522     0.35578   
  1678. BD*(   1) C  53 - H  55          0.00388     0.35816   
  1679. BD*(   1) C  56 - H  57          0.00454     0.29893   
  1680. BD*(   1) C  56 - H  58          0.00479     0.29661   
  1681. BD*(   1) C  56 - H  59          0.00305     0.31090   
  1682. BD*(   1) C  60 - H  61          0.00303     0.31108   
  1683. BD*(   1) C  60 - H  62          0.00467     0.29861   
  1684. BD*(   1) C  60 - H  63          0.00483     0.29797   
  1685. BD*(   1) C  64 - H  65          0.00158     0.28907   
  1686. BD*(   1) C  64 - H  66          0.00513     0.27737   
  1687. BD*(   1) C  64 - H  67          0.00511     0.27760   
  1688. BD*(   1) C  64 - C  70          0.00630     0.29788   
  1689. BD*(   1) N  68 - H  69          0.00661     0.27408   
  1690. BD*(   1) N  68 - C  70          0.01367     0.32915   
  1691. BD*(   1) N  68 - C  71          0.01065     0.34059   
  1692. BD*(   1) C  70 - C  74          0.01054     0.46401   
  1693. BD*(   1) C  71 - H  72          0.00832     0.28580   
  1694. BD*(   1) C  71 - N  73          0.00887     0.42674   
  1695. BD*(   1) N  73 - C  74          0.00867     0.37324   
  1696. BD*(   2) N  73 - C  74          0.33760    -0.12121  94(v),174(v),172(v),1383(g)
                                                    1358(g),1326(v)
  1697. BD*(   1) C  74 - H  75          0.00684     0.32734   
  1698. BD*(   1) C  76 - H  77          0.00516     0.28015   
  1699. BD*(   1) C  76 - H  78          0.00159     0.29163   
  1700. BD*(   1) C  76 - H  79          0.00516     0.28009   
  1701. BD*(   1) C  76 - C  82          0.00628     0.30108   
  1702. BD*(   1) N  80 - H  81          0.00659     0.27839   
  1703. BD*(   1) N  80 - C  82          0.01355     0.33288   
  1704. BD*(   1) N  80 - C  83          0.01060     0.34657   
  1705. BD*(   1) C  82 - C  86          0.01038     0.46694   
  1706. BD*(   2) C  82 - C  86          0.14451    -0.06246  1709(v),1698(v),1700(v)
                                                    1573(g),1489(g)
  1707. BD*(   1) C  83 - H  84          0.00871     0.28903   
  1708. BD*(   1) C  83 - N  85          0.00855     0.42889   
  1709. BD*(   2) C  83 - N  85          0.21772    -0.11368  1706(v),1512(g),1542(g)
                                                    1548(g)
  1710. BD*(   1) N  85 - C  86          0.00822     0.37618   
  1711. BD*(   1) C  86 - H  87          0.00709     0.33036   
       -------------------------------
              Total Lewis  168.90705  ( 97.0730%)
        Valence non-Lewis    4.75007  (  2.7299%)
        Rydberg non-Lewis    0.34288  (  0.1971%)
       -------------------------------
            Total unit  1  174.00000  (100.0000%)
           Charge unit  1    1.00000
 Unable to Open any file for archive entry.
 1\1\GINC-BGN1007\SP\UAPFD\def2TZVP\C38H40Fe1N8(1+,2)\BECSLEIP\15-Oct-2
 024\0\\# apfd/def2TZVP guess=read scf=maxcycle=999 geom=check pop=nbo\
 \5o17_III_D\\1,2\Fe,0,17.5807262805,55.4076793587,35.5992868792\N,0,17
 .2308023084,57.3792061009,35.4720972432\N,0,15.6993246782,55.049060848
 6,34.9945159619\N,0,17.9060812271,53.4405197025,35.762401347\N,0,19.42
 96955887,55.7832153461,36.2386059579\C,0,18.0812081134,58.3813614023,3
 5.8127761037\C,0,17.5015337499,59.6720382536,35.5086142613\C,0,16.2712
 781676,59.4232557396,34.9866901889\C,0,16.1177338213,57.9842608055,34.
 9814174604\C,0,14.767560174,55.9680244611,34.6276277943\C,0,13.5154656
 493,55.331505007,34.3088438738\C,0,13.6935743328,53.9932331002,34.5434
 084864\C,0,15.0710550394,53.8455282376,34.977389858\C,0,16.9904700965,
 52.4461288231,35.608695805\C,0,17.5830156976,51.1608802922,35.87326405
 71\C,0,18.9034306152,51.397118633,36.1610423243\C,0,19.0794065223,52.8
 340562058,36.0701756166\C,0,20.4073750899,54.8649355916,36.4591455036\
 C,0,21.6349139148,55.5149154344,36.8641846956\C,0,21.3743003092,56.849
 5411692,36.8746981577\C,0,19.9970490895,56.9965397021,36.456465088\C,0
 ,19.3585752112,58.2152161626,36.3177385931\H,0,19.9243799425,59.104807
 3085,36.5507060401\C,0,14.9727131036,57.336870657,34.5623950706\H,0,14
 .1535721246,57.9494675456,34.217102238\C,0,15.6635785643,52.6285417004
 ,35.2538404321\H,0,15.0455243965,51.7462675522,35.1854617104\C,0,20.25
 97322894,53.4933694363,36.3692742246\H,0,21.131500736,52.8906538598,36
 .5764699382\C,0,15.2442105077,60.3828069376,34.4904239221\H,0,15.59787
 12699,61.4073117291,34.5777806453\H,0,14.320686655,60.2897229156,35.06
 28297716\H,0,15.0125678434,60.1879289885,33.4430076386\C,0,18.18382093
 05,60.97633177,35.7432220984\H,0,19.102701829,61.037851617,35.15915730
 87\H,0,18.4451669121,61.089519634,36.7953670268\H,0,17.5421385202,61.8
 066314836,35.4585905566\C,0,12.3068932812,56.0285142141,33.7873169112\
 H,0,12.5874160849,56.8250346378,33.0993315436\H,0,11.7322348501,56.473
 8005708,34.6017602674\H,0,11.6662026088,55.3235588318,33.2614399412\C,
 0,12.7565971522,52.9034153561,34.3878420711\H,0,13.1871709253,51.95291
 55592,34.0931524868\C,0,11.4435082223,52.9743936528,34.5840801716\H,0,
 10.9616095567,53.8744595096,34.9233312135\H,0,10.8050772071,52.1189615
 205,34.4353751967\C,0,16.849763628,49.8643362217,35.8870636008\H,0,16.
 7948819629,49.4365519184,34.8841504625\H,0,15.8323684472,49.9991440869
 ,36.2511668587\H,0,17.3589550232,49.1526710512,36.53413752\C,0,19.9499
 085843,50.4631532382,36.5089796539\H,0,20.7232368477,50.8513445742,37.
 1617170473\C,0,20.04350126,49.2034217361,36.0927642771\H,0,19.33768133
 6,48.770128612,35.4066654053\H,0,20.8539023587,48.5664308768,36.407621
 3774\C,0,22.8992284563,54.7970418047,37.1944916493\H,0,23.2271443152,5
 4.1911105006,36.3495655906\H,0,22.7543188809,54.1340332411,38.04843840
 56\H,0,23.691497684,55.5003887916,37.4392325279\C,0,22.2739762331,57.9
 866056502,37.221876417\H,0,23.2530220147,57.6270032939,37.5295607958\H
 ,0,21.8516273646,58.5727541682,38.0386624223\H,0,22.4058430421,58.6484
 894014,36.3652262083\C,0,19.9919013036,56.5258106324,30.6917621971\H,0
 ,20.4951591553,57.4150868991,31.0581455513\H,0,19.3426860465,56.808510
 8275,29.862904858\H,0,20.7416510633,55.8299364779,30.3151739586\N,0,18
 .4660756693,54.7703420178,31.6204043773\H,0,18.3824987127,54.246514111
 4,30.7647735818\C,0,19.205825928,55.9113341745,31.7916383228\C,0,17.87
 69621501,54.483637564,32.8035431485\H,0,17.2361721032,53.6418674027,32
 .9662651629\N,0,18.1981336766,55.3722075381,33.7112055779\C,0,19.02438
 1738,56.2663090746,33.0974895283\H,0,19.4298015662,57.0988495425,33.63
 41498835\C,0,14.6866269909,56.1604926946,40.3303712621\H,0,14.21139060
 93,55.2821705844,40.7674141358\H,0,13.9235569779,56.7664177608,39.8519
 105205\H,0,15.1389783448,56.7394425672,41.1356370228\N,0,16.7938003532
 ,54.9920408923,39.6467827775\H,0,17.0084810096,54.6267099475,40.560014
 121\C,0,15.7064608775,55.7630757963,39.3268225207\C,0,17.5128693899,54
 .8106029487,38.5159861177\H,0,18.420702762,54.245624024,38.4665366049\
 N,0,16.9483477801,55.4181616603,37.5023274063\C,0,15.8249676419,56.016
 3452408,37.9904589111\H,0,15.1822595211,56.5855430881,37.3516185496\\V
 ersion=ES64L-G16RevC.02\State=2-A\HF=-3172.9100381\S2=0.795216\S2-1=0.
 \S2A=0.750688\RMSD=1.696e-09\Dipole=0.2745488,0.0980783,-0.0685314\Qua
 drupole=-5.3026127,-5.7172744,11.0198871,-0.0733242,-3.9497615,0.08301
 01\PG=C01 [X(C38H40Fe1N8)]\\@
 The archive entry for this job was punched.


 WE HAVE LEARNED THAT NOTHING IS SIMPLE AND
 RATIONAL EXCEPT WHAT WE OURSELVES HAVE INVENTED;
 THAT GOD THINKS IN TERMS NEITHER OF EUCLID OR RIEMANN; THAT SCIENCE HAS "EXPLAINED" NOTHING;
 THAT THE MORE WE KNOW THE MORE FANTASTIC THE WORLD BECOMES
 AND THE PROFOUNDER THE SURROUNDING DARKNESS.
   --  ALDOUS HUXLEY
 Job cpu time:       1 days 15 hours 39 minutes 48.3 seconds.
 Elapsed time:       0 days  0 hours 36 minutes 31.9 seconds.
 File lengths (MBytes):  RWF=   2700 Int=      0 D2E=      0 Chk=    245 Scr=      1
 Normal termination of Gaussian 16 at Tue Oct 15 21:51:55 2024.
