 Entering Gaussian System, Link 0=g16
 Input=5o1701.com
 Output=5o1701.log
 Initial command:
 /sw/chem/gaussian/g16_C02/a100/g16/l1.exe "/local/becsleip_8042908/Gau-298250.inp" -scrdir="/local/becsleip_8042908/"
 Entering Link 1 = /sw/chem/gaussian/g16_C02/a100/g16/l1.exe PID=    298251.
  
 Copyright (c) 1988-2021, Gaussian, Inc.  All Rights Reserved.
  
 This is part of the Gaussian(R) 16 program.  It is based on
 the Gaussian(R) 09 system (copyright 2009, Gaussian, Inc.),
 the Gaussian(R) 03 system (copyright 2003, Gaussian, Inc.),
 the Gaussian(R) 98 system (copyright 1998, Gaussian, Inc.),
 the Gaussian(R) 94 system (copyright 1995, Gaussian, Inc.),
 the Gaussian 92(TM) system (copyright 1992, Gaussian, Inc.),
 the Gaussian 90(TM) system (copyright 1990, Gaussian, Inc.),
 the Gaussian 88(TM) system (copyright 1988, Gaussian, Inc.),
 the Gaussian 86(TM) system (copyright 1986, Carnegie Mellon
 University), and the Gaussian 82(TM) system (copyright 1983,
 Carnegie Mellon University). Gaussian is a federally registered
 trademark of Gaussian, Inc.
  
 This software contains proprietary and confidential information,
 including trade secrets, belonging to Gaussian, Inc.
  
 This software is provided under written license and may be
 used, copied, transmitted, or stored only in accord with that
 written license.
  
 The following legend is applicable only to US Government
 contracts under FAR:
  
                    RESTRICTED RIGHTS LEGEND
  
 Use, reproduction and disclosure by the US Government is
 subject to restrictions as set forth in subparagraphs (a)
 and (c) of the Commercial Computer Software - Restricted
 Rights clause in FAR 52.227-19.
  
 Gaussian, Inc.
 340 Quinnipiac St., Bldg. 40, Wallingford CT 06492
  
  
 ---------------------------------------------------------------
 Warning -- This program may not be used in any manner that
 competes with the business of Gaussian, Inc. or will provide
 assistance to any competitor of Gaussian, Inc.  The licensee
 of this program is prohibited from giving any competitor of
 Gaussian, Inc. access to this program.  By using this program,
 the user acknowledges that Gaussian, Inc. is engaged in the
 business of creating and licensing software in the field of
 computational chemistry and represents and warrants to the
 licensee that it is not a competitor of Gaussian, Inc. and that
 it will not use this program in any manner prohibited above.
 ---------------------------------------------------------------
  

 Cite this work as:
 Gaussian 16, Revision C.02,
 M. J. Frisch, G. W. Trucks, H. B. Schlegel, G. E. Scuseria, 
 M. A. Robb, J. R. Cheeseman, G. Scalmani, V. Barone, 
 G. A. Petersson, H. Nakatsuji, X. Li, M. Caricato, A. V. Marenich, 
 J. Bloino, B. G. Janesko, R. Gomperts, B. Mennucci, H. P. Hratchian, 
 J. V. Ortiz, A. F. Izmaylov, J. L. Sonnenberg, D. Williams-Young, 
 F. Ding, F. Lipparini, F. Egidi, J. Goings, B. Peng, A. Petrone, 
 T. Henderson, D. Ranasinghe, V. G. Zakrzewski, J. Gao, N. Rega, 
 G. Zheng, W. Liang, M. Hada, M. Ehara, K. Toyota, R. Fukuda, 
 J. Hasegawa, M. Ishida, T. Nakajima, Y. Honda, O. Kitao, H. Nakai, 
 T. Vreven, K. Throssell, J. A. Montgomery, Jr., J. E. Peralta, 
 F. Ogliaro, M. J. Bearpark, J. J. Heyd, E. N. Brothers, K. N. Kudin, 
 V. N. Staroverov, T. A. Keith, R. Kobayashi, J. Normand, 
 K. Raghavachari, A. P. Rendell, J. C. Burant, S. S. Iyengar, 
 J. Tomasi, M. Cossi, J. M. Millam, M. Klene, C. Adamo, R. Cammi, 
 J. W. Ochterski, R. L. Martin, K. Morokuma, O. Farkas, 
 J. B. Foresman, and D. J. Fox, Gaussian, Inc., Wallingford CT, 2019.
 
 ******************************************
 Gaussian 16:  ES64L-G16RevC.02  7-Dec-2021
                11-Oct-2024 
 ******************************************
 %mem=16GB
 %CPU=0-71
 SetSPE:  set environment variable "OMP_PROC_BIND" = "true"
 SetSPE:  set environment variable "OMP_PLACES" = "{0},{1},{2},{3},{4},{5},{6},{7},{8},{9},{10},{11},{12},{13},{14},{15},{16},{17},{18},{19},{20},{21},{22},{23},{24},{25},{26},{27},{28},{29},{30},{31},{32},{33},{34},{35},{36},{37},{38},{39},{40},{41},{42},{43},{44},{45},{46},{47},{48},{49},{50},{51},{52},{53},{54},{55},{56},{57},{58},{59},{60},{61},{62},{63},{64},{65},{66},{67},{68},{69},{70},{71}"
 Will use up to   72 processors via shared memory.
 %gpucpu=0,1,2,3=0,1,2,3
 Will use    4 GPUs:
 Thread  CPU   GPU
      0    0     0
      1    1     1
      2    2     2
      3    3     3
      4    4    -1
      5    5    -1
      6    6    -1
      7    7    -1
      8    8    -1
      9    9    -1
     10   10    -1
     11   11    -1
     12   12    -1
     13   13    -1
     14   14    -1
     15   15    -1
     16   16    -1
     17   17    -1
     18   18    -1
     19   19    -1
     20   20    -1
     21   21    -1
     22   22    -1
     23   23    -1
     24   24    -1
     25   25    -1
     26   26    -1
     27   27    -1
     28   28    -1
     29   29    -1
     30   30    -1
     31   31    -1
     32   32    -1
     33   33    -1
     34   34    -1
     35   35    -1
     36   36    -1
     37   37    -1
     38   38    -1
     39   39    -1
     40   40    -1
     41   41    -1
     42   42    -1
     43   43    -1
     44   44    -1
     45   45    -1
     46   46    -1
     47   47    -1
     48   48    -1
     49   49    -1
     50   50    -1
     51   51    -1
     52   52    -1
     53   53    -1
     54   54    -1
     55   55    -1
     56   56    -1
     57   57    -1
     58   58    -1
     59   59    -1
     60   60    -1
     61   61    -1
     62   62    -1
     63   63    -1
     64   64    -1
     65   65    -1
     66   66    -1
     67   67    -1
     68   68    -1
     69   69    -1
     70   70    -1
     71   71    -1
 SetGPE:  set environment variable "OMP_PROC_BIND" = "true"
 SetGPE:  set environment variable "OMP_PLACES" = "{0},{1},{2},{3},{4},{5},{6},{7},{8},{9},{10},{11},{12},{13},{14},{15},{16},{17},{18},{19},{20},{21},{22},{23},{24},{25},{26},{27},{28},{29},{30},{31},{32},{33},{34},{35},{36},{37},{38},{39},{40},{41},{42},{43},{44},{45},{46},{47},{48},{49},{50},{51},{52},{53},{54},{55},{56},{57},{58},{59},{60},{61},{62},{63},{64},{65},{66},{67},{68},{69},{70},{71}"
 %chk=5o17_II_O.chk
 Properties for Device   0
 Minimum vector length:                              32
 Maximum vector length:                            1024
 Number of SMPs:                                    108
 Maximum number of threads per SMP:                2048
 Number of ASync Engines:                             5
 Memory:                                           9207742464
 Properties for Device   1
 Minimum vector length:                              32
 Maximum vector length:                            1024
 Number of SMPs:                                    108
 Maximum number of threads per SMP:                2048
 Number of ASync Engines:                             5
 Memory:                                           9207742464
 Properties for Device   2
 Minimum vector length:                              32
 Maximum vector length:                            1024
 Number of SMPs:                                    108
 Maximum number of threads per SMP:                2048
 Number of ASync Engines:                             5
 Memory:                                           9207742464
 Properties for Device   3
 Minimum vector length:                              32
 Maximum vector length:                            1024
 Number of SMPs:                                    108
 Maximum number of threads per SMP:                2048
 Number of ASync Engines:                             5
 Memory:                                           9207742464
   8286968217 words of memory will be used on each GPU.
 ------------------------------------------
 # polar def2tzvp apfd int=(grid=ultrafine)
 ------------------------------------------
 1/38=1,172=1/1;
 2/12=2,17=6,18=5,40=1/2;
 3/5=44,7=101,11=2,25=1,30=1,74=-44,75=-5/1,2,3;
 4//1;
 5/5=2,38=5,98=1/2;
 8/6=4,10=90,11=11/1;
 10/6=1,13=10/2;
 6/7=2,8=2,9=2,10=2,28=1/1;
 99/5=1,9=1/99;
 ---------
 5o17_II_S
 ---------
 Symbolic Z-matrix:
 Charge =  0 Multiplicity = 1
 Fe                    17.58073   55.40768   35.59929 
 N                     17.2308   57.37921   35.4721 
 N                     15.69932   55.04906   34.99452 
 N                     17.90608   53.44052   35.7624 
 N                     19.4297   55.78322   36.23861 
 C                     18.08121   58.38136   35.81278 
 C                     17.50153   59.67204   35.50861 
 C                     16.27128   59.42326   34.98669 
 C                     16.11773   57.98426   34.98142 
 C                     14.76756   55.96802   34.62763 
 C                     13.51547   55.33151   34.30884 
 C                     13.69357   53.99323   34.54341 
 C                     15.07106   53.84553   34.97739 
 C                     16.99047   52.44613   35.6087 
 C                     17.58302   51.16088   35.87326 
 C                     18.90343   51.39712   36.16104 
 C                     19.07941   52.83406   36.07018 
 C                     20.40738   54.86494   36.45915 
 C                     21.63491   55.51492   36.86418 
 C                     21.3743   56.84954   36.8747 
 C                     19.99705   56.99654   36.45647 
 C                     19.35858   58.21522   36.31774 
 H                     19.92438   59.10481   36.55071 
 C                     14.97271   57.33687   34.5624 
 H                     14.15357   57.94947   34.2171 
 C                     15.66358   52.62854   35.25384 
 H                     15.04552   51.74627   35.18546 
 C                     20.25973   53.49337   36.36927 
 H                     21.1315   52.89065   36.57647 
 C                     15.24421   60.38281   34.49042 
 H                     15.59787   61.40731   34.57778 
 H                     14.32069   60.28972   35.06283 
 H                     15.01257   60.18793   33.44301 
 C                     18.18382   60.97633   35.74322 
 H                     19.1027   61.03785   35.15916 
 H                     18.44517   61.08952   36.79537 
 H                     17.54214   61.80663   35.45859 
 C                     12.30689   56.02851   33.78732 
 H                     12.58742   56.82503   33.09933 
 H                     11.73223   56.4738   34.60176 
 H                     11.6662   55.32356   33.26144 
 C                     12.7566   52.90342   34.38784 
 H                     13.18717   51.95292   34.09315 
 C                     11.44351   52.97439   34.58408 
 H                     10.96161   53.87446   34.92333 
 H                     10.80508   52.11896   34.43538 
 C                     16.84976   49.86434   35.88706 
 H                     16.79488   49.43655   34.88415 
 H                     15.83237   49.99914   36.25117 
 H                     17.35896   49.15267   36.53414 
 C                     19.94991   50.46315   36.50898 
 H                     20.72324   50.85134   37.16172 
 C                     20.0435   49.20342   36.09276 
 H                     19.33768   48.77013   35.40667 
 H                     20.8539   48.56643   36.40762 
 C                     22.89923   54.79704   37.19449 
 H                     23.22714   54.19111   36.34957 
 H                     22.75432   54.13403   38.04844 
 H                     23.6915   55.50039   37.43923 
 C                     22.27398   57.98661   37.22188 
 H                     23.25302   57.627    37.52956 
 H                     21.85163   58.57275   38.03866 
 H                     22.40584   58.64849   36.36523 
 C                     19.9919   56.52581   30.69176 
 H                     20.49516   57.41509   31.05815 
 H                     19.34269   56.80851   29.8629 
 H                     20.74165   55.82994   30.31517 
 N                     18.46608   54.77034   31.6204 
 H                     18.3825   54.24651   30.76477 
 C                     19.20583   55.91133   31.79164 
 C                     17.87696   54.48364   32.80354 
 H                     17.23617   53.64187   32.96627 
 N                     18.19813   55.37221   33.71121 
 C                     19.02438   56.26631   33.09749 
 H                     19.4298   57.09885   33.63415 
 C                     14.68663   56.16049   40.33037 
 H                     14.21139   55.28217   40.76741 
 H                     13.92356   56.76642   39.85191 
 H                     15.13898   56.73944   41.13564 
 N                     16.7938   54.99204   39.64678 
 H                     17.00848   54.62671   40.56001 
 C                     15.70646   55.76308   39.32682 
 C                     17.51287   54.8106   38.51599 
 H                     18.4207   54.24562   38.46654 
 N                     16.94835   55.41816   37.50233 
 C                     15.82497   56.01635   37.99046 
 H                     15.18226   56.58554   37.35162 
 
 Stoichiometry    C38H40FeN8
 Framework group  C1[X(C38H40FeN8)]
 Deg. of freedom   255
 Full point group                 C1      NOp   1
 Largest Abelian subgroup         C1      NOp   1
 Largest concise Abelian subgroup C1      NOp   1
                         Standard orientation:                         
 ---------------------------------------------------------------------
 Center     Atomic      Atomic             Coordinates (Angstroms)
 Number     Number       Type             X           Y           Z
 ---------------------------------------------------------------------
      1         26           0        0.113883   -0.093626    0.017344
      2          7           0        0.104826   -2.097433   -0.083730
      3          7           0       -1.872050   -0.113850    0.316825
      4          7           0        0.105426    1.905964    0.078560
      5          7           0        2.076679   -0.091349   -0.323053
      6          6           0        1.162383   -2.904374   -0.355731
      7          6           0        0.781458   -4.297622   -0.265514
      8          6           0       -0.539341   -4.311044    0.055633
      9          6           0       -0.945353   -2.925567    0.155225
     10          6           0       -2.670976   -1.206570    0.439158
     11          6           0       -4.050410   -0.820552    0.589739
     12          6           0       -4.078968    0.546676    0.502630
     13          6           0       -2.699308    0.962746    0.326468
     14          6           0       -0.985060    2.715752    0.155167
     15          6           0       -0.596813    4.101311    0.105572
     16          6           0        0.772981    4.115308    0.030817
     17          6           0        1.185485    2.724677    0.029620
     18          6           0        2.897603    0.991686   -0.293897
     19          6           0        4.268972    0.598189   -0.534496
     20          6           0        4.254792   -0.751276   -0.701830
     21          6           0        2.877676   -1.164848   -0.541026
     22          6           0        2.452511   -2.478427   -0.617260
     23          1           0        3.196760   -3.233073   -0.823134
     24          6           0       -2.238251   -2.522848    0.423550
     25          1           0       -2.978887   -3.294570    0.569829
     26          6           0       -2.297093    2.282708    0.259473
     27          1           0       -3.065237    3.040219    0.294193
     28          6           0        2.496177    2.302507   -0.115923
     29          1           0        3.268251    3.057538   -0.118428
     30          6           0       -1.443757   -5.473480    0.285113
     31          1           0       -0.904273   -6.411023    0.174260
     32          1           0       -2.268768   -5.467138   -0.427997
     33          1           0       -1.866260   -5.437433    1.289557
     34          6           0        1.712922   -5.439865   -0.487761
     35          1           0        2.525995   -5.417319    0.238642
     36          1           0        2.150491   -5.390490   -1.484866
     37          1           0        1.192878   -6.389557   -0.388726
     38          6           0       -5.181824   -1.757735    0.834788
     39          1           0       -4.874440   -2.570617    1.491445
     40          1           0       -5.534459   -2.195709   -0.100978
     41          1           0       -6.011506   -1.229101    1.299725
     42          6           0       -5.207480    1.446365    0.585398
     43          1           0       -5.003969    2.414760    1.028659
     44          6           0       -6.440296    1.186683    0.160570
     45          1           0       -6.695728    0.264448   -0.331033
     46          1           0       -7.235947    1.905566    0.268360
     47          6           0       -1.537824    5.255614    0.074585
     48          1           0       -1.823087    5.553568    1.085374
     49          1           0       -2.445876    4.999965   -0.469403
     50          1           0       -1.069101    6.108280   -0.412966
     51          6           0        1.677762    5.239140   -0.051889
     52          1           0        2.599689    5.056750   -0.591870
     53          6           0        1.479933    6.442641    0.478551
     54          1           0        0.610397    6.676412    1.066697
     55          1           0        2.203007    7.233452    0.362687
     56          6           0        5.421129    1.543363   -0.580513
     57          1           0        5.500688    2.095561    0.356146
     58          1           0        5.295058    2.265884   -1.387900
     59          1           0        6.354131    1.009228   -0.743274
     60          6           0        5.385236   -1.681800   -0.983053
     61          1           0        6.320415   -1.136519   -1.086118
     62          1           0        5.206023   -2.233016   -1.906705
     63          1           0        5.498012   -2.405629   -0.175166
     64          6           0        1.893215   -1.351395    5.155416
     65          1           0        2.597360   -2.100857    4.807849
     66          1           0        1.183873   -1.826510    5.833283
     67          1           0        2.439442   -0.590284    5.712667
     68          7           0        0.242563    0.227543    4.128529
     69          1           0       -0.064784    0.631564    4.997891
     70          6           0        1.190967   -0.752423    3.992100
     71          6           0       -0.197049    0.546315    2.889902
     72          1           0       -0.944172    1.286388    2.690487
     73          7           0        0.414141   -0.171096    1.979778
     74          6           0        1.280708   -0.983155    2.649384
     75          1           0        1.906149   -1.673677    2.122605
     76          6           0       -1.829289   -0.768063   -5.187933
     77          1           0       -2.379421    0.065392   -5.624983
     78          1           0       -2.537319   -1.539137   -4.900734
     79          1           0       -1.161622   -1.172210   -5.948948
     80          7           0       -0.095818    0.641207   -4.055772
     81          1           0        0.189695    1.136615   -4.884385
     82          6           0       -1.064942   -0.326339   -3.993879
     83          6           0        0.394924    0.808299   -2.806799
     84          1           0        1.168879    1.503341   -2.554374
     85          7           0       -0.203043    0.007607   -1.960251
     86          6           0       -1.112376   -0.705557   -2.683154
     87          1           0       -1.734903   -1.439186   -2.214724
 ---------------------------------------------------------------------
 Rotational constants (GHZ):           0.0761985           0.0758379           0.0583486
 Standard basis: def2TZVP (5D, 7F)
 There are  1948 symmetry adapted cartesian basis functions of A   symmetry.
 There are  1711 symmetry adapted basis functions of A   symmetry.
  1711 basis functions,  2768 primitive gaussians,  1948 cartesian basis functions
   175 alpha electrons      175 beta electrons
       nuclear repulsion energy      7158.8672278847 Hartrees.
 NAtoms=   87 NActive=   87 NUniq=   87 SFac= 1.00D+00 NAtFMM=   60 NAOKFM=T Big=T
 Integral buffers will be    131072 words long.
 Raffenetti 2 integral format.
 Two-electron integral symmetry is turned on.
 R6APFD:  NTU= -4 IXU= 1 FactS= 1.050
 Nuclear repulsion after empirical dispersion term =     7158.6982763133 Hartrees.
 One-electron integrals computed using PRISM.
   1 Symmetry operations used in ECPInt.
 ECPInt:  NShTT=  232221 NPrTT=  716997 LenC2=  182831 LenP2D=  370644.
 LDataN:  DoStor=T MaxTD1= 6 Len=  172
 Number of processors reduced to  20 by ecpmxn.
 NBasis=  1711 RedAO= T EigKep=  3.31D-06  NBF=  1711
 NBsUse=  1711 1.00D-06 EigRej= -1.00D+00 NBFU=  1711
 ExpMin= 4.20D-02 ExpMax= 3.01D+05 ExpMxC= 2.91D+03 IAcc=3 IRadAn=         5 AccDes= 0.00D+00
 Harris functional with IExCor= 3731 and IRadAn=       5 diagonalized for initial guess.
 HarFok:  IExCor= 3731 AccDes= 0.00D+00 IRadAn=         5 IDoV= 1 UseB2=F ITyADJ=14
 ICtDFT=  3500011 ScaDFX=  1.000000  1.000000  1.000000  1.000000
 FoFCou: FMM=F IPFlag=           0 FMFlag=      100000 FMFlg1=        2001
         NFxFlg=           0 DoJE=T BraDBF=F KetDBF=T FulRan=T
         wScrn=  0.000000 ICntrl=       500 IOpCl=  0 I1Cent=   200000004 NGrid=           0
         NMat0=    1 NMatS0=      1 NMatT0=    0 NMatD0=    1 NMtDS0=    0 NMtDT0=    0
 Petite list used in FoFCou.
 Requested convergence on RMS density matrix=1.00D-08 within 128 cycles.
 Requested convergence on MAX density matrix=1.00D-06.
 Requested convergence on             energy=1.00D-06.
 No special actions if energy rises.
 EnCoef did   100 forward-backward iterations
 EnCoef did   100 forward-backward iterations
 EnCoef did   100 forward-backward iterations
 EnCoef did   100 forward-backward iterations
 EnCoef did     2 forward-backward iterations
 EnCoef did     4 forward-backward iterations
 Restarting incremental Fock formation.
 SCF Done:  E(RAPFD) =  -3173.08372799     A.U. after   25 cycles
            NFock= 25  Conv=0.24D-08     -V/T= 2.0035
 DoSCS=F DFT=T ScalE2(SS,OS)=  1.000000  1.000000
 Range of M.O.s used for correlation:     1  1711
 NBasis=  1711 NAE=   175 NBE=   175 NFC=     0 NFV=     0
 NROrb=   1711 NOA=   175 NOB=   175 NVA=  1536 NVB=  1536

 **** Warning!!: The largest alpha MO coefficient is  0.48795959D+02

          Differentiating once with respect to electric field.
                with respect to dipole field.
          Electric field/nuclear overlap derivatives assumed to be zero.
          There are     3 degrees of freedom in the 1st order CPHF.  IDoFFX=0 NUNeed=     3.
      3 vectors produced by pass  0 Test12= 8.96D-12 3.33D-08 XBig12= 1.89D+03 2.64D+01.
 AX will form     3 AO Fock derivatives at one time.
      3 vectors produced by pass  1 Test12= 8.96D-12 3.33D-08 XBig12= 1.33D+03 9.36D+00.
      3 vectors produced by pass  2 Test12= 8.96D-12 3.33D-08 XBig12= 4.87D+02 4.64D+00.
      3 vectors produced by pass  3 Test12= 8.96D-12 3.33D-08 XBig12= 1.46D+03 1.25D+01.
      3 vectors produced by pass  4 Test12= 8.96D-12 3.33D-08 XBig12= 2.99D+03 1.29D+01.
      3 vectors produced by pass  5 Test12= 8.96D-12 3.33D-08 XBig12= 1.04D+03 6.34D+00.
      3 vectors produced by pass  6 Test12= 8.96D-12 3.33D-08 XBig12= 6.45D+02 7.41D+00.
      3 vectors produced by pass  7 Test12= 8.96D-12 3.33D-08 XBig12= 2.45D+02 5.11D+00.
      3 vectors produced by pass  8 Test12= 8.96D-12 3.33D-08 XBig12= 9.87D+01 1.33D+00.
      3 vectors produced by pass  9 Test12= 8.96D-12 3.33D-08 XBig12= 4.11D+01 1.02D+00.
      3 vectors produced by pass 10 Test12= 8.96D-12 3.33D-08 XBig12= 2.07D+01 1.04D+00.
      3 vectors produced by pass 11 Test12= 8.96D-12 3.33D-08 XBig12= 8.55D+00 8.81D-01.
      3 vectors produced by pass 12 Test12= 8.96D-12 3.33D-08 XBig12= 3.59D+00 4.14D-01.
      3 vectors produced by pass 13 Test12= 8.96D-12 3.33D-08 XBig12= 1.10D+00 1.45D-01.
      3 vectors produced by pass 14 Test12= 8.96D-12 3.33D-08 XBig12= 4.53D-01 9.65D-02.
      3 vectors produced by pass 15 Test12= 8.96D-12 3.33D-08 XBig12= 1.38D-01 6.74D-02.
      3 vectors produced by pass 16 Test12= 8.96D-12 3.33D-08 XBig12= 3.79D-02 3.78D-02.
      3 vectors produced by pass 17 Test12= 8.96D-12 3.33D-08 XBig12= 1.06D-02 2.37D-02.
      3 vectors produced by pass 18 Test12= 8.96D-12 3.33D-08 XBig12= 3.76D-03 1.61D-02.
      3 vectors produced by pass 19 Test12= 8.96D-12 3.33D-08 XBig12= 9.16D-04 5.19D-03.
      3 vectors produced by pass 20 Test12= 8.96D-12 3.33D-08 XBig12= 2.93D-04 3.04D-03.
      3 vectors produced by pass 21 Test12= 8.96D-12 3.33D-08 XBig12= 9.31D-05 1.74D-03.
      3 vectors produced by pass 22 Test12= 8.96D-12 3.33D-08 XBig12= 2.64D-05 1.27D-03.
      3 vectors produced by pass 23 Test12= 8.96D-12 3.33D-08 XBig12= 5.16D-06 5.51D-04.
      3 vectors produced by pass 24 Test12= 8.96D-12 3.33D-08 XBig12= 1.44D-06 2.16D-04.
      3 vectors produced by pass 25 Test12= 8.96D-12 3.33D-08 XBig12= 3.29D-07 1.12D-04.
      3 vectors produced by pass 26 Test12= 8.96D-12 3.33D-08 XBig12= 6.86D-08 3.04D-05.
      3 vectors produced by pass 27 Test12= 8.96D-12 3.33D-08 XBig12= 2.07D-08 2.54D-05.
      3 vectors produced by pass 28 Test12= 8.96D-12 3.33D-08 XBig12= 3.19D-09 6.66D-06.
      3 vectors produced by pass 29 Test12= 8.96D-12 3.33D-08 XBig12= 4.64D-10 2.69D-06.
      3 vectors produced by pass 30 Test12= 8.96D-12 3.33D-08 XBig12= 7.07D-11 9.89D-07.
      3 vectors produced by pass 31 Test12= 8.96D-12 3.33D-08 XBig12= 9.88D-12 4.07D-07.
      2 vectors produced by pass 32 Test12= 8.96D-12 3.33D-08 XBig12= 1.71D-12 1.92D-07.
      1 vectors produced by pass 33 Test12= 8.96D-12 3.33D-08 XBig12= 2.64D-13 9.92D-08.
      1 vectors produced by pass 34 Test12= 8.96D-12 3.33D-08 XBig12= 3.24D-14 3.36D-08.
 InvSVY:  IOpt=1 It=  1 EMax= 4.97D-14
 Solved reduced A of dimension   100 with     3 vectors.
 Isotropic polarizability for W=    0.000000      620.74 Bohr**3.
 End of Minotr F.D. properties file   721 does not exist.
 End of Minotr F.D. properties file   722 does not exist.
 End of Minotr F.D. properties file   788 does not exist.

 **********************************************************************

            Population analysis using the SCF Density.

 **********************************************************************

 Orbital symmetries:
       Occupied  (A) (A) (A) (A) (A) (A) (A) (A) (A) (A) (A) (A)
                 (A) (A) (A) (A) (A) (A) (A) (A) (A) (A) (A) (A)
                 (A) (A) (A) (A) (A) (A) (A) (A) (A) (A) (A) (A)
                 (A) (A) (A) (A) (A) (A) (A) (A) (A) (A) (A) (A)
                 (A) (A) (A) (A) (A) (A) (A) (A) (A) (A) (A) (A)
                 (A) (A) (A) (A) (A) (A) (A) (A) (A) (A) (A) (A)
                 (A) (A) (A) (A) (A) (A) (A) (A) (A) (A) (A) (A)
                 (A) (A) (A) (A) (A) (A) (A) (A) (A) (A) (A) (A)
                 (A) (A) (A) (A) (A) (A) (A) (A) (A) (A) (A) (A)
                 (A) (A) (A) (A) (A) (A) (A) (A) (A) (A) (A) (A)
                 (A) (A) (A) (A) (A) (A) (A) (A) (A) (A) (A) (A)
                 (A) (A) (A) (A) (A) (A) (A) (A) (A) (A) (A) (A)
                 (A) (A) (A) (A) (A) (A) (A) (A) (A) (A) (A) (A)
                 (A) (A) (A) (A) (A) (A) (A) (A) (A) (A) (A) (A)
                 (A) (A) (A) (A) (A) (A) (A)
       Virtual   (A) (A) (A) (A) (A) (A) (A) (A) (A) (A) (A) (A)
                 (A) (A) (A) (A) (A) (A) (A) (A) (A) (A) (A) (A)
                 (A) (A) (A) (A) (A) (A) (A) (A) (A) (A) (A) (A)
                 (A) (A) (A) (A) (A) (A) (A) (A) (A) (A) (A) (A)
                 (A) (A) (A) (A) (A) (A) (A) (A) (A) (A) (A) (A)
                 (A) (A) (A) (A) (A) (A) (A) (A) (A) (A) (A) (A)
                 (A) (A) (A) (A) (A) (A) (A) (A) (A) (A) (A) (A)
                 (A) (A) (A) (A) (A) (A) (A) (A) (A) (A) (A) (A)
                 (A) (A) (A) (A) (A) (A) (A) (A) (A) (A) (A) (A)
                 (A) (A) (A) (A) (A) (A) (A) (A) (A) (A) (A) (A)
                 (A) (A) (A) (A) (A) (A) (A) (A) (A) (A) (A) (A)
                 (A) (A) (A) (A) (A) (A) (A) (A) (A) (A) (A) (A)
                 (A) (A) (A) (A) (A) (A) (A) (A) (A) (A) (A) (A)
                 (A) (A) (A) (A) (A) (A) (A) (A) (A) (A) (A) (A)
                 (A) (A) (A) (A) (A) (A) (A) (A) (A) (A) (A) (A)
                 (A) (A) (A) (A) (A) (A) (A) (A) (A) (A) (A) (A)
                 (A) (A) (A) (A) (A) (A) (A) (A) (A) (A) (A) (A)
                 (A) (A) (A) (A) (A) (A) (A) (A) (A) (A) (A) (A)
                 (A) (A) (A) (A) (A) (A) (A) (A) (A) (A) (A) (A)
                 (A) (A) (A) (A) (A) (A) (A) (A) (A) (A) (A) (A)
                 (A) (A) (A) (A) (A) (A) (A) (A) (A) (A) (A) (A)
                 (A) (A) (A) (A) (A) (A) (A) (A) (A) (A) (A) (A)
                 (A) (A) (A) (A) (A) (A) (A) (A) (A) (A) (A) (A)
                 (A) (A) (A) (A) (A) (A) (A) (A) (A) (A) (A) (A)
                 (A) (A) (A) (A) (A) (A) (A) (A) (A) (A) (A) (A)
                 (A) (A) (A) (A) (A) (A) (A) (A) (A) (A) (A) (A)
                 (A) (A) (A) (A) (A) (A) (A) (A) (A) (A) (A) (A)
                 (A) (A) (A) (A) (A) (A) (A) (A) (A) (A) (A) (A)
                 (A) (A) (A) (A) (A) (A) (A) (A) (A) (A) (A) (A)
                 (A) (A) (A) (A) (A) (A) (A) (A) (A) (A) (A) (A)
                 (A) (A) (A) (A) (A) (A) (A) (A) (A) (A) (A) (A)
                 (A) (A) (A) (A) (A) (A) (A) (A) (A) (A) (A) (A)
                 (A) (A) (A) (A) (A) (A) (A) (A) (A) (A) (A) (A)
                 (A) (A) (A) (A) (A) (A) (A) (A) (A) (A) (A) (A)
                 (A) (A) (A) (A) (A) (A) (A) (A) (A) (A) (A) (A)
                 (A) (A) (A) (A) (A) (A) (A) (A) (A) (A) (A) (A)
                 (A) (A) (A) (A) (A) (A) (A) (A) (A) (A) (A) (A)
                 (A) (A) (A) (A) (A) (A) (A) (A) (A) (A) (A) (A)
                 (A) (A) (A) (A) (A) (A) (A) (A) (A) (A) (A) (A)
                 (A) (A) (A) (A) (A) (A) (A) (A) (A) (A) (A) (A)
                 (A) (A) (A) (A) (A) (A) (A) (A) (A) (A) (A) (A)
                 (A) (A) (A) (A) (A) (A) (A) (A) (A) (A) (A) (A)
                 (A) (A) (A) (A) (A) (A) (A) (A) (A) (A) (A) (A)
                 (A) (A) (A) (A) (A) (A) (A) (A) (A) (A) (A) (A)
                 (A) (A) (A) (A) (A) (A) (A) (A) (A) (A) (A) (A)
                 (A) (A) (A) (A) (A) (A) (A) (A) (A) (A) (A) (A)
                 (A) (A) (A) (A) (A) (A) (A) (A) (A) (A) (A) (A)
                 (A) (A) (A) (A) (A) (A) (A) (A) (A) (A) (A) (A)
                 (A) (A) (A) (A) (A) (A) (A) (A) (A) (A) (A) (A)
                 (A) (A) (A) (A) (A) (A) (A) (A) (A) (A) (A) (A)
                 (A) (A) (A) (A) (A) (A) (A) (A) (A) (A) (A) (A)
                 (A) (A) (A) (A) (A) (A) (A) (A) (A) (A) (A) (A)
                 (A) (A) (A) (A) (A) (A) (A) (A) (A) (A) (A) (A)
                 (A) (A) (A) (A) (A) (A) (A) (A) (A) (A) (A) (A)
                 (A) (A) (A) (A) (A) (A) (A) (A) (A) (A) (A) (A)
                 (A) (A) (A) (A) (A) (A) (A) (A) (A) (A) (A) (A)
                 (A) (A) (A) (A) (A) (A) (A) (A) (A) (A) (A) (A)
                 (A) (A) (A) (A) (A) (A) (A) (A) (A) (A) (A) (A)
                 (A) (A) (A) (A) (A) (A) (A) (A) (A) (A) (A) (A)
                 (A) (A) (A) (A) (A) (A) (A) (A) (A) (A) (A) (A)
                 (A) (A) (A) (A) (A) (A) (A) (A) (A) (A) (A) (A)
                 (A) (A) (A) (A) (A) (A) (A) (A) (A) (A) (A) (A)
                 (A) (A) (A) (A) (A) (A) (A) (A) (A) (A) (A) (A)
                 (A) (A) (A) (A) (A) (A) (A) (A) (A) (A) (A) (A)
                 (A) (A) (A) (A) (A) (A) (A) (A) (A) (A) (A) (A)
                 (A) (A) (A) (A) (A) (A) (A) (A) (A) (A) (A) (A)
                 (A) (A) (A) (A) (A) (A) (A) (A) (A) (A) (A) (A)
                 (A) (A) (A) (A) (A) (A) (A) (A) (A) (A) (A) (A)
                 (A) (A) (A) (A) (A) (A) (A) (A) (A) (A) (A) (A)
                 (A) (A) (A) (A) (A) (A) (A) (A) (A) (A) (A) (A)
                 (A) (A) (A) (A) (A) (A) (A) (A) (A) (A) (A) (A)
                 (A) (A) (A) (A) (A) (A) (A) (A) (A) (A) (A) (A)
                 (A) (A) (A) (A) (A) (A) (A) (A) (A) (A) (A) (A)
                 (A) (A) (A) (A) (A) (A) (A) (A) (A) (A) (A) (A)
                 (A) (A) (A) (A) (A) (A) (A) (A) (A) (A) (A) (A)
                 (A) (A) (A) (A) (A) (A) (A) (A) (A) (A) (A) (A)
                 (A) (A) (A) (A) (A) (A) (A) (A) (A) (A) (A) (A)
                 (A) (A) (A) (A) (A) (A) (A) (A) (A) (A) (A) (A)
                 (A) (A) (A) (A) (A) (A) (A) (A) (A) (A) (A) (A)
                 (A) (A) (A) (A) (A) (A) (A) (A) (A) (A) (A) (A)
                 (A) (A) (A) (A) (A) (A) (A) (A) (A) (A) (A) (A)
                 (A) (A) (A) (A) (A) (A) (A) (A) (A) (A) (A) (A)
                 (A) (A) (A) (A) (A) (A) (A) (A) (A) (A) (A) (A)
                 (A) (A) (A) (A) (A) (A) (A) (A) (A) (A) (A) (A)
                 (A) (A) (A) (A) (A) (A) (A) (A) (A) (A) (A) (A)
                 (A) (A) (A) (A) (A) (A) (A) (A) (A) (A) (A) (A)
                 (A) (A) (A) (A) (A) (A) (A) (A) (A) (A) (A) (A)
                 (A) (A) (A) (A) (A) (A) (A) (A) (A) (A) (A) (A)
                 (A) (A) (A) (A) (A) (A) (A) (A) (A) (A) (A) (A)
                 (A) (A) (A) (A) (A) (A) (A) (A) (A) (A) (A) (A)
                 (A) (A) (A) (A) (A) (A) (A) (A) (A) (A) (A) (A)
                 (A) (A) (A) (A) (A) (A) (A) (A) (A) (A) (A) (A)
                 (A) (A) (A) (A) (A) (A) (A) (A) (A) (A) (A) (A)
                 (A) (A) (A) (A) (A) (A) (A) (A) (A) (A) (A) (A)
                 (A) (A) (A) (A) (A) (A) (A) (A) (A) (A) (A) (A)
                 (A) (A) (A) (A) (A) (A) (A) (A) (A) (A) (A) (A)
                 (A) (A) (A) (A) (A) (A) (A) (A) (A) (A) (A) (A)
                 (A) (A) (A) (A) (A) (A) (A) (A) (A) (A) (A) (A)
                 (A) (A) (A) (A) (A) (A) (A) (A) (A) (A) (A) (A)
                 (A) (A) (A) (A) (A) (A) (A) (A) (A) (A) (A) (A)
                 (A) (A) (A) (A) (A) (A) (A) (A) (A) (A) (A) (A)
                 (A) (A) (A) (A) (A) (A) (A) (A) (A) (A) (A) (A)
                 (A) (A) (A) (A) (A) (A) (A) (A) (A) (A) (A) (A)
                 (A) (A) (A) (A) (A) (A) (A) (A) (A) (A) (A) (A)
                 (A) (A) (A) (A) (A) (A) (A) (A) (A) (A) (A) (A)
                 (A) (A) (A) (A) (A) (A) (A) (A) (A) (A) (A) (A)
                 (A) (A) (A) (A) (A) (A) (A) (A) (A) (A) (A) (A)
                 (A) (A) (A) (A) (A) (A) (A) (A) (A) (A) (A) (A)
                 (A) (A) (A) (A) (A) (A) (A) (A) (A) (A) (A) (A)
                 (A) (A) (A) (A) (A) (A) (A) (A) (A) (A) (A) (A)
                 (A) (A) (A) (A) (A) (A) (A) (A) (A) (A) (A) (A)
                 (A) (A) (A) (A) (A) (A) (A) (A) (A) (A) (A) (A)
                 (A) (A) (A) (A) (A) (A) (A) (A) (A) (A) (A) (A)
                 (A) (A) (A) (A) (A) (A) (A) (A) (A) (A) (A) (A)
                 (A) (A) (A) (A) (A) (A) (A) (A) (A) (A) (A) (A)
                 (A) (A) (A) (A) (A) (A) (A) (A) (A) (A) (A) (A)
                 (A) (A) (A) (A) (A) (A) (A) (A) (A) (A) (A) (A)
                 (A) (A) (A) (A) (A) (A) (A) (A) (A) (A) (A) (A)
                 (A) (A) (A) (A) (A) (A) (A) (A) (A) (A) (A) (A)
                 (A) (A) (A) (A) (A) (A) (A) (A) (A) (A) (A) (A)
                 (A) (A) (A) (A) (A) (A) (A) (A) (A) (A) (A) (A)
                 (A) (A) (A) (A) (A) (A) (A) (A) (A) (A) (A) (A)
                 (A) (A) (A) (A) (A) (A) (A) (A) (A) (A) (A) (A)
                 (A) (A) (A) (A) (A) (A) (A) (A) (A) (A) (A) (A)
                 (A) (A) (A) (A) (A) (A) (A) (A) (A) (A) (A) (A)
                 (A) (A) (A) (A) (A) (A) (A) (A) (A) (A) (A) (A)
                 (A) (A) (A) (A) (A) (A) (A) (A) (A) (A) (A) (A)
                 (A) (A) (A) (A) (A) (A) (A) (A) (A) (A) (A) (A)
 The electronic state is 1-A.
 Alpha  occ. eigenvalues -- -256.16423 -30.01619 -25.85738 -25.85369 -25.85364
 Alpha  occ. eigenvalues --  -14.40900 -14.40803 -14.35189 -14.35003 -14.32434
 Alpha  occ. eigenvalues --  -14.32414 -14.32227 -14.32182 -10.24522 -10.24418
 Alpha  occ. eigenvalues --  -10.22922 -10.22812 -10.20542 -10.20438 -10.20273
 Alpha  occ. eigenvalues --  -10.20248 -10.20110 -10.20080 -10.19982 -10.19974
 Alpha  occ. eigenvalues --  -10.19971 -10.19954 -10.19935 -10.19860 -10.19159
 Alpha  occ. eigenvalues --  -10.19132 -10.18431 -10.18359 -10.18194 -10.18185
 Alpha  occ. eigenvalues --  -10.18145 -10.18137 -10.18002 -10.17958 -10.17953
 Alpha  occ. eigenvalues --  -10.17922 -10.17911 -10.17880 -10.17879 -10.17835
 Alpha  occ. eigenvalues --  -10.17810 -10.17711 -10.17700 -10.17677 -10.17652
 Alpha  occ. eigenvalues --  -10.17561  -3.38980  -2.15491  -2.14863  -2.14855
 Alpha  occ. eigenvalues --   -1.04463  -1.04355  -0.96180  -0.95212  -0.95196
 Alpha  occ. eigenvalues --   -0.94231  -0.90038  -0.89885  -0.81548  -0.81264
 Alpha  occ. eigenvalues --   -0.80955  -0.80022  -0.79728  -0.79532  -0.79421
 Alpha  occ. eigenvalues --   -0.78874  -0.78850  -0.76175  -0.75152  -0.73692
 Alpha  occ. eigenvalues --   -0.73226  -0.72567  -0.71122  -0.71003  -0.70379
 Alpha  occ. eigenvalues --   -0.69570  -0.67614  -0.67267  -0.67204  -0.63748
 Alpha  occ. eigenvalues --   -0.63573  -0.63467  -0.63385  -0.60493  -0.60404
 Alpha  occ. eigenvalues --   -0.60044  -0.59481  -0.57127  -0.55921  -0.55160
 Alpha  occ. eigenvalues --   -0.55066  -0.53798  -0.52990  -0.52729  -0.51945
 Alpha  occ. eigenvalues --   -0.50417  -0.50393  -0.49902  -0.48116  -0.47318
 Alpha  occ. eigenvalues --   -0.47115  -0.46847  -0.46811  -0.46663  -0.46570
 Alpha  occ. eigenvalues --   -0.44306  -0.44092  -0.44070  -0.43863  -0.43549
 Alpha  occ. eigenvalues --   -0.43050  -0.42879  -0.42789  -0.42560  -0.42519
 Alpha  occ. eigenvalues --   -0.42402  -0.42276  -0.41952  -0.41868  -0.41795
 Alpha  occ. eigenvalues --   -0.41753  -0.41709  -0.41128  -0.41056  -0.40989
 Alpha  occ. eigenvalues --   -0.40920  -0.40833  -0.39700  -0.39649  -0.39593
 Alpha  occ. eigenvalues --   -0.39085  -0.38862  -0.38525  -0.38293  -0.37884
 Alpha  occ. eigenvalues --   -0.37702  -0.37282  -0.36996  -0.36654  -0.36284
 Alpha  occ. eigenvalues --   -0.36116  -0.35466  -0.35279  -0.34695  -0.33800
 Alpha  occ. eigenvalues --   -0.33514  -0.33148  -0.32585  -0.32352  -0.31281
 Alpha  occ. eigenvalues --   -0.31153  -0.30904  -0.30290  -0.29248  -0.29068
 Alpha  occ. eigenvalues --   -0.27967  -0.27838  -0.26037  -0.26018  -0.23509
 Alpha  occ. eigenvalues --   -0.23428  -0.22649  -0.22482  -0.21825  -0.21201
 Alpha  occ. eigenvalues --   -0.18237  -0.17384  -0.17209  -0.16618  -0.16580
 Alpha virt. eigenvalues --   -0.05851  -0.05763  -0.01439   0.01008   0.02237
 Alpha virt. eigenvalues --    0.02472   0.02516   0.02767   0.03452   0.04535
 Alpha virt. eigenvalues --    0.05039   0.05488   0.05510   0.05976   0.06106
 Alpha virt. eigenvalues --    0.06217   0.06546   0.06658   0.06971   0.07352
 Alpha virt. eigenvalues --    0.07547   0.08352   0.08565   0.08657   0.08933
 Alpha virt. eigenvalues --    0.09254   0.09762   0.09960   0.10192   0.10551
 Alpha virt. eigenvalues --    0.10953   0.11126   0.11480   0.11537   0.11820
 Alpha virt. eigenvalues --    0.12095   0.12298   0.12374   0.12725   0.12825
 Alpha virt. eigenvalues --    0.12871   0.12944   0.13215   0.13408   0.13607
 Alpha virt. eigenvalues --    0.13804   0.14156   0.14442   0.14725   0.14914
 Alpha virt. eigenvalues --    0.14998   0.15093   0.15447   0.15665   0.15974
 Alpha virt. eigenvalues --    0.16069   0.16185   0.16358   0.16459   0.16700
 Alpha virt. eigenvalues --    0.16885   0.17181   0.17340   0.17502   0.17787
 Alpha virt. eigenvalues --    0.18150   0.18293   0.18568   0.18607   0.18848
 Alpha virt. eigenvalues --    0.19646   0.19947   0.20034   0.20413   0.20538
 Alpha virt. eigenvalues --    0.20889   0.21022   0.21129   0.21363   0.21595
 Alpha virt. eigenvalues --    0.21936   0.22105   0.22182   0.22301   0.22880
 Alpha virt. eigenvalues --    0.22961   0.23114   0.23877   0.24054   0.24187
 Alpha virt. eigenvalues --    0.24468   0.24816   0.25371   0.25573   0.25712
 Alpha virt. eigenvalues --    0.25927   0.26146   0.26615   0.26711   0.26918
 Alpha virt. eigenvalues --    0.27396   0.27765   0.27802   0.28104   0.28236
 Alpha virt. eigenvalues --    0.28634   0.28833   0.29058   0.29338   0.29529
 Alpha virt. eigenvalues --    0.29622   0.29821   0.30073   0.30133   0.30455
 Alpha virt. eigenvalues --    0.30640   0.30831   0.31144   0.31710   0.31939
 Alpha virt. eigenvalues --    0.32177   0.32255   0.32599   0.32850   0.33173
 Alpha virt. eigenvalues --    0.33384   0.33493   0.33939   0.33992   0.34242
 Alpha virt. eigenvalues --    0.34411   0.34722   0.34773   0.35026   0.35874
 Alpha virt. eigenvalues --    0.36054   0.36482   0.36677   0.37093   0.37368
 Alpha virt. eigenvalues --    0.37576   0.37733   0.37922   0.38036   0.38206
 Alpha virt. eigenvalues --    0.38326   0.38485   0.38537   0.39054   0.39266
 Alpha virt. eigenvalues --    0.39354   0.39452   0.39906   0.40086   0.40322
 Alpha virt. eigenvalues --    0.40658   0.40786   0.40969   0.41069   0.41443
 Alpha virt. eigenvalues --    0.41626   0.41996   0.42143   0.42401   0.42515
 Alpha virt. eigenvalues --    0.42585   0.42855   0.43041   0.43182   0.43345
 Alpha virt. eigenvalues --    0.43591   0.43722   0.43858   0.44165   0.44239
 Alpha virt. eigenvalues --    0.44316   0.44389   0.44812   0.44923   0.45112
 Alpha virt. eigenvalues --    0.45264   0.45549   0.45633   0.45798   0.46172
 Alpha virt. eigenvalues --    0.46420   0.46627   0.46858   0.47053   0.47199
 Alpha virt. eigenvalues --    0.47217   0.47401   0.47575   0.47708   0.47886
 Alpha virt. eigenvalues --    0.47978   0.48237   0.48328   0.48543   0.48969
 Alpha virt. eigenvalues --    0.49062   0.49175   0.49322   0.49587   0.49829
 Alpha virt. eigenvalues --    0.50047   0.50094   0.50316   0.50507   0.50628
 Alpha virt. eigenvalues --    0.50910   0.51062   0.51343   0.51383   0.51991
 Alpha virt. eigenvalues --    0.52044   0.52191   0.52597   0.52716   0.52788
 Alpha virt. eigenvalues --    0.52979   0.53341   0.53578   0.53791   0.54172
 Alpha virt. eigenvalues --    0.54263   0.54597   0.54823   0.54989   0.55213
 Alpha virt. eigenvalues --    0.55537   0.55546   0.56098   0.56312   0.56449
 Alpha virt. eigenvalues --    0.56510   0.56859   0.57136   0.57276   0.57475
 Alpha virt. eigenvalues --    0.57521   0.57828   0.58082   0.58555   0.58630
 Alpha virt. eigenvalues --    0.58916   0.59282   0.59518   0.59806   0.60118
 Alpha virt. eigenvalues --    0.60304   0.60480   0.60611   0.60685   0.61287
 Alpha virt. eigenvalues --    0.61374   0.61662   0.61871   0.62419   0.62553
 Alpha virt. eigenvalues --    0.62921   0.63166   0.63426   0.63506   0.64138
 Alpha virt. eigenvalues --    0.64364   0.64622   0.64998   0.65191   0.65939
 Alpha virt. eigenvalues --    0.66140   0.66255   0.66723   0.66815   0.67042
 Alpha virt. eigenvalues --    0.67321   0.67475   0.67631   0.67827   0.67887
 Alpha virt. eigenvalues --    0.68181   0.68782   0.69068   0.69421   0.69970
 Alpha virt. eigenvalues --    0.70269   0.70457   0.71256   0.71501   0.71887
 Alpha virt. eigenvalues --    0.72770   0.72887   0.72935   0.73353   0.73653
 Alpha virt. eigenvalues --    0.73681   0.74316   0.74461   0.74607   0.74991
 Alpha virt. eigenvalues --    0.75312   0.75697   0.75865   0.76283   0.76407
 Alpha virt. eigenvalues --    0.76931   0.77196   0.77515   0.77856   0.77912
 Alpha virt. eigenvalues --    0.78224   0.78708   0.78823   0.79015   0.79146
 Alpha virt. eigenvalues --    0.79620   0.79776   0.79879   0.80661   0.80760
 Alpha virt. eigenvalues --    0.81206   0.81465   0.81677   0.82154   0.82358
 Alpha virt. eigenvalues --    0.82686   0.83000   0.83295   0.83486   0.83766
 Alpha virt. eigenvalues --    0.84378   0.84554   0.85125   0.85323   0.85564
 Alpha virt. eigenvalues --    0.85766   0.86314   0.86697   0.87181   0.87369
 Alpha virt. eigenvalues --    0.87874   0.88261   0.88583   0.89030   0.89809
 Alpha virt. eigenvalues --    0.90078   0.90339   0.90405   0.90602   0.90897
 Alpha virt. eigenvalues --    0.91109   0.91561   0.91826   0.91856   0.92231
 Alpha virt. eigenvalues --    0.92417   0.92957   0.93447   0.93680   0.94405
 Alpha virt. eigenvalues --    0.95039   0.95132   0.95434   0.95560   0.96068
 Alpha virt. eigenvalues --    0.96229   0.96580   0.96942   0.97300   0.97786
 Alpha virt. eigenvalues --    0.97851   0.98276   0.98452   0.98707   0.98977
 Alpha virt. eigenvalues --    0.99255   0.99611   0.99675   1.00176   1.00417
 Alpha virt. eigenvalues --    1.00580   1.00738   1.01141   1.01533   1.02029
 Alpha virt. eigenvalues --    1.02216   1.02629   1.02968   1.03163   1.03429
 Alpha virt. eigenvalues --    1.03629   1.04107   1.04324   1.04511   1.04713
 Alpha virt. eigenvalues --    1.05091   1.05340   1.05757   1.06266   1.06383
 Alpha virt. eigenvalues --    1.06784   1.07172   1.07692   1.07876   1.08228
 Alpha virt. eigenvalues --    1.08970   1.09221   1.09556   1.09627   1.09923
 Alpha virt. eigenvalues --    1.10366   1.10712   1.10840   1.11333   1.11641
 Alpha virt. eigenvalues --    1.11722   1.12393   1.12634   1.13065   1.13372
 Alpha virt. eigenvalues --    1.13689   1.14072   1.14484   1.15260   1.15778
 Alpha virt. eigenvalues --    1.16473   1.16672   1.16901   1.17105   1.17290
 Alpha virt. eigenvalues --    1.17663   1.17866   1.18000   1.18863   1.19106
 Alpha virt. eigenvalues --    1.19793   1.19966   1.20436   1.20575   1.20735
 Alpha virt. eigenvalues --    1.21179   1.21244   1.21595   1.21829   1.22327
 Alpha virt. eigenvalues --    1.22558   1.22722   1.23280   1.23492   1.24409
 Alpha virt. eigenvalues --    1.25022   1.25077   1.25603   1.26033   1.26710
 Alpha virt. eigenvalues --    1.26908   1.27077   1.27298   1.27828   1.28110
 Alpha virt. eigenvalues --    1.28409   1.28637   1.29004   1.29522   1.29740
 Alpha virt. eigenvalues --    1.30037   1.30049   1.30236   1.30445   1.31139
 Alpha virt. eigenvalues --    1.31520   1.32084   1.32913   1.33243   1.33382
 Alpha virt. eigenvalues --    1.33856   1.34601   1.34803   1.35190   1.36013
 Alpha virt. eigenvalues --    1.36527   1.36946   1.37134   1.37514   1.37758
 Alpha virt. eigenvalues --    1.38244   1.38419   1.39100   1.39291   1.40107
 Alpha virt. eigenvalues --    1.40504   1.40870   1.40998   1.41559   1.42100
 Alpha virt. eigenvalues --    1.42859   1.43110   1.43829   1.43977   1.44292
 Alpha virt. eigenvalues --    1.45089   1.45269   1.45767   1.46711   1.47225
 Alpha virt. eigenvalues --    1.47684   1.47875   1.47999   1.48089   1.48547
 Alpha virt. eigenvalues --    1.48755   1.48871   1.49238   1.49690   1.49762
 Alpha virt. eigenvalues --    1.50301   1.50355   1.50777   1.50863   1.51189
 Alpha virt. eigenvalues --    1.51653   1.51859   1.52091   1.52408   1.52592
 Alpha virt. eigenvalues --    1.52665   1.52803   1.53107   1.53277   1.53413
 Alpha virt. eigenvalues --    1.53763   1.54058   1.54415   1.54467   1.54978
 Alpha virt. eigenvalues --    1.55272   1.55575   1.55651   1.56039   1.56155
 Alpha virt. eigenvalues --    1.56352   1.56527   1.56643   1.56691   1.57180
 Alpha virt. eigenvalues --    1.57536   1.57666   1.57890   1.57975   1.58493
 Alpha virt. eigenvalues --    1.58999   1.59289   1.59487   1.59639   1.60031
 Alpha virt. eigenvalues --    1.60209   1.60424   1.61181   1.61343   1.61690
 Alpha virt. eigenvalues --    1.61775   1.62359   1.62520   1.62717   1.62936
 Alpha virt. eigenvalues --    1.63386   1.63750   1.63966   1.64051   1.64717
 Alpha virt. eigenvalues --    1.64834   1.65106   1.65167   1.65472   1.65760
 Alpha virt. eigenvalues --    1.65929   1.66391   1.66453   1.66887   1.67151
 Alpha virt. eigenvalues --    1.67533   1.67782   1.67986   1.68130   1.68317
 Alpha virt. eigenvalues --    1.68734   1.69324   1.69437   1.69800   1.70278
 Alpha virt. eigenvalues --    1.70514   1.70927   1.71096   1.71236   1.71474
 Alpha virt. eigenvalues --    1.71788   1.72159   1.72333   1.72728   1.73194
 Alpha virt. eigenvalues --    1.73398   1.73981   1.74129   1.74491   1.74767
 Alpha virt. eigenvalues --    1.75584   1.76247   1.76597   1.77188   1.77347
 Alpha virt. eigenvalues --    1.77812   1.77957   1.78971   1.79919   1.80786
 Alpha virt. eigenvalues --    1.81493   1.82190   1.82651   1.82825   1.83144
 Alpha virt. eigenvalues --    1.83509   1.83652   1.84451   1.84791   1.85219
 Alpha virt. eigenvalues --    1.85335   1.85943   1.86403   1.86643   1.86808
 Alpha virt. eigenvalues --    1.86946   1.87267   1.87437   1.87881   1.88171
 Alpha virt. eigenvalues --    1.88726   1.88772   1.89312   1.89391   1.89753
 Alpha virt. eigenvalues --    1.90085   1.91355   1.91525   1.92331   1.92917
 Alpha virt. eigenvalues --    1.93212   1.93618   1.94524   1.95013   1.95460
 Alpha virt. eigenvalues --    1.95485   1.96253   1.97403   1.97643   1.97850
 Alpha virt. eigenvalues --    1.97923   1.98317   1.98387   1.98951   1.99162
 Alpha virt. eigenvalues --    1.99211   1.99405   2.00155   2.00487   2.00638
 Alpha virt. eigenvalues --    2.01195   2.01657   2.02153   2.02775   2.02996
 Alpha virt. eigenvalues --    2.03495   2.03756   2.04050   2.04479   2.05062
 Alpha virt. eigenvalues --    2.05206   2.05939   2.06360   2.06660   2.07697
 Alpha virt. eigenvalues --    2.07903   2.08508   2.08820   2.09332   2.09795
 Alpha virt. eigenvalues --    2.10093   2.10545   2.10845   2.11007   2.11281
 Alpha virt. eigenvalues --    2.11682   2.11868   2.12134   2.12259   2.12582
 Alpha virt. eigenvalues --    2.13235   2.13308   2.14234   2.14675   2.15023
 Alpha virt. eigenvalues --    2.15280   2.15548   2.15833   2.16202   2.16500
 Alpha virt. eigenvalues --    2.17213   2.17900   2.18239   2.18470   2.19245
 Alpha virt. eigenvalues --    2.19721   2.19928   2.20152   2.20521   2.20841
 Alpha virt. eigenvalues --    2.21576   2.21774   2.22329   2.22514   2.22891
 Alpha virt. eigenvalues --    2.23149   2.23595   2.23720   2.24886   2.25396
 Alpha virt. eigenvalues --    2.25646   2.26093   2.26522   2.26847   2.27400
 Alpha virt. eigenvalues --    2.28085   2.28208   2.28482   2.28728   2.29255
 Alpha virt. eigenvalues --    2.29700   2.30452   2.30797   2.31215   2.31762
 Alpha virt. eigenvalues --    2.32133   2.32292   2.32587   2.32904   2.33190
 Alpha virt. eigenvalues --    2.33679   2.33917   2.34415   2.34677   2.35278
 Alpha virt. eigenvalues --    2.35618   2.35774   2.35920   2.36533   2.37318
 Alpha virt. eigenvalues --    2.37541   2.37729   2.38079   2.38252   2.38313
 Alpha virt. eigenvalues --    2.38645   2.39151   2.39549   2.40081   2.40633
 Alpha virt. eigenvalues --    2.40761   2.41159   2.41407   2.41706   2.42780
 Alpha virt. eigenvalues --    2.43172   2.43952   2.44362   2.44796   2.44970
 Alpha virt. eigenvalues --    2.45292   2.45606   2.45881   2.46688   2.47022
 Alpha virt. eigenvalues --    2.47167   2.47741   2.48204   2.48539   2.48962
 Alpha virt. eigenvalues --    2.49106   2.49247   2.49552   2.49845   2.50490
 Alpha virt. eigenvalues --    2.50630   2.50975   2.51639   2.51956   2.52384
 Alpha virt. eigenvalues --    2.52552   2.53023   2.53250   2.53531   2.53728
 Alpha virt. eigenvalues --    2.53868   2.54226   2.54780   2.54903   2.56080
 Alpha virt. eigenvalues --    2.56528   2.57018   2.57062   2.57252   2.57624
 Alpha virt. eigenvalues --    2.57885   2.58017   2.58761   2.59401   2.59541
 Alpha virt. eigenvalues --    2.59775   2.60190   2.60373   2.61156   2.61472
 Alpha virt. eigenvalues --    2.61513   2.62229   2.62600   2.62855   2.63108
 Alpha virt. eigenvalues --    2.63331   2.64153   2.64546   2.64760   2.65448
 Alpha virt. eigenvalues --    2.65622   2.66167   2.66423   2.66536   2.66901
 Alpha virt. eigenvalues --    2.67051   2.67384   2.68087   2.68681   2.68866
 Alpha virt. eigenvalues --    2.68986   2.69342   2.70003   2.70176   2.70532
 Alpha virt. eigenvalues --    2.70885   2.71005   2.71199   2.71602   2.72312
 Alpha virt. eigenvalues --    2.72439   2.72706   2.72828   2.73145   2.73287
 Alpha virt. eigenvalues --    2.74339   2.74757   2.75003   2.75358   2.75881
 Alpha virt. eigenvalues --    2.76500   2.77061   2.77437   2.77939   2.78409
 Alpha virt. eigenvalues --    2.78677   2.78805   2.79405   2.79947   2.79971
 Alpha virt. eigenvalues --    2.80666   2.80958   2.81202   2.81386   2.82406
 Alpha virt. eigenvalues --    2.82479   2.83146   2.83395   2.83994   2.84175
 Alpha virt. eigenvalues --    2.84425   2.85172   2.85349   2.85907   2.86037
 Alpha virt. eigenvalues --    2.86421   2.86868   2.87438   2.87467   2.88159
 Alpha virt. eigenvalues --    2.88292   2.89097   2.89311   2.89562   2.89596
 Alpha virt. eigenvalues --    2.90395   2.90635   2.90711   2.90837   2.91345
 Alpha virt. eigenvalues --    2.91390   2.91610   2.92242   2.92617   2.93074
 Alpha virt. eigenvalues --    2.93131   2.93670   2.94006   2.94329   2.94853
 Alpha virt. eigenvalues --    2.94935   2.95123   2.95585   2.95712   2.96099
 Alpha virt. eigenvalues --    2.96381   2.96549   2.96856   2.97417   2.97698
 Alpha virt. eigenvalues --    2.98141   2.98881   2.99065   2.99263   2.99374
 Alpha virt. eigenvalues --    2.99534   2.99906   3.00121   3.00831   3.00960
 Alpha virt. eigenvalues --    3.01384   3.01641   3.02094   3.02151   3.02226
 Alpha virt. eigenvalues --    3.02532   3.02900   3.03101   3.03736   3.04030
 Alpha virt. eigenvalues --    3.04247   3.04560   3.05179   3.05605   3.05655
 Alpha virt. eigenvalues --    3.06255   3.06631   3.06967   3.07082   3.07465
 Alpha virt. eigenvalues --    3.07858   3.08355   3.08556   3.08732   3.08901
 Alpha virt. eigenvalues --    3.09073   3.09572   3.09711   3.10070   3.10581
 Alpha virt. eigenvalues --    3.10759   3.11227   3.11454   3.11671   3.12019
 Alpha virt. eigenvalues --    3.12276   3.12602   3.13074   3.13276   3.13617
 Alpha virt. eigenvalues --    3.13680   3.13912   3.14285   3.14479   3.14667
 Alpha virt. eigenvalues --    3.14758   3.15496   3.15815   3.16083   3.16531
 Alpha virt. eigenvalues --    3.16664   3.16903   3.17493   3.17588   3.17841
 Alpha virt. eigenvalues --    3.18159   3.18483   3.18768   3.19098   3.19455
 Alpha virt. eigenvalues --    3.19538   3.19882   3.20169   3.20686   3.20959
 Alpha virt. eigenvalues --    3.21076   3.21543   3.22275   3.22295   3.22638
 Alpha virt. eigenvalues --    3.22744   3.22986   3.23287   3.23462   3.23690
 Alpha virt. eigenvalues --    3.24103   3.24647   3.24860   3.25281   3.25354
 Alpha virt. eigenvalues --    3.25877   3.26161   3.26199   3.26402   3.26483
 Alpha virt. eigenvalues --    3.26785   3.26867   3.27297   3.27401   3.27666
 Alpha virt. eigenvalues --    3.27803   3.28048   3.28423   3.28559   3.28980
 Alpha virt. eigenvalues --    3.29383   3.29900   3.30167   3.30297   3.30584
 Alpha virt. eigenvalues --    3.30774   3.30990   3.31219   3.31351   3.31597
 Alpha virt. eigenvalues --    3.31638   3.31958   3.32191   3.32295   3.32617
 Alpha virt. eigenvalues --    3.33042   3.33163   3.33606   3.33868   3.34052
 Alpha virt. eigenvalues --    3.34470   3.34660   3.34775   3.35040   3.35291
 Alpha virt. eigenvalues --    3.35513   3.35748   3.36492   3.36761   3.36909
 Alpha virt. eigenvalues --    3.37094   3.37374   3.37690   3.37878   3.38122
 Alpha virt. eigenvalues --    3.38420   3.38696   3.38785   3.38837   3.39326
 Alpha virt. eigenvalues --    3.39378   3.39756   3.40269   3.40644   3.40732
 Alpha virt. eigenvalues --    3.40954   3.41430   3.41724   3.41898   3.42069
 Alpha virt. eigenvalues --    3.42285   3.43057   3.43664   3.43747   3.44291
 Alpha virt. eigenvalues --    3.44748   3.44923   3.45367   3.45674   3.46029
 Alpha virt. eigenvalues --    3.46374   3.46634   3.47054   3.47391   3.47702
 Alpha virt. eigenvalues --    3.47852   3.48000   3.48870   3.49206   3.49675
 Alpha virt. eigenvalues --    3.50288   3.50747   3.51437   3.51755   3.51995
 Alpha virt. eigenvalues --    3.52203   3.52525   3.52759   3.52956   3.53665
 Alpha virt. eigenvalues --    3.53966   3.54419   3.54915   3.55288   3.55814
 Alpha virt. eigenvalues --    3.56013   3.56184   3.56714   3.56894   3.57607
 Alpha virt. eigenvalues --    3.57850   3.58190   3.58375   3.58570   3.58925
 Alpha virt. eigenvalues --    3.59576   3.59703   3.60202   3.60790   3.61492
 Alpha virt. eigenvalues --    3.61695   3.61822   3.62080   3.62612   3.62911
 Alpha virt. eigenvalues --    3.63744   3.64059   3.64393   3.64943   3.65221
 Alpha virt. eigenvalues --    3.66081   3.66516   3.66964   3.67168   3.67518
 Alpha virt. eigenvalues --    3.68145   3.68460   3.68575   3.69038   3.69361
 Alpha virt. eigenvalues --    3.69710   3.70391   3.70663   3.70787   3.71143
 Alpha virt. eigenvalues --    3.71609   3.71826   3.72184   3.72472   3.72562
 Alpha virt. eigenvalues --    3.73077   3.73216   3.73592   3.74456   3.74554
 Alpha virt. eigenvalues --    3.75084   3.75350   3.75546   3.75952   3.76393
 Alpha virt. eigenvalues --    3.76618   3.77014   3.77360   3.77760   3.78357
 Alpha virt. eigenvalues --    3.78904   3.79449   3.80090   3.80726   3.81195
 Alpha virt. eigenvalues --    3.81762   3.81847   3.82236   3.82652   3.83308
 Alpha virt. eigenvalues --    3.83830   3.84194   3.84825   3.85149   3.86024
 Alpha virt. eigenvalues --    3.86697   3.87018   3.87218   3.88118   3.88538
 Alpha virt. eigenvalues --    3.89851   3.89908   3.90932   3.91093   3.91475
 Alpha virt. eigenvalues --    3.91683   3.92220   3.92410   3.92838   3.93207
 Alpha virt. eigenvalues --    3.93516   3.94033   3.94668   3.95572   3.95844
 Alpha virt. eigenvalues --    3.96760   3.97101   3.98111   3.98909   3.99427
 Alpha virt. eigenvalues --    4.00076   4.00637   4.00871   4.01837   4.02083
 Alpha virt. eigenvalues --    4.02549   4.02693   4.03113   4.04108   4.04556
 Alpha virt. eigenvalues --    4.04999   4.05624   4.05921   4.06292   4.06407
 Alpha virt. eigenvalues --    4.07002   4.07259   4.07885   4.08443   4.09866
 Alpha virt. eigenvalues --    4.11780   4.12394   4.13266   4.13513   4.15254
 Alpha virt. eigenvalues --    4.15694   4.16633   4.16695   4.17137   4.17496
 Alpha virt. eigenvalues --    4.18105   4.18837   4.19208   4.19761   4.20103
 Alpha virt. eigenvalues --    4.20269   4.20915   4.21209   4.21625   4.21900
 Alpha virt. eigenvalues --    4.22496   4.22818   4.23871   4.24289   4.24362
 Alpha virt. eigenvalues --    4.24751   4.25188   4.25799   4.25926   4.26584
 Alpha virt. eigenvalues --    4.27293   4.27514   4.28146   4.28674   4.28990
 Alpha virt. eigenvalues --    4.29716   4.30326   4.31086   4.31485   4.31704
 Alpha virt. eigenvalues --    4.33100   4.33487   4.33812   4.34209   4.34816
 Alpha virt. eigenvalues --    4.35251   4.35719   4.35960   4.36733   4.36963
 Alpha virt. eigenvalues --    4.38007   4.38892   4.39633   4.39697   4.40330
 Alpha virt. eigenvalues --    4.41127   4.41447   4.41655   4.41889   4.42342
 Alpha virt. eigenvalues --    4.42986   4.43429   4.43638   4.43902   4.44329
 Alpha virt. eigenvalues --    4.45276   4.45689   4.45932   4.46132   4.46360
 Alpha virt. eigenvalues --    4.47242   4.47307   4.47582   4.48022   4.48407
 Alpha virt. eigenvalues --    4.49206   4.50208   4.50350   4.50956   4.51535
 Alpha virt. eigenvalues --    4.52323   4.52840   4.54503   4.54762   4.55120
 Alpha virt. eigenvalues --    4.55963   4.56851   4.57882   4.58148   4.58479
 Alpha virt. eigenvalues --    4.59216   4.60604   4.61025   4.62415   4.63042
 Alpha virt. eigenvalues --    4.64741   4.65800   4.66335   4.67013   4.67440
 Alpha virt. eigenvalues --    4.69060   4.69937   4.70580   4.71314   4.71411
 Alpha virt. eigenvalues --    4.71777   4.72127   4.73374   4.73967   4.74148
 Alpha virt. eigenvalues --    4.74500   4.74827   4.75209   4.75825   4.76208
 Alpha virt. eigenvalues --    4.76396   4.77936   4.78241   4.78786   4.80963
 Alpha virt. eigenvalues --    4.81469   4.82291   4.83101   4.84224   4.84609
 Alpha virt. eigenvalues --    4.84897   4.85481   4.85863   4.86429   4.86721
 Alpha virt. eigenvalues --    4.87050   4.87448   4.88397   4.89067   4.89818
 Alpha virt. eigenvalues --    4.90624   4.90923   4.91760   4.92837   4.94179
 Alpha virt. eigenvalues --    4.94752   4.95728   4.96589   4.96623   4.97481
 Alpha virt. eigenvalues --    4.98005   4.98702   4.99530   4.99830   5.00365
 Alpha virt. eigenvalues --    5.00733   5.01652   5.01731   5.02580   5.03397
 Alpha virt. eigenvalues --    5.04388   5.05139   5.05970   5.06486   5.07483
 Alpha virt. eigenvalues --    5.07980   5.08287   5.09333   5.10979   5.11182
 Alpha virt. eigenvalues --    5.11681   5.12538   5.12818   5.13739   5.14456
 Alpha virt. eigenvalues --    5.14670   5.16338   5.17156   5.20167   5.21863
 Alpha virt. eigenvalues --    5.22059   5.22571   5.23143   5.23662   5.24702
 Alpha virt. eigenvalues --    5.25158   5.25417   5.26069   5.28735   5.30084
 Alpha virt. eigenvalues --    5.30293   5.31317   5.33029   5.33093   5.34838
 Alpha virt. eigenvalues --    5.36232   5.36927   5.38757   5.39532   5.39723
 Alpha virt. eigenvalues --    5.40201   5.40809   5.41062   5.41339   5.41618
 Alpha virt. eigenvalues --    5.42274   5.43851   5.45878   5.46216   5.47421
 Alpha virt. eigenvalues --    5.48490   5.49401   5.49781   5.51596   5.51781
 Alpha virt. eigenvalues --    5.53269   5.53598   5.54474   5.55705   5.58159
 Alpha virt. eigenvalues --    5.60132   5.62232   5.62416   5.63027   5.64514
 Alpha virt. eigenvalues --    5.65336   5.66552   5.66761   5.66986   5.67955
 Alpha virt. eigenvalues --    5.68556   5.69247   5.69563   5.71324   5.73496
 Alpha virt. eigenvalues --    5.75242   5.76626   5.77448   5.79553   5.83340
 Alpha virt. eigenvalues --    5.84338   5.88589   5.92249   5.98288   5.99952
 Alpha virt. eigenvalues --    6.01017   6.02392   6.03598   6.03891   6.05617
 Alpha virt. eigenvalues --    6.06129   6.08057   6.10728   6.12466   6.17119
 Alpha virt. eigenvalues --    6.17711   6.18532   6.19372   6.20762   6.22853
 Alpha virt. eigenvalues --    6.25943   6.29971   6.37186   6.37276   6.43179
 Alpha virt. eigenvalues --   22.37096  22.37996  22.44603  22.44770  22.46618
 Alpha virt. eigenvalues --   22.47466  22.53093  22.53844  22.63154  22.63314
 Alpha virt. eigenvalues --   22.83764  22.84803  22.88279  22.88431  22.96819
 Alpha virt. eigenvalues --   22.97192  22.97622  23.00331  23.01541  23.05295
 Alpha virt. eigenvalues --   23.05935  23.11547  23.12548  23.16782  23.29491
 Alpha virt. eigenvalues --   23.30418  23.31016  23.33606  23.34035  23.43282
 Alpha virt. eigenvalues --   23.48703  23.52805  23.52909  23.57397  23.75855
 Alpha virt. eigenvalues --   23.81526  23.81908  23.92240  32.42009  32.43581
 Alpha virt. eigenvalues --   32.82478  32.88956  33.06371  33.06497  33.07566
 Alpha virt. eigenvalues --   33.45344
          Condensed to atoms (all electrons):
 Mulliken charges:
               1
     1  Fe  -0.526271
     2  N   -0.006812
     3  N   -0.008180
     4  N   -0.007715
     5  N    0.001195
     6  C    0.189017
     7  C   -0.017912
     8  C   -0.044688
     9  C    0.207627
    10  C    0.217411
    11  C   -0.044286
    12  C    0.062219
    13  C    0.227500
    14  C    0.244750
    15  C   -0.056525
    16  C    0.073665
    17  C    0.195469
    18  C    0.203044
    19  C   -0.034288
    20  C   -0.038398
    21  C    0.194012
    22  C   -0.462669
    23  H    0.133597
    24  C   -0.482524
    25  H    0.126313
    26  C   -0.520785
    27  H    0.097445
    28  C   -0.491585
    29  H    0.110505
    30  C   -0.417705
    31  H    0.118051
    32  H    0.132867
    33  H    0.134067
    34  C   -0.419342
    35  H    0.133950
    36  H    0.133618
    37  H    0.118250
    38  C   -0.456533
    39  H    0.128694
    40  H    0.139429
    41  H    0.154959
    42  C   -0.210967
    43  H    0.104818
    44  C   -0.288742
    45  H    0.136194
    46  H    0.119394
    47  C   -0.460576
    48  H    0.138780
    49  H    0.130658
    50  H    0.154991
    51  C   -0.204795
    52  H    0.103033
    53  C   -0.291445
    54  H    0.135957
    55  H    0.119267
    56  C   -0.417490
    57  H    0.136349
    58  H    0.131006
    59  H    0.118236
    60  C   -0.418954
    61  H    0.118311
    62  H    0.133786
    63  H    0.133124
    64  C   -0.397889
    65  H    0.144312
    66  H    0.133789
    67  H    0.133996
    68  N   -0.231851
    69  H    0.232730
    70  C    0.175983
    71  C    0.011329
    72  H    0.179408
    73  N    0.148291
    74  C   -0.204938
    75  H    0.160371
    76  C   -0.398164
    77  H    0.134520
    78  H    0.144468
    79  H    0.132765
    80  N   -0.233438
    81  H    0.232301
    82  C    0.177756
    83  C    0.012890
    84  H    0.179700
    85  N    0.113996
    86  C   -0.205135
    87  H    0.160441
 Sum of Mulliken charges =  -0.00000
 Mulliken charges with hydrogens summed into heavy atoms:
               1
     1  Fe  -0.526271
     2  N   -0.006812
     3  N   -0.008180
     4  N   -0.007715
     5  N    0.001195
     6  C    0.189017
     7  C   -0.017912
     8  C   -0.044688
     9  C    0.207627
    10  C    0.217411
    11  C   -0.044286
    12  C    0.062219
    13  C    0.227500
    14  C    0.244750
    15  C   -0.056525
    16  C    0.073665
    17  C    0.195469
    18  C    0.203044
    19  C   -0.034288
    20  C   -0.038398
    21  C    0.194012
    22  C   -0.329072
    24  C   -0.356211
    26  C   -0.423340
    28  C   -0.381081
    30  C   -0.032720
    34  C   -0.033525
    38  C   -0.033452
    42  C   -0.106149
    44  C   -0.033154
    47  C   -0.036146
    51  C   -0.101762
    53  C   -0.036221
    56  C   -0.031899
    60  C   -0.033733
    64  C    0.014208
    68  N    0.000879
    70  C    0.175983
    71  C    0.190737
    73  N    0.148291
    74  C   -0.044567
    76  C    0.013589
    80  N   -0.001137
    82  C    0.177756
    83  C    0.192590
    85  N    0.113996
    86  C   -0.044694
 Electronic spatial extent (au):  <R**2>=          22532.4539
 Charge=             -0.0000 electrons
 Dipole moment (field-independent basis, Debye):
    X=              0.7304    Y=             -0.4562    Z=             -0.0065  Tot=              0.8611
 Quadrupole moment (field-independent basis, Debye-Ang):
   XX=           -276.0742   YY=           -275.4263   ZZ=           -230.8559
   XY=             -0.4993   XZ=              1.3448   YZ=             -1.9466
 Traceless Quadrupole moment (field-independent basis, Debye-Ang):
   XX=            -15.2887   YY=            -14.6409   ZZ=             29.9296
   XY=             -0.4993   XZ=              1.3448   YZ=             -1.9466
 Octapole moment (field-independent basis, Debye-Ang**2):
  XXX=             47.8008  YYY=            -50.1373  ZZZ=              8.1640  XYY=             -6.6713
  XXY=            -18.1419  XXZ=            -14.6912  XZZ=              8.1812  YZZ=             23.1543
  YYZ=              5.4213  XYZ=            -27.8502
 Hexadecapole moment (field-independent basis, Debye-Ang**3):
 XXXX=         -12328.0319 YYYY=         -12267.7447 ZZZZ=          -4910.5469 XXXY=             32.5897
 XXXZ=             49.0328 YYYX=            -46.2206 YYYZ=             46.7655 ZZZX=            130.4615
 ZZZY=            -88.2859 XXYY=          -3997.0569 XXZZ=          -3191.4976 YYZZ=          -3146.8188
 XXYZ=              3.1514 YYXZ=            -52.0731 ZZXY=            -12.0246
 N-N= 7.158698276313D+03 E-N=-2.177017673587D+04  KE= 3.161927607625D+03
  Exact polarizability:     730.153       3.332     733.139     -22.143      12.077     398.933
 Approx polarizability:    1365.737       6.813    1384.469     -91.458      32.083     613.833

 ----------------------------------------------------------------------

 Electric dipole moment (input orientation):
 (Debye = 10**-18 statcoulomb cm , SI units = C m)
                  (au)            (Debye)         (10**-30 SI)
   Tot        0.338802D+00      0.861148D+00      0.287248D+01
   x          0.249777D+00      0.634869D+00      0.211770D+01
   y          0.227306D+00      0.577754D+00      0.192718D+01
   z          0.270201D-01      0.686782D-01      0.229086D+00

 Dipole polarizability, Alpha (input orientation).
 (esu units = cm**3 , SI units = C**2 m**2 J**-1)
 Alpha(0;0):
               (au)            (10**-24 esu)      (10**-40 SI)
   iso        0.620742D+03      0.919844D+02      0.102346D+03
   aniso      0.335629D+03      0.497350D+02      0.553377D+02
   xx         0.714699D+03      0.105908D+03      0.117838D+03
   yx         0.167243D+00      0.247829D-01      0.275747D-01
   yy         0.732175D+03      0.108497D+03      0.120719D+03
   zx         0.753613D+02      0.111674D+02      0.124254D+02
   zy        -0.124138D+02     -0.183953D+01     -0.204675D+01
   zz         0.415351D+03      0.615486D+02      0.684821D+02

 First dipole hyperpolarizability, Beta (input orientation).
 ||, _|_  parallel and perpendicular components, (z) with respect to z axis,
 vector components x,y,z.  Values do not include the 1/n! factor of 1/2.
 (esu units = statvolt**-1 cm**4 , SI units = C**3 m**3 J**-2)
 Beta(0;0,0):
               (au)            (10**-30 esu)      (10**-50 SI)
   || (z)    -0.121279D+03     -0.104776D+01     -0.388866D+00
   _|_(z)    -0.404265D+02     -0.349253D+00     -0.129622D+00
   x         -0.257018D+04     -0.222043D+02     -0.824092D+01
   y         -0.596167D+04     -0.515042D+02     -0.191153D+02
   z         -0.606397D+03     -0.523880D+01     -0.194433D+01
   ||         0.130407D+04      0.112662D+02      0.418132D+01
   xxx       -0.143696D+04     -0.124142D+02     -0.460741D+01
   xxy       -0.609839D+03     -0.526853D+01     -0.195536D+01
   yxy        0.629208D+03      0.543586D+01      0.201747D+01
   yyy       -0.138780D+04     -0.119895D+02     -0.444978D+01
   xxz       -0.285107D+03     -0.246311D+01     -0.914157D+00
   yxz       -0.108038D+03     -0.933360D+00     -0.346407D+00
   yyz        0.152278D+03      0.131556D+01      0.488258D+00
   zxz       -0.489740D+02     -0.423097D+00     -0.157028D+00
   zyz        0.104141D+02      0.899694D-01      0.333913D-01
   zzz       -0.693030D+02     -0.598724D+00     -0.222210D+00

 ----------------------------------------------------------------------

 Dipole orientation:
    26        -81.06085867          0.70319110        100.10617265
     7        -82.91873102          3.33987739        102.09907656
     7        -81.67354162          2.70341703         96.93923595
     7        -79.27987407         -1.95296140         98.08999075
     7        -80.54138949         -1.29411888        103.25458085
     6        -83.46278391          3.27611095        104.60575542
     6        -84.70033759          5.58579529        105.38869763
     6        -84.91242739          7.03834772        103.28066140
     6        -83.80350252          5.59225536        101.24153914
     6        -82.83236263          4.98781037         96.75092911
     6        -83.01230988          5.77445386         94.15149463
     6        -82.01345924          3.84817934         92.73826935
     6        -81.19745777          1.94276973         94.53548011
     6        -79.06422360         -2.06124543         95.53049212
     6        -77.76412867         -4.32589186         94.76639691
     6        -77.13036021         -5.57345542         96.94884893
     6        -78.08251326         -4.02715894         99.00212477
     6        -79.13618047         -3.43195893        103.48566623
     6        -79.11109928         -4.29187071        106.08095540
     6        -80.52566024         -2.60891242        107.41154968
     6        -81.36277504         -0.72444611        105.61613653
     6        -82.82366407          1.34705268        106.25080850
     1        -83.38730911          1.54217481        108.20204195
     6        -83.73390206          6.40131674         98.76238804
     1        -84.55190405          8.22323761         98.34581651
     6        -79.97302932         -0.26170145         93.85969012
     1        -79.69405475         -0.61220240         91.86974589
     6        -77.96222680         -4.70159985        101.52750488
     1        -76.91099487         -6.38310462        102.00911107
     6        -86.01557810          9.61399698        102.99154061
     1        -86.69224605         10.32604186        104.79632424
     1        -87.59917821          9.58516182        101.67316165
     1        -84.60504034         10.92773049        102.26389265
     6        -85.51594122          6.13498311        108.02823445
     1        -83.89313173          6.14783713        109.29836957
     1        -86.83447480          4.69952346        108.69440713
     1        -86.44036836          7.96627336        108.14404805
     6        -84.02333650          8.24994374         93.27283810
     1        -83.49109976          9.75708345         94.56982907
     1        -86.08277574          8.20550055         93.15953383
     1        -83.28172852          8.69446792         91.40721961
     6        -81.73266095          3.65559508         90.02773775
     1        -80.09520911          2.60908468         89.37810947
     6        -83.29981837          4.62169822         88.31793903
     1        -85.00386141          5.60056626         88.83883649
     1        -82.95129477          4.42025584         86.32153172
     6        -77.34913839         -5.13736250         92.10311943
     1        -75.63309546         -4.28971671         91.33314982
     1        -78.92791045         -4.56971852         90.91149829
     1        -77.15669541         -7.18275036         92.00775557
     6        -75.82449353         -7.94965604         97.27509579
     1        -76.34415165         -9.01889450         98.94301499
     6        -74.06629909         -8.89113721         95.74562288
     1        -73.39776395         -7.88774071         94.10954493
     1        -73.19298023        -10.69378556         96.11450366
     6        -77.76329480         -6.59616964        106.98199917
     1        -75.75388945         -6.47650641        106.54328196
     1        -78.51504892         -8.28399359        106.06822459
     1        -77.96958378         -6.81724630        109.01438411
     6        -81.14931377         -2.57490757        110.15889303
     1        -80.34785460         -4.20878375        111.11332825
     1        -83.19101436         -2.59894653        110.43672619
     1        -80.40506007         -0.87360497        111.05266324
     6        -72.92887546          6.07000563        104.14336179
     1        -73.73681923          6.14977520        106.02716430
     1        -72.62813591          7.99438231        103.47239306
     1        -71.09820005          5.13161562        104.24888287
     7        -74.13497104          4.27905053         99.93192366
     1        -72.56790742          4.85897156         99.02240551
     6        -74.66699196          4.67889356        102.43492578
     6        -76.08797908          2.97306003         98.92600047
     1        -76.18736830          2.39387533         96.99056274
     7        -77.82029405          2.52342139        100.63680520
     6        -76.96384190          3.57151673        102.82899714
     1        -78.05171745          3.45757711        104.53022464
     6        -91.01984901         -1.96019841         97.74165028
     1        -91.31440327         -3.07076899         96.03185851
     1        -91.59392725         -0.02533243         97.37466698
     1        -92.21837119         -2.73475614         99.22723098
     7        -87.07844944         -4.20518243         99.09287994
     1        -87.83301293         -5.95142759         99.06641942
     6        -88.32059894         -2.00862066         98.50735267
     6        -84.67114956         -3.59391797         99.69421330
     1        -83.26118643         -4.93967417        100.23522940
     7        -84.31468193         -1.15058231         99.52525454
     6        -86.56683816         -0.13782440         98.79215569
     1        -86.77272789          1.85571331         98.52212267

 Electric dipole moment (dipole orientation):
 (Debye = 10**-18 statcoulomb cm , SI units = C m)
                  (au)            (Debye)         (10**-30 SI)
   Tot        0.338802D+00      0.861148D+00      0.287248D+01
   x          0.000000D+00      0.000000D+00      0.000000D+00
   y          0.000000D+00      0.000000D+00      0.000000D+00
   z          0.338802D+00      0.861148D+00      0.287248D+01

 Dipole polarizability, Alpha (dipole orientation).
 (esu units = cm**3 , SI units = C**2 m**2 J**-1)
 Alpha(0;0):
               (au)            (10**-24 esu)      (10**-40 SI)
   iso        0.620742D+03      0.919844D+02      0.102346D+03
   aniso      0.335629D+03      0.497350D+02      0.553377D+02
   xx         0.492020D+03      0.729099D+02      0.811232D+02
   yx        -0.150786D+03     -0.223442D+02     -0.248612D+02
   yy         0.641845D+03      0.951116D+02      0.105826D+03
   zx        -0.191529D+02     -0.283817D+01     -0.315789D+01
   zy        -0.121435D+02     -0.179948D+01     -0.200219D+01
   zz         0.728360D+03      0.107932D+03      0.120090D+03

 First dipole hyperpolarizability, Beta (dipole orientation).
 ||, _|_  parallel and perpendicular components, (z) with respect to z axis,
 vector components x,y,z.  Values do not include the 1/n! factor of 1/2.
 (esu units = statvolt**-1 cm**4 , SI units = C**3 m**3 J**-2)
 Beta(0;0,0):
               (au)            (10**-30 esu)      (10**-50 SI)
   || (z)    -0.118859D+04     -0.102685D+02     -0.381104D+01
   _|_(z)    -0.396196D+03     -0.342283D+01     -0.127035D+01
   x          0.190160D+04      0.164283D+02      0.609722D+01
   y         -0.189219D+04     -0.163471D+02     -0.606705D+01
   z         -0.594294D+04     -0.513424D+02     -0.190552D+02
   ||         0.130407D+04      0.112662D+02      0.418132D+01
   xxx        0.317277D+03      0.274102D+01      0.101730D+01
   xxy       -0.401062D+03     -0.346487D+01     -0.128595D+01
   yxy        0.588519D+03      0.508435D+01      0.188701D+01
   yyy       -0.695490D+03     -0.600849D+01     -0.222999D+01
   xxz       -0.240095D+03     -0.207423D+01     -0.769830D+00
   yxz        0.421511D+03      0.364152D+01      0.135152D+01
   yyz       -0.658418D+03     -0.568821D+01     -0.211112D+01
   zxz       -0.271929D+03     -0.234926D+01     -0.871903D+00
   zyz        0.465821D+03      0.402433D+01      0.149359D+01
   zzz       -0.108247D+04     -0.935168D+01     -0.347079D+01

 ----------------------------------------------------------------------
 Unable to Open any file for archive entry.
 1\1\GINC-BGN1037\SP\RAPFD\def2TZVP\C38H40Fe1N8\BECSLEIP\11-Oct-2024\0\
 \# polar def2tzvp apfd int=(grid=ultrafine)\\5o17_II_S\\0,1\Fe,0,17.58
 07262805,55.4076793587,35.5992868792\N,0,17.2308023084,57.3792061009,3
 5.4720972432\N,0,15.6993246782,55.0490608486,34.9945159619\N,0,17.9060
 812271,53.4405197025,35.762401347\N,0,19.4296955887,55.7832153461,36.2
 386059579\C,0,18.0812081134,58.3813614023,35.8127761037\C,0,17.5015337
 499,59.6720382536,35.5086142613\C,0,16.2712781676,59.4232557396,34.986
 6901889\C,0,16.1177338213,57.9842608055,34.9814174604\C,0,14.767560174
 ,55.9680244611,34.6276277943\C,0,13.5154656493,55.331505007,34.3088438
 738\C,0,13.6935743328,53.9932331002,34.5434084864\C,0,15.0710550394,53
 .8455282376,34.977389858\C,0,16.9904700965,52.4461288231,35.608695805\
 C,0,17.5830156976,51.1608802922,35.8732640571\C,0,18.9034306152,51.397
 118633,36.1610423243\C,0,19.0794065223,52.8340562058,36.0701756166\C,0
 ,20.4073750899,54.8649355916,36.4591455036\C,0,21.6349139148,55.514915
 4344,36.8641846956\C,0,21.3743003092,56.8495411692,36.8746981577\C,0,1
 9.9970490895,56.9965397021,36.456465088\C,0,19.3585752112,58.215216162
[...]
                                                    1548(v),1492(v),1599(v)
                                                    168(r),170(r),169(r)
   178. LP (   1) N  80                  1.58110    -0.27566  1709(v),1706(v),1518(v)
                                                    1490(v),1484(v),1516(v)
                                                    184(r)
   179. LP (   1) N  85                  1.62207    -0.34465  170(r),168(r),169(r),1704(v)
                                                    1705(v),1515(v),1707(v)
                                                    1711(v),1708(g),1572(v)
                                                    1710(g),1549(g),1605(r)
                                                    185(r),1604(r),1603(r)
                                                    192(r),173(r),262(r),236(r)
                                                    288(r),210(r),1612(r),171(r)
                                                    1613(r),1607(r),1615(r)
                                                    261(r),1611(r),1606(r)
                                                    1608(r),287(r),235(r),209(r)
                                                    1609(r),208(r),259(r),285(r)
                                                    233(r),1363(r),241(r),267(r)
                                                    215(r),286(r),293(r),198(r)
                                                    789(r)
  1417. RY*(   1) C  76                  0.00117     1.16641   
  1418. RY*(   2) C  76                  0.00080     2.02249   
  1419. RY*(   3) C  76                  0.00051     1.34132   
  1420. RY*(   4) C  76                  0.00012     1.26049   
  1421. RY*(   5) C  76                  0.00008     1.52390   
  1422. RY*(   6) C  76                  0.00007     1.96313   
  1423. RY*(   7) C  76                  0.00001     2.00161   
  1424. RY*(   8) C  76                  0.00001     1.88609   
  1425. RY*(   9) C  76                  0.00001     1.38798   
  1426. RY*(  10) C  76                  0.00000     3.29726   
  1427. RY*(  11) C  76                  0.00000     2.54046   
  1428. RY*(  12) C  76                  0.00001     1.69160   
  1429. RY*(  13) C  76                  0.00000     2.31455   
  1430. RY*(  14) C  76                  0.00001     2.52954   
  1431. RY*(  15) C  76                  0.00000     2.57493   
  1432. RY*(  16) C  76                  0.00000     2.74168   
  1433. RY*(  17) C  76                  0.00001     2.27444   
  1434. RY*(  18) C  76                  0.00000    21.60529   
  1435. RY*(  19) C  76                  0.00000     2.81031   
  1436. RY*(  20) C  76                  0.00000     3.61204   
  1437. RY*(  21) C  76                  0.00000     3.56893   
  1438. RY*(  22) C  76                  0.00001     3.36195   
  1439. RY*(  23) C  76                  0.00000     3.33546   
  1440. RY*(  24) C  76                  0.00000     3.73248   
  1441. RY*(  25) C  76                  0.00000     3.40523   
  1442. RY*(  26) C  76                  0.00000     3.24200   
  1443. RY*(   1) H  77                  0.00076     1.00144   
  1444. RY*(   2) H  77                  0.00015     1.69730   
  1445. RY*(   3) H  77                  0.00008     1.97336   
  1446. RY*(   4) H  77                  0.00006     2.02000   
  1447. RY*(   5) H  77                  0.00000     2.88812   
  1448. RY*(   1) H  78                  0.00025     1.36611   
  1449. RY*(   2) H  78                  0.00012     1.75357   
  1450. RY*(   3) H  78                  0.00008     2.06351   
  1451. RY*(   4) H  78                  0.00002     1.62326   
  1452. RY*(   5) H  78                  0.00001     2.86755   
  1453. RY*(   1) H  79                  0.00076     0.98750   
  1454. RY*(   2) H  79                  0.00015     1.70353   
  1455. RY*(   3) H  79                  0.00008     1.97681   
  1456. RY*(   4) H  79                  0.00006     2.02399   
  1457. RY*(   5) H  79                  0.00000     2.88762   
  1458. RY*(   1) N  80                  0.00283     0.67999   
  1459. RY*(   2) N  80                  0.00223     1.79535   
  1460. RY*(   3) N  80                  0.00102     2.06676   
  1461. RY*(   4) N  80                  0.00079     2.16263   
  1462. RY*(   5) N  80                  0.00052     1.21236   
  1463. RY*(   6) N  80                  0.00025     2.28878   
  1464. RY*(   7) N  80                  0.00020     1.81296   
  1465. RY*(   8) N  80                  0.00006     2.29682   
  1466. RY*(   9) N  80                  0.00007     2.42107   
  1467. RY*(  10) N  80                  0.00006     3.69105   
  1468. RY*(  11) N  80                  0.00004     3.06500   
  1469. RY*(  12) N  80                  0.00000     2.17267   
  1470. RY*(  13) N  80                  0.00001     3.92279   
  1471. RY*(  14) N  80                  0.00001     3.46821   
  1472. RY*(  15) N  80                  0.00001     3.80127   
  1473. RY*(  16) N  80                  0.00001     2.57198   
  1474. RY*(  17) N  80                  0.00000     3.74659   
  1475. RY*(  18) N  80                  0.00000    30.78579   
  1476. RY*(  19) N  80                  0.00000     4.53114   
  1477. RY*(  20) N  80                  0.00000     4.63847   
  1478. RY*(  21) N  80                  0.00000     4.54675   
  1479. RY*(  22) N  80                  0.00000     4.66523   
  1480. RY*(  23) N  80                  0.00000     4.35248   
  1481. RY*(  24) N  80                  0.00000     4.50416   
  1482. RY*(  25) N  80                  0.00000     4.47071   
  1483. RY*(  26) N  80                  0.00000     4.46300   
  1484. RY*(   1) H  81                  0.00058     2.16002   
  1485. RY*(   2) H  81                  0.00039     2.14239   
  1486. RY*(   3) H  81                  0.00032     1.02414   
  1487. RY*(   4) H  81                  0.00021     2.55628   
  1488. RY*(   5) H  81                  0.00001     3.10579   
  1489. RY*(   1) C  82                  0.00402     1.70142   
  1490. RY*(   2) C  82                  0.00265     0.98798   
  1491. RY*(   3) C  82                  0.00192     1.53339   
  1492. RY*(   4) C  82                  0.00161     2.04805   
  1493. RY*(   5) C  82                  0.00125     1.77601   
  1494. RY*(   6) C  82                  0.00113     1.72432   
  1495. RY*(   7) C  82                  0.00037     2.87162   
  1496. RY*(   8) C  82                  0.00019     2.87049   
  1497. RY*(   9) C  82                  0.00016     2.43918   
  1498. RY*(  10) C  82                  0.00007     3.59671   
  1499. RY*(  11) C  82                  0.00003     2.57973   
  1500. RY*(  12) C  82                  0.00001     1.69495   
  1501. RY*(  13) C  82                  0.00001     2.79262   
  1502. RY*(  14) C  82                  0.00001     1.77909   
  1503. RY*(  15) C  82                  0.00001     1.65138   
  1504. RY*(  16) C  82                  0.00000     1.08155   
  1505. RY*(  17) C  82                  0.00001     1.99705   
  1506. RY*(  18) C  82                  0.00000    21.34317   
  1507. RY*(  19) C  82                  0.00000     3.51567   
  1508. RY*(  20) C  82                  0.00000     4.00733   
  1509. RY*(  21) C  82                  0.00000     3.73365   
  1510. RY*(  22) C  82                  0.00000     3.55298   
  1511. RY*(  23) C  82                  0.00000     3.43124   
  1512. RY*(  24) C  82                  0.00000     3.81802   
  1513. RY*(  25) C  82                  0.00000     3.54610   
  1514. RY*(  26) C  82                  0.00000     3.50654   
  1515. RY*(   1) C  83                  0.00410     1.59672   
  1516. RY*(   2) C  83                  0.00332     0.67469   
  1517. RY*(   3) C  83                  0.00204     1.31637   
  1518. RY*(   4) C  83                  0.00127     2.59650   
  1519. RY*(   5) C  83                  0.00096     1.40654   
  1520. RY*(   6) C  83                  0.00041     1.69959   
  1521. RY*(   7) C  83                  0.00023     1.80471   
  1522. RY*(   8) C  83                  0.00011     2.29831   
  1523. RY*(   9) C  83                  0.00007     3.22890   
  1524. RY*(  10) C  83                  0.00006     2.03201   
  1525. RY*(  11) C  83                  0.00003     3.48786   
  1526. RY*(  12) C  83                  0.00003     1.76591   
  1527. RY*(  13) C  83                  0.00002     2.54558   
  1528. RY*(  14) C  83                  0.00002     3.13618   
  1529. RY*(  15) C  83                  0.00002     2.57955   
  1530. RY*(  16) C  83                  0.00000     3.18327   
  1531. RY*(  17) C  83                  0.00000     3.60171   
  1532. RY*(  18) C  83                  0.00000     2.98706   
  1533. RY*(  19) C  83                  0.00000    21.40423   
  1534. RY*(  20) C  83                  0.00001     3.54499   
  1535. RY*(  21) C  83                  0.00001     3.63653   
  1536. RY*(  22) C  83                  0.00000     3.91717   
  1537. RY*(  23) C  83                  0.00000     3.66331   
  1538. RY*(  24) C  83                  0.00000     3.84618   
  1539. RY*(  25) C  83                  0.00000     3.43838   
  1540. RY*(  26) C  83                  0.00000     3.53437   
  1541. RY*(   1) H  84                  0.00060     0.63106   
  1542. RY*(   2) H  84                  0.00033     2.48219   
  1543. RY*(   3) H  84                  0.00021     2.13290   
  1544. RY*(   4) H  84                  0.00011     2.45669   
  1545. RY*(   5) H  84                  0.00002     3.17396   
  1546. RY*(   1) N  85                  0.00798     0.88568   
  1547. RY*(   2) N  85                  0.00751     1.37911   
  1548. RY*(   3) N  85                  0.00624     1.45115   
  1549. RY*(   4) N  85                  0.00088     1.73746   
  1550. RY*(   5) N  85                  0.00070     1.77525   
  1551. RY*(   6) N  85                  0.00056     2.00480   
  1552. RY*(   7) N  85                  0.00036     3.49592   
  1553. RY*(   8) N  85                  0.00028     3.44273   
  1554. RY*(   9) N  85                  0.00014     2.84794   
  1555. RY*(  10) N  85                  0.00010     3.66995   
  1556. RY*(  11) N  85                  0.00009     2.34838   
  1557. RY*(  12) N  85                  0.00008     3.30189   
  1558. RY*(  13) N  85                  0.00005     3.40672   
  1559. RY*(  14) N  85                  0.00004     3.69113   
  1560. RY*(  15) N  85                  0.00001     4.40903   
  1561. RY*(  16) N  85                  0.00002     4.79338   
  1562. RY*(  17) N  85                  0.00001     4.02207   
  1563. RY*(  18) N  85                  0.00000    31.74101   
  1564. RY*(  19) N  85                  0.00000     4.87716   
  1565. RY*(  20) N  85                  0.00000     4.49522   
  1566. RY*(  21) N  85                  0.00001     4.43916   
  1567. RY*(  22) N  85                  0.00000     4.32040   
  1568. RY*(  23) N  85                  0.00000     4.67635   
  1569. RY*(  24) N  85                  0.00000     4.69224   
  1570. RY*(  25) N  85                  0.00000     4.65892   
  1571. RY*(  26) N  85                  0.00000     4.58991   
  1572. RY*(   1) C  86                  0.00400     1.51247   
  1573. RY*(   2) C  86                  0.00269     0.73629   
  1574. RY*(   3) C  86                  0.00169     1.83799   
  1575. RY*(   4) C  86                  0.00060     2.14903   
  1576. RY*(   5) C  86                  0.00056     1.56664   
  1577. RY*(   6) C  86                  0.00045     1.97332   
  1578. RY*(   7) C  86                  0.00044     2.10670   
  1579. RY*(   8) C  86                  0.00026     1.34498   
  1580. RY*(   9) C  86                  0.00023     1.76602   
  1581. RY*(  10) C  86                  0.00015     1.85019   
  1582. RY*(  11) C  86                  0.00010     1.03660   
  1583. RY*(  12) C  86                  0.00006     1.97124   
  1584. RY*(  13) C  86                  0.00006     2.24950   
  1585. RY*(  14) C  86                  0.00004     3.48008   
  1586. RY*(  15) C  86                  0.00002     3.45535   
  1587. RY*(  16) C  86                  0.00002     2.42481   
  1588. RY*(  17) C  86                  0.00000     3.26834   
  1589. RY*(  18) C  86                  0.00000     3.71235   
  1590. RY*(  19) C  86                  0.00000    20.66432   
  1591. RY*(  20) C  86                  0.00001     3.90301   
  1592. RY*(  21) C  86                  0.00001     3.71636   
  1593. RY*(  22) C  86                  0.00001     3.75062   
  1594. RY*(  23) C  86                  0.00001     3.41139   
  1595. RY*(  24) C  86                  0.00000     3.68405   
  1596. RY*(  25) C  86                  0.00000     3.63517   
  1597. RY*(  26) C  86                  0.00000     3.55071   
  1598. RY*(   1) H  87                  0.00049     0.72168   
  1599. RY*(   2) H  87                  0.00033     2.33839   
  1600. RY*(   3) H  87                  0.00025     2.31894   
  1601. RY*(   4) H  87                  0.00007     2.75478   
  1602. RY*(   5) H  87                  0.00001     3.14683   
  1698. BD*(   1) C  76 - H  77          0.01214     0.36513   
  1699. BD*(   1) C  76 - H  78          0.00350     0.37834   
  1700. BD*(   1) C  76 - H  79          0.01212     0.36476   
  1701. BD*(   1) C  76 - C  82          0.01399     0.39601   
  1702. BD*(   1) N  80 - H  81          0.01450     0.37433   
  1703. BD*(   1) N  80 - C  82          0.02720     0.43727   
  1704. BD*(   1) N  80 - C  83          0.02297     0.45596   
  1705. BD*(   1) C  82 - C  86          0.02127     0.57481   
  1706. BD*(   2) C  82 - C  86          0.30128     0.04339  1709(v),1698(v),1700(v)
                                                    1493(g),1578(g)
  1707. BD*(   1) C  83 - H  84          0.01841     0.40106   
  1708. BD*(   1) C  83 - N  85          0.01632     0.54868   
  1709. BD*(   2) C  83 - N  85          0.41289     0.00574  1706(v),1516(g),1546(g)
                                                    169(r),1603(r),1610(r)
                                                    168(r),181(r),1614(r)
                                                    1604(r),1605(r),171(r)
  1710. BD*(   1) N  85 - C  86          0.01648     0.49279   
  1711. BD*(   1) C  86 - H  87          0.01484     0.44096   
       -------------------------------
              Total Lewis   42.69859  ( 97.7384%)
        Valence non-Lewis    0.90791  (  2.0782%)
        Rydberg non-Lewis    0.08013  (  0.1834%)
       -------------------------------
            Total unit  3   43.68663  (100.0000%)
           Charge unit  3    0.31337
 Unable to Open any file for archive entry.
 1\1\GINC-BGN1037\SP\RAPFD\def2TZVP\C38H40Fe1N8\BECSLEIP\11-Oct-2024\0\
 \# apfd/def2TZVP int=(grid=ultrafine) geom=check guess=read pop=nbo sc
 f=qc\\5o17_II_S_nbo\\0,1\Fe,0,17.5807262805,55.4076793587,35.599286879
 2\N,0,17.2308023084,57.3792061009,35.4720972432\N,0,15.6993246782,55.0
 490608486,34.9945159619\N,0,17.9060812271,53.4405197025,35.762401347\N
 ,0,19.4296955887,55.7832153461,36.2386059579\C,0,18.0812081134,58.3813
 614023,35.8127761037\C,0,17.5015337499,59.6720382536,35.5086142613\C,0
 ,16.2712781676,59.4232557396,34.9866901889\C,0,16.1177338213,57.984260
 8055,34.9814174604\C,0,14.767560174,55.9680244611,34.6276277943\C,0,13
 .5154656493,55.331505007,34.3088438738\C,0,13.6935743328,53.9932331002
 ,34.5434084864\C,0,15.0710550394,53.8455282376,34.977389858\C,0,16.990
 4700965,52.4461288231,35.608695805\C,0,17.5830156976,51.1608802922,35.
 8732640571\C,0,18.9034306152,51.397118633,36.1610423243\C,0,19.0794065
 223,52.8340562058,36.0701756166\C,0,20.4073750899,54.8649355916,36.459
 1455036\C,0,21.6349139148,55.5149154344,36.8641846956\C,0,21.374300309
 2,56.8495411692,36.8746981577\C,0,19.9970490895,56.9965397021,36.45646
 5088\C,0,19.3585752112,58.2152161626,36.3177385931\H,0,19.9243799425,5
 9.1048073085,36.5507060401\C,0,14.9727131036,57.336870657,34.562395070
 6\H,0,14.1535721246,57.9494675456,34.217102238\C,0,15.6635785643,52.62
 85417004,35.2538404321\H,0,15.0455243965,51.7462675522,35.1854617104\C
 ,0,20.2597322894,53.4933694363,36.3692742246\H,0,21.131500736,52.89065
 38598,36.5764699382\C,0,15.2442105077,60.3828069376,34.4904239221\H,0,
 15.5978712699,61.4073117291,34.5777806453\H,0,14.320686655,60.28972291
 56,35.0628297716\H,0,15.0125678434,60.1879289885,33.4430076386\C,0,18.
 1838209305,60.97633177,35.7432220984\H,0,19.102701829,61.037851617,35.
 1591573087\H,0,18.4451669121,61.089519634,36.7953670268\H,0,17.5421385
 202,61.8066314836,35.4585905566\C,0,12.3068932812,56.0285142141,33.787
 3169112\H,0,12.5874160849,56.8250346378,33.0993315436\H,0,11.732234850
 1,56.4738005708,34.6017602674\H,0,11.6662026088,55.3235588318,33.26143
 99412\C,0,12.7565971522,52.9034153561,34.3878420711\H,0,13.1871709253,
 51.9529155592,34.0931524868\C,0,11.4435082223,52.9743936528,34.5840801
 716\H,0,10.9616095567,53.8744595096,34.9233312135\H,0,10.8050772071,52
 .1189615205,34.4353751967\C,0,16.849763628,49.8643362217,35.8870636008
 \H,0,16.7948819629,49.4365519184,34.8841504625\H,0,15.8323684472,49.99
 91440869,36.2511668587\H,0,17.3589550232,49.1526710512,36.53413752\C,0
 ,19.9499085843,50.4631532382,36.5089796539\H,0,20.7232368477,50.851344
 5742,37.1617170473\C,0,20.04350126,49.2034217361,36.0927642771\H,0,19.
 337681336,48.770128612,35.4066654053\H,0,20.8539023587,48.5664308768,3
 6.4076213774\C,0,22.8992284563,54.7970418047,37.1944916493\H,0,23.2271
 443152,54.1911105006,36.3495655906\H,0,22.7543188809,54.1340332411,38.
 0484384056\H,0,23.691497684,55.5003887916,37.4392325279\C,0,22.2739762
 331,57.9866056502,37.221876417\H,0,23.2530220147,57.6270032939,37.5295
 607958\H,0,21.8516273646,58.5727541682,38.0386624223\H,0,22.4058430421
 ,58.6484894014,36.3652262083\C,0,19.9919013036,56.5258106324,30.691762
 1971\H,0,20.4951591553,57.4150868991,31.0581455513\H,0,19.3426860465,5
 6.8085108275,29.862904858\H,0,20.7416510633,55.8299364779,30.315173958
 6\N,0,18.4660756693,54.7703420178,31.6204043773\H,0,18.3824987127,54.2
 465141114,30.7647735818\C,0,19.205825928,55.9113341745,31.7916383228\C
 ,0,17.8769621501,54.483637564,32.8035431485\H,0,17.2361721032,53.64186
 74027,32.9662651629\N,0,18.1981336766,55.3722075381,33.7112055779\C,0,
 19.024381738,56.2663090746,33.0974895283\H,0,19.4298015662,57.09884954
 25,33.6341498835\C,0,14.6866269909,56.1604926946,40.3303712621\H,0,14.
 2113906093,55.2821705844,40.7674141358\H,0,13.9235569779,56.7664177608
 ,39.8519105205\H,0,15.1389783448,56.7394425672,41.1356370228\N,0,16.79
 38003532,54.9920408923,39.6467827775\H,0,17.0084810096,54.6267099475,4
 0.560014121\C,0,15.7064608775,55.7630757963,39.3268225207\C,0,17.51286
 93899,54.8106029487,38.5159861177\H,0,18.420702762,54.245624024,38.466
 5366049\N,0,16.9483477801,55.4181616603,37.5023274063\C,0,15.824967641
 9,56.0163452408,37.9904589111\H,0,15.1822595211,56.5855430881,37.35161
 85496\\Version=ES64L-G16RevC.02\State=1-A\HF=-3173.083728\RMSD=1.310e-
 09\Dipole=0.2497769,0.2273058,0.0270201\Quadrupole=-10.2182759,-10.805
 3114,21.0235873,-0.0066927,-6.4520035,1.2011076\PG=C01 [X(C38H40Fe1N8)
 ]\\@
 The archive entry for this job was punched.


 WHEN YOU REACH FOR THE STARS, YOU MAY NOT QUITE GET ONE,
 BUT YOU WON'T COME UP WITH A HANDFUL OF MUD, EITHER.

                                         -- LEO BURNETT (AD AGENCY HEAD)
 Job cpu time:       0 days  1 hours  3 minutes  8.8 seconds.
 Elapsed time:       0 days  0 hours  1 minutes 14.7 seconds.
 File lengths (MBytes):  RWF=    987 Int=      0 D2E=      0 Chk=    233 Scr=      1
 Normal termination of Gaussian 16 at Fri Oct 11 20:51:25 2024.
