 Entering Gaussian System, Link 0=g16
 Input=5o1812.com
 Output=5o1812.log
 Initial command:
 /sw/chem/gaussian/g16_C02/a100/g16/l1.exe "/local/becsleip_8046648/Gau-424344.inp" -scrdir="/local/becsleip_8046648/"
 Entering Link 1 = /sw/chem/gaussian/g16_C02/a100/g16/l1.exe PID=    424345.
  
 Copyright (c) 1988-2021, Gaussian, Inc.  All Rights Reserved.
  
 This is part of the Gaussian(R) 16 program.  It is based on
 the Gaussian(R) 09 system (copyright 2009, Gaussian, Inc.),
 the Gaussian(R) 03 system (copyright 2003, Gaussian, Inc.),
 the Gaussian(R) 98 system (copyright 1998, Gaussian, Inc.),
 the Gaussian(R) 94 system (copyright 1995, Gaussian, Inc.),
 the Gaussian 92(TM) system (copyright 1992, Gaussian, Inc.),
 the Gaussian 90(TM) system (copyright 1990, Gaussian, Inc.),
 the Gaussian 88(TM) system (copyright 1988, Gaussian, Inc.),
 the Gaussian 86(TM) system (copyright 1986, Carnegie Mellon
 University), and the Gaussian 82(TM) system (copyright 1983,
 Carnegie Mellon University). Gaussian is a federally registered
 trademark of Gaussian, Inc.
  
 This software contains proprietary and confidential information,
 including trade secrets, belonging to Gaussian, Inc.
  
 This software is provided under written license and may be
 used, copied, transmitted, or stored only in accord with that
 written license.
  
 The following legend is applicable only to US Government
 contracts under FAR:
  
                    RESTRICTED RIGHTS LEGEND
  
 Use, reproduction and disclosure by the US Government is
 subject to restrictions as set forth in subparagraphs (a)
 and (c) of the Commercial Computer Software - Restricted
 Rights clause in FAR 52.227-19.
  
 Gaussian, Inc.
 340 Quinnipiac St., Bldg. 40, Wallingford CT 06492
  
  
 ---------------------------------------------------------------
 Warning -- This program may not be used in any manner that
 competes with the business of Gaussian, Inc. or will provide
 assistance to any competitor of Gaussian, Inc.  The licensee
 of this program is prohibited from giving any competitor of
 Gaussian, Inc. access to this program.  By using this program,
 the user acknowledges that Gaussian, Inc. is engaged in the
 business of creating and licensing software in the field of
 computational chemistry and represents and warrants to the
 licensee that it is not a competitor of Gaussian, Inc. and that
 it will not use this program in any manner prohibited above.
 ---------------------------------------------------------------
  

 Cite this work as:
 Gaussian 16, Revision C.02,
 M. J. Frisch, G. W. Trucks, H. B. Schlegel, G. E. Scuseria, 
 M. A. Robb, J. R. Cheeseman, G. Scalmani, V. Barone, 
 G. A. Petersson, H. Nakatsuji, X. Li, M. Caricato, A. V. Marenich, 
 J. Bloino, B. G. Janesko, R. Gomperts, B. Mennucci, H. P. Hratchian, 
 J. V. Ortiz, A. F. Izmaylov, J. L. Sonnenberg, D. Williams-Young, 
 F. Ding, F. Lipparini, F. Egidi, J. Goings, B. Peng, A. Petrone, 
 T. Henderson, D. Ranasinghe, V. G. Zakrzewski, J. Gao, N. Rega, 
 G. Zheng, W. Liang, M. Hada, M. Ehara, K. Toyota, R. Fukuda, 
 J. Hasegawa, M. Ishida, T. Nakajima, Y. Honda, O. Kitao, H. Nakai, 
 T. Vreven, K. Throssell, J. A. Montgomery, Jr., J. E. Peralta, 
 F. Ogliaro, M. J. Bearpark, J. J. Heyd, E. N. Brothers, K. N. Kudin, 
 V. N. Staroverov, T. A. Keith, R. Kobayashi, J. Normand, 
 K. Raghavachari, A. P. Rendell, J. C. Burant, S. S. Iyengar, 
 J. Tomasi, M. Cossi, J. M. Millam, M. Klene, C. Adamo, R. Cammi, 
 J. W. Ochterski, R. L. Martin, K. Morokuma, O. Farkas, 
 J. B. Foresman, and D. J. Fox, Gaussian, Inc., Wallingford CT, 2019.
 
 ******************************************
 Gaussian 16:  ES64L-G16RevC.02  7-Dec-2021
                15-Oct-2024 
 ******************************************
 %mem=16GB
 %CPU=0-71
 SetSPE:  set environment variable "OMP_PROC_BIND" = "true"
 SetSPE:  set environment variable "OMP_PLACES" = "{0},{1},{2},{3},{4},{5},{6},{7},{8},{9},{10},{11},{12},{13},{14},{15},{16},{17},{18},{19},{20},{21},{22},{23},{24},{25},{26},{27},{28},{29},{30},{31},{32},{33},{34},{35},{36},{37},{38},{39},{40},{41},{42},{43},{44},{45},{46},{47},{48},{49},{50},{51},{52},{53},{54},{55},{56},{57},{58},{59},{60},{61},{62},{63},{64},{65},{66},{67},{68},{69},{70},{71}"
 Will use up to   72 processors via shared memory.
 %gpucpu=0,1,2,3=0,1,2,3
 Will use    4 GPUs:
 Thread  CPU   GPU
      0    0     0
      1    1     1
      2    2     2
      3    3     3
      4    4    -1
      5    5    -1
      6    6    -1
      7    7    -1
      8    8    -1
      9    9    -1
     10   10    -1
     11   11    -1
     12   12    -1
     13   13    -1
     14   14    -1
     15   15    -1
     16   16    -1
     17   17    -1
     18   18    -1
     19   19    -1
     20   20    -1
     21   21    -1
     22   22    -1
     23   23    -1
     24   24    -1
     25   25    -1
     26   26    -1
     27   27    -1
     28   28    -1
     29   29    -1
     30   30    -1
     31   31    -1
     32   32    -1
     33   33    -1
     34   34    -1
     35   35    -1
     36   36    -1
     37   37    -1
     38   38    -1
     39   39    -1
     40   40    -1
     41   41    -1
     42   42    -1
     43   43    -1
     44   44    -1
     45   45    -1
     46   46    -1
     47   47    -1
     48   48    -1
     49   49    -1
     50   50    -1
     51   51    -1
     52   52    -1
     53   53    -1
     54   54    -1
     55   55    -1
     56   56    -1
     57   57    -1
     58   58    -1
     59   59    -1
     60   60    -1
     61   61    -1
     62   62    -1
     63   63    -1
     64   64    -1
     65   65    -1
     66   66    -1
     67   67    -1
     68   68    -1
     69   69    -1
     70   70    -1
     71   71    -1
 SetGPE:  set environment variable "OMP_PROC_BIND" = "true"
 SetGPE:  set environment variable "OMP_PLACES" = "{0},{1},{2},{3},{4},{5},{6},{7},{8},{9},{10},{11},{12},{13},{14},{15},{16},{17},{18},{19},{20},{21},{22},{23},{24},{25},{26},{27},{28},{29},{30},{31},{32},{33},{34},{35},{36},{37},{38},{39},{40},{41},{42},{43},{44},{45},{46},{47},{48},{49},{50},{51},{52},{53},{54},{55},{56},{57},{58},{59},{60},{61},{62},{63},{64},{65},{66},{67},{68},{69},{70},{71}"
 %oldchk=5o18_II_Sre.chk
 %chk=5o18_III_Dn.chk
 Properties for Device   0
 Minimum vector length:                              32
 Maximum vector length:                            1024
 Number of SMPs:                                    108
 Maximum number of threads per SMP:                2048
 Number of ASync Engines:                             5
 Memory:                                           9207742464
 Properties for Device   1
 Minimum vector length:                              32
 Maximum vector length:                            1024
 Number of SMPs:                                    108
 Maximum number of threads per SMP:                2048
 Number of ASync Engines:                             5
 Memory:                                           9207742464
 Properties for Device   2
 Minimum vector length:                              32
 Maximum vector length:                            1024
 Number of SMPs:                                    108
 Maximum number of threads per SMP:                2048
 Number of ASync Engines:                             5
 Memory:                                           9207742464
 Properties for Device   3
 Minimum vector length:                              32
 Maximum vector length:                            1024
 Number of SMPs:                                    108
 Maximum number of threads per SMP:                2048
 Number of ASync Engines:                             5
 Memory:                                           9207742464
   8286968217 words of memory will be used on each GPU.
 Copying data from "5o18_II_Sre.chk" to current chk file "5o18_III_Dn.chk"
 IOpt=  2 FromEx=T IUOpen= 4 IOptOp= 5 NList=   0 IFRang= 0 IUIn= 4 IUOut= 2.
 --------------------------------------------------------------
 # apfd/def2TZVP guess=read scf=maxcycle=999 geom=check pop=nbo
 --------------------------------------------------------------
 1/29=2,38=1,172=1/1;
 2/12=2,40=1/2;
 3/5=44,7=101,11=2,14=-4,25=1,30=1,74=-44,116=-2/1,2,3;
 4/5=1/1;
 5/5=2,7=999,38=6/2;
 6/7=2,8=2,9=2,10=2,28=1,40=1/1,7;
 99/5=1,9=1/99;
 ----------
 5o18_III_D
 ----------
 Structure from the checkpoint file:  "5o18_III_Dn.chk"
 Charge =  1 Multiplicity = 2
 Z-Matrix found in chk file.
 Fe,0,17.669973473,55.8128120566,36.1747594772
 N,0,17.3093505586,57.7723570894,36.1319085511
 N,0,15.7966448279,55.4499155546,35.5376769605
 N,0,18.0064220521,53.8324195243,36.2530337041
 N,0,19.5248110109,56.1420213657,36.821271947
 C,0,18.1585944354,58.7594153238,36.5136698086
 C,0,17.5970821923,60.0601919137,36.2164961369
 C,0,16.3859916495,59.8303651207,35.6428632993
 C,0,16.2114793101,58.3936804195,35.6283053552
 C,0,14.8727142856,56.3853311048,35.1912781245
 C,0,13.6351595722,55.7587490331,34.8074157822
 C,0,13.8102382342,54.4125259796,34.9850095873
 C,0,15.1740642822,54.2473681372,35.4496293567
 C,0,17.0929727292,52.8421990012,36.0589421172
 C,0,17.6746007123,51.5517241476,36.3227900273
 C,0,18.9898564839,51.7787659232,36.6381522456
 C,0,19.1685215214,53.2172699565,36.586153852
 C,0,20.5159350225,55.2289082201,36.9867809096
 C,0,21.7132424338,55.8629041085,37.494956537
 C,0,21.4375759866,57.1926923557,37.5697451501
 C,0,20.061934577,57.3461717372,37.1485102462
 C,0,19.4249375598,58.5692938415,37.0377473664
 H,0,19.9822180382,59.4481837873,37.325271032
 C,0,15.0746873585,57.7566633505,35.1731981413
 H,0,14.2621827536,58.3733066114,34.8187236112
 C,0,15.7723358958,53.0248304382,35.6843077102
 H,0,15.173445356,52.1418915383,35.5235103906
 C,0,20.3613306689,53.8592425816,36.8726098031
 H,0,21.2282577153,53.244193722,37.0627893005
 C,0,15.3823358692,60.8051744544,35.1284337526
 H,0,15.7517911379,61.8242324662,35.2153563144
 H,0,14.4501478187,60.7295556829,35.6894583232
 H,0,15.1610915019,60.6086042161,34.0791478509
 C,0,18.2812140321,61.3557562666,36.4923108762
 H,0,19.2154801997,61.4238480194,35.9335544426
 H,0,18.5156049037,61.4471128525,37.5531232045
 H,0,17.6508118912,62.1949792327,36.2077447956
 C,0,12.407203314,56.4800018039,34.3683034638
 H,0,12.6233724268,57.1269371364,33.5175569554
 H,0,12.0190773388,57.1038242055,35.174459912
 H,0,11.6309480742,55.7746023023,34.0820830594
 C,0,12.8201616324,53.3759381076,34.7725138798
 H,0,12.1911253048,53.5095480215,33.8980122736
 C,0,12.6032091292,52.3327873583,35.5652325069
 H,0,13.1590535067,52.182023852,36.4750086098
 H,0,11.8410858924,51.6038587907,35.3436212047
 C,0,16.9368673781,50.2579086238,36.3052554402
 H,0,16.8782122162,49.8546909391,35.2924957803
 H,0,15.9204473035,50.3886117081,36.6733083063
 H,0,17.4449044716,49.5296402057,36.9345417036
 C,0,20.0210133012,50.8329063915,36.9996326323
 H,0,20.7720630958,51.200829565,37.689621653
 C,0,20.1218153496,49.5839300516,36.5541279014
 H,0,19.4383179226,49.1746340783,35.8312805354
 H,0,20.9152537001,48.9322720525,36.8817861867
 C,0,22.979315465,55.1412053508,37.8096924712
 H,0,23.3338978097,54.5904666921,36.9382398696
 H,0,22.8237867942,54.426825146,38.6192195731
 H,0,23.7567429245,55.8376125439,38.1148452529
 C,0,22.3115617877,58.313924206,38.0192424408
 H,0,23.2890558101,57.9462005409,38.3218993245
 H,0,21.8640442452,58.8357126972,38.865471412
 H,0,22.452112445,59.0360892243,37.2143304421
 C,0,20.1464846076,57.1362732366,31.346902755
 H,0,20.6295803817,58.0190109598,31.7540802236
 H,0,19.5157605907,57.4375392139,30.5103824267
 H,0,20.9141601713,56.4609503997,30.9688081173
 N,0,18.6089114444,55.3421988194,32.1794585072
 H,0,18.5446486279,54.848990926,31.3041418834
 C,0,19.3400352671,56.4791487997,32.4066703132
 C,0,17.9987411821,55.0099374846,33.3398868547
 H,0,17.3587287449,54.1604470589,33.4603872904
 N,0,18.2985521738,55.8657542444,34.2851631854
 C,0,19.1318593143,56.7853405758,33.720787738
 H,0,19.5221625785,57.5989784917,34.2962263954
 C,0,14.7737355357,56.3768565267,40.9231025485
 H,0,14.317360495,55.4836801339,41.3498033158
 H,0,13.9966195655,56.977122935,40.4604183457
 H,0,15.2221511702,56.9509210431,41.7340850356
 N,0,16.8919317045,55.2507913407,40.203628803
 H,0,17.1159902898,54.8681877962,41.1074121928
 C,0,15.7934752151,56.0148681587,39.9060713333
 C,0,17.6118899172,55.1100662486,39.0674568472
 H,0,18.5263496033,54.5576060904,39.0014205626
 N,0,17.036986613,55.7365021559,38.0710928318
 C,0,15.9057326031,56.3048831898,38.5767161659
 H,0,15.2524655126,56.879305441,37.9534774459
 Recover connectivity data from disk.
 Stoichiometry    C38H40FeN8(1+,2)
 Framework group  C1[X(C38H40FeN8)]
 Deg. of freedom   255
 Full point group                 C1      NOp   1
 Largest Abelian subgroup         C1      NOp   1
 Largest concise Abelian subgroup C1      NOp   1
                         Standard orientation:                         
 ---------------------------------------------------------------------
 Center     Atomic      Atomic             Coordinates (Angstroms)
 Number     Number       Type             X           Y           Z
 ---------------------------------------------------------------------
      1         26           0        0.155008   -0.033742   -0.021540
      2          7           0        1.999214    0.702682    0.146646
      3          7           0       -0.563413    1.821817   -0.317685
      4          7           0       -1.715711   -0.758085   -0.151979
      5          7           0        0.836375   -1.879986    0.284892
      6          6           0        3.126448    0.003092    0.431529
      7          6           0        4.293384    0.854956    0.340887
      8          6           0        3.838913    2.087799   -0.008637
      9          6           0        2.398252    1.978546   -0.094019
     10          6           0        0.173394    2.960404   -0.414513
     11          6           0       -0.680826    4.103502   -0.601944
     12          6           0       -1.967577    3.637769   -0.558666
     13          6           0       -1.864562    2.203116   -0.373387
     14          6           0       -2.865364   -0.034938   -0.241171
     15          6           0       -4.017003   -0.897457   -0.186221
     16          6           0       -3.535418   -2.179288   -0.109510
     17          6           0       -2.089944   -2.060375   -0.089960
     18          6           0        0.141099   -3.042626    0.193492
     19          6           0        0.990238   -4.170461    0.510806
     20          6           0        2.232002   -3.661743    0.732507
     21          6           0        2.113717   -2.226683    0.591101
     22          6           0        3.183095   -1.354684    0.691651
     23          1           0        4.147711   -1.776139    0.931587
     24          6           0        1.556833    3.037080   -0.371019
     25          1           0        2.004949    4.008207   -0.519914
     26          6           0       -2.945376    1.343669   -0.345225
     27          1           0       -3.926645    1.778982   -0.453488
     28          6           0       -1.226655   -3.138051    0.011653
     29          1           0       -1.656660   -4.128314   -0.010517
     30          6           0        4.603407    3.344180   -0.252096
     31          1           0        5.673176    3.170455   -0.162953
     32          1           0        4.319797    4.112586    0.468015
     33          1           0        4.400139    3.727948   -1.252093
     34          6           0        5.691991    0.395156    0.575577
     35          1           0        5.968591   -0.377164   -0.143250
     36          1           0        5.794661   -0.024025    1.576753
     37          1           0        6.392898    1.220785    0.476856
     38          6           0       -0.212842    5.510865   -0.747626
     39          1           0        0.492219    5.599170   -1.574739
     40          1           0        0.291309    5.844035    0.160401
     41          1           0       -1.052721    6.176124   -0.932330
     42          6           0       -3.177702    4.429149   -0.654760
     43          1           0       -3.147389    5.233904   -1.382594
     44          6           0       -4.268591    4.276037    0.086963
     45          1           0       -4.331857    3.531184    0.861931
     46          1           0       -5.130705    4.910239   -0.038845
     47          6           0       -5.433365   -0.437431   -0.157720
     48          1           0       -5.806613   -0.257332   -1.167649
     49          1           0       -5.526110    0.490581    0.404283
     50          1           0       -6.062146   -1.192801    0.309752
     51          6           0       -4.260938   -3.425891   -0.018934
     52          1           0       -3.769581   -4.213305    0.541490
     53          6           0       -5.447373   -3.676905   -0.564773
     54          1           0       -5.964265   -2.955855   -1.173140
     55          1           0       -5.932773   -4.631184   -0.441073
     56          6           0        0.533716   -5.589672    0.527451
     57          1           0        0.096313   -5.863357   -0.432886
     58          1           0       -0.223526   -5.741111    1.297849
     59          1           0        1.364419   -6.261590    0.729822
     60          6           0        3.493336   -4.372497    1.088770
     61          1           0        3.324256   -5.443245    1.173776
     62          1           0        3.884181   -4.010164    2.039872
     63          1           0        4.254969   -4.206081    0.326286
     64          6           0        2.115961   -1.189955   -5.121608
     65          1           0        3.065198   -1.563320   -4.750195
     66          1           0        2.308680   -0.358521   -5.799780
     67          1           0        1.625267   -1.983137   -5.685899
     68          7           0        0.018289   -0.229040   -4.145698
     69          1           0       -0.448642   -0.088531   -5.026491
     70          6           0        1.272978   -0.755143   -3.978980
     71          6           0       -0.469951    0.060435   -2.918048
     72          1           0       -1.436160    0.485565   -2.740640
     73          7           0        0.397708   -0.249641   -1.986985
     74          6           0        1.486693   -0.758087   -2.630532
     75          1           0        2.343785   -1.089405   -2.081811
     76          6           0       -0.043130    1.908949    5.216760
     77          1           0       -1.024436    2.088066    5.656158
     78          1           0        0.399775    2.864516    4.954021
     79          1           0        0.583816    1.428129    5.967807
     80          7           0       -0.686465   -0.200729    4.030254
     81          1           0       -1.044385   -0.670912    4.845260
     82          6           0       -0.154664    1.062339    4.001825
     83          6           0       -0.639162   -0.692577    2.771335
     84          1           0       -0.989791   -1.665123    2.493805
     85          7           0       -0.111675    0.180495    1.949642
     86          6           0        0.195638    1.276528    2.699786
     87          1           0        0.643936    2.140199    2.254536
 ---------------------------------------------------------------------
 Rotational constants (GHZ):           0.0779567           0.0751068           0.0590237
 Standard basis: def2TZVP (5D, 7F)
 There are  1948 symmetry adapted cartesian basis functions of A   symmetry.
 There are  1711 symmetry adapted basis functions of A   symmetry.
  1711 basis functions,  2768 primitive gaussians,  1948 cartesian basis functions
   175 alpha electrons      174 beta electrons
       nuclear repulsion energy      7170.6174673353 Hartrees.
 NAtoms=   87 NActive=   87 NUniq=   87 SFac= 1.00D+00 NAtFMM=   60 NAOKFM=T Big=T
 Integral buffers will be    131072 words long.
 Raffenetti 2 integral format.
 Two-electron integral symmetry is turned on.
 R6APFD:  NTU= -4 IXU= 1 FactS= 1.050
 Nuclear repulsion after empirical dispersion term =     7170.4480245459 Hartrees.
 One-electron integrals computed using PRISM.
   1 Symmetry operations used in ECPInt.
 ECPInt:  NShTT=  232221 NPrTT=  716997 LenC2=  183347 LenP2D=  371711.
 LDataN:  DoStor=T MaxTD1= 6 Len=  172
 Number of processors reduced to  20 by ecpmxn.
 NBasis=  1711 RedAO= T EigKep=  3.47D-06  NBF=  1711
 NBsUse=  1711 1.00D-06 EigRej= -1.00D+00 NBFU=  1711
 Initial guess from the checkpoint file:  "5o18_III_Dn.chk"
 B after Tr=     0.000000    0.000000    0.000000
         Rot=    1.000000    0.000000    0.000000    0.000000 Ang=   0.00 deg.
 Initial guess <Sx>= 0.0000 <Sy>= 0.0000 <Sz>= 0.5000 <S**2>= 0.7900 S= 0.5198
 Requested convergence on RMS density matrix=1.00D-08 within 999 cycles.
 Requested convergence on MAX density matrix=1.00D-06.
 Requested convergence on             energy=1.00D-06.
 No special actions if energy rises.
 Restarting incremental Fock formation.
 Restarting incremental Fock formation.
 SCF Done:  E(UAPFD) =  -3172.90892845     A.U. after   47 cycles
            NFock= 47  Conv=0.17D-08     -V/T= 2.0036
 <Sx>= 0.0000 <Sy>= 0.0000 <Sz>= 0.5000 <S**2>= 0.7958 S= 0.5227
 <L.S>=  0.00000000000    
 Annihilation of the first spin contaminant:
 S**2 before annihilation     0.7958,   after     0.7507

 **********************************************************************

            Population analysis using the SCF Density.

 **********************************************************************

 Orbital symmetries:
 Alpha Orbitals:
       Occupied  (A) (A) (A) (A) (A) (A) (A) (A) (A) (A) (A) (A)
                 (A) (A) (A) (A) (A) (A) (A) (A) (A) (A) (A) (A)
                 (A) (A) (A) (A) (A) (A) (A) (A) (A) (A) (A) (A)
                 (A) (A) (A) (A) (A) (A) (A) (A) (A) (A) (A) (A)
                 (A) (A) (A) (A) (A) (A) (A) (A) (A) (A) (A) (A)
                 (A) (A) (A) (A) (A) (A) (A) (A) (A) (A) (A) (A)
                 (A) (A) (A) (A) (A) (A) (A) (A) (A) (A) (A) (A)
                 (A) (A) (A) (A) (A) (A) (A) (A) (A) (A) (A) (A)
                 (A) (A) (A) (A) (A) (A) (A) (A) (A) (A) (A) (A)
                 (A) (A) (A) (A) (A) (A) (A) (A) (A) (A) (A) (A)
                 (A) (A) (A) (A) (A) (A) (A) (A) (A) (A) (A) (A)
                 (A) (A) (A) (A) (A) (A) (A) (A) (A) (A) (A) (A)
                 (A) (A) (A) (A) (A) (A) (A) (A) (A) (A) (A) (A)
                 (A) (A) (A) (A) (A) (A) (A) (A) (A) (A) (A) (A)
                 (A) (A) (A) (A) (A) (A) (A)
       Virtual   (A) (A) (A) (A) (A) (A) (A) (A) (A) (A) (A) (A)
                 (A) (A) (A) (A) (A) (A) (A) (A) (A) (A) (A) (A)
                 (A) (A) (A) (A) (A) (A) (A) (A) (A) (A) (A) (A)
                 (A) (A) (A) (A) (A) (A) (A) (A) (A) (A) (A) (A)
                 (A) (A) (A) (A) (A) (A) (A) (A) (A) (A) (A) (A)
                 (A) (A) (A) (A) (A) (A) (A) (A) (A) (A) (A) (A)
                 (A) (A) (A) (A) (A) (A) (A) (A) (A) (A) (A) (A)
                 (A) (A) (A) (A) (A) (A) (A) (A) (A) (A) (A) (A)
                 (A) (A) (A) (A) (A) (A) (A) (A) (A) (A) (A) (A)
                 (A) (A) (A) (A) (A) (A) (A) (A) (A) (A) (A) (A)
                 (A) (A) (A) (A) (A) (A) (A) (A) (A) (A) (A) (A)
                 (A) (A) (A) (A) (A) (A) (A) (A) (A) (A) (A) (A)
                 (A) (A) (A) (A) (A) (A) (A) (A) (A) (A) (A) (A)
                 (A) (A) (A) (A) (A) (A) (A) (A) (A) (A) (A) (A)
                 (A) (A) (A) (A) (A) (A) (A) (A) (A) (A) (A) (A)
                 (A) (A) (A) (A) (A) (A) (A) (A) (A) (A) (A) (A)
                 (A) (A) (A) (A) (A) (A) (A) (A) (A) (A) (A) (A)
                 (A) (A) (A) (A) (A) (A) (A) (A) (A) (A) (A) (A)
                 (A) (A) (A) (A) (A) (A) (A) (A) (A) (A) (A) (A)
                 (A) (A) (A) (A) (A) (A) (A) (A) (A) (A) (A) (A)
                 (A) (A) (A) (A) (A) (A) (A) (A) (A) (A) (A) (A)
                 (A) (A) (A) (A) (A) (A) (A) (A) (A) (A) (A) (A)
                 (A) (A) (A) (A) (A) (A) (A) (A) (A) (A) (A) (A)
                 (A) (A) (A) (A) (A) (A) (A) (A) (A) (A) (A) (A)
                 (A) (A) (A) (A) (A) (A) (A) (A) (A) (A) (A) (A)
                 (A) (A) (A) (A) (A) (A) (A) (A) (A) (A) (A) (A)
                 (A) (A) (A) (A) (A) (A) (A) (A) (A) (A) (A) (A)
                 (A) (A) (A) (A) (A) (A) (A) (A) (A) (A) (A) (A)
                 (A) (A) (A) (A) (A) (A) (A) (A) (A) (A) (A) (A)
                 (A) (A) (A) (A) (A) (A) (A) (A) (A) (A) (A) (A)
                 (A) (A) (A) (A) (A) (A) (A) (A) (A) (A) (A) (A)
                 (A) (A) (A) (A) (A) (A) (A) (A) (A) (A) (A) (A)
                 (A) (A) (A) (A) (A) (A) (A) (A) (A) (A) (A) (A)
                 (A) (A) (A) (A) (A) (A) (A) (A) (A) (A) (A) (A)
                 (A) (A) (A) (A) (A) (A) (A) (A) (A) (A) (A) (A)
                 (A) (A) (A) (A) (A) (A) (A) (A) (A) (A) (A) (A)
                 (A) (A) (A) (A) (A) (A) (A) (A) (A) (A) (A) (A)
                 (A) (A) (A) (A) (A) (A) (A) (A) (A) (A) (A) (A)
                 (A) (A) (A) (A) (A) (A) (A) (A) (A) (A) (A) (A)
                 (A) (A) (A) (A) (A) (A) (A) (A) (A) (A) (A) (A)
                 (A) (A) (A) (A) (A) (A) (A) (A) (A) (A) (A) (A)
                 (A) (A) (A) (A) (A) (A) (A) (A) (A) (A) (A) (A)
                 (A) (A) (A) (A) (A) (A) (A) (A) (A) (A) (A) (A)
                 (A) (A) (A) (A) (A) (A) (A) (A) (A) (A) (A) (A)
                 (A) (A) (A) (A) (A) (A) (A) (A) (A) (A) (A) (A)
                 (A) (A) (A) (A) (A) (A) (A) (A) (A) (A) (A) (A)
                 (A) (A) (A) (A) (A) (A) (A) (A) (A) (A) (A) (A)
                 (A) (A) (A) (A) (A) (A) (A) (A) (A) (A) (A) (A)
                 (A) (A) (A) (A) (A) (A) (A) (A) (A) (A) (A) (A)
                 (A) (A) (A) (A) (A) (A) (A) (A) (A) (A) (A) (A)
                 (A) (A) (A) (A) (A) (A) (A) (A) (A) (A) (A) (A)
                 (A) (A) (A) (A) (A) (A) (A) (A) (A) (A) (A) (A)
                 (A) (A) (A) (A) (A) (A) (A) (A) (A) (A) (A) (A)
                 (A) (A) (A) (A) (A) (A) (A) (A) (A) (A) (A) (A)
                 (A) (A) (A) (A) (A) (A) (A) (A) (A) (A) (A) (A)
                 (A) (A) (A) (A) (A) (A) (A) (A) (A) (A) (A) (A)
                 (A) (A) (A) (A) (A) (A) (A) (A) (A) (A) (A) (A)
                 (A) (A) (A) (A) (A) (A) (A) (A) (A) (A) (A) (A)
                 (A) (A) (A) (A) (A) (A) (A) (A) (A) (A) (A) (A)
                 (A) (A) (A) (A) (A) (A) (A) (A) (A) (A) (A) (A)
                 (A) (A) (A) (A) (A) (A) (A) (A) (A) (A) (A) (A)
                 (A) (A) (A) (A) (A) (A) (A) (A) (A) (A) (A) (A)
                 (A) (A) (A) (A) (A) (A) (A) (A) (A) (A) (A) (A)
                 (A) (A) (A) (A) (A) (A) (A) (A) (A) (A) (A) (A)
                 (A) (A) (A) (A) (A) (A) (A) (A) (A) (A) (A) (A)
                 (A) (A) (A) (A) (A) (A) (A) (A) (A) (A) (A) (A)
                 (A) (A) (A) (A) (A) (A) (A) (A) (A) (A) (A) (A)
                 (A) (A) (A) (A) (A) (A) (A) (A) (A) (A) (A) (A)
                 (A) (A) (A) (A) (A) (A) (A) (A) (A) (A) (A) (A)
                 (A) (A) (A) (A) (A) (A) (A) (A) (A) (A) (A) (A)
                 (A) (A) (A) (A) (A) (A) (A) (A) (A) (A) (A) (A)
                 (A) (A) (A) (A) (A) (A) (A) (A) (A) (A) (A) (A)
                 (A) (A) (A) (A) (A) (A) (A) (A) (A) (A) (A) (A)
                 (A) (A) (A) (A) (A) (A) (A) (A) (A) (A) (A) (A)
                 (A) (A) (A) (A) (A) (A) (A) (A) (A) (A) (A) (A)
                 (A) (A) (A) (A) (A) (A) (A) (A) (A) (A) (A) (A)
                 (A) (A) (A) (A) (A) (A) (A) (A) (A) (A) (A) (A)
                 (A) (A) (A) (A) (A) (A) (A) (A) (A) (A) (A) (A)
                 (A) (A) (A) (A) (A) (A) (A) (A) (A) (A) (A) (A)
                 (A) (A) (A) (A) (A) (A) (A) (A) (A) (A) (A) (A)
                 (A) (A) (A) (A) (A) (A) (A) (A) (A) (A) (A) (A)
                 (A) (A) (A) (A) (A) (A) (A) (A) (A) (A) (A) (A)
                 (A) (A) (A) (A) (A) (A) (A) (A) (A) (A) (A) (A)
                 (A) (A) (A) (A) (A) (A) (A) (A) (A) (A) (A) (A)
                 (A) (A) (A) (A) (A) (A) (A) (A) (A) (A) (A) (A)
                 (A) (A) (A) (A) (A) (A) (A) (A) (A) (A) (A) (A)
                 (A) (A) (A) (A) (A) (A) (A) (A) (A) (A) (A) (A)
                 (A) (A) (A) (A) (A) (A) (A) (A) (A) (A) (A) (A)
                 (A) (A) (A) (A) (A) (A) (A) (A) (A) (A) (A) (A)
                 (A) (A) (A) (A) (A) (A) (A) (A) (A) (A) (A) (A)
                 (A) (A) (A) (A) (A) (A) (A) (A) (A) (A) (A) (A)
                 (A) (A) (A) (A) (A) (A) (A) (A) (A) (A) (A) (A)
                 (A) (A) (A) (A) (A) (A) (A) (A) (A) (A) (A) (A)
                 (A) (A) (A) (A) (A) (A) (A) (A) (A) (A) (A) (A)
                 (A) (A) (A) (A) (A) (A) (A) (A) (A) (A) (A) (A)
                 (A) (A) (A) (A) (A) (A) (A) (A) (A) (A) (A) (A)
                 (A) (A) (A) (A) (A) (A) (A) (A) (A) (A) (A) (A)
                 (A) (A) (A) (A) (A) (A) (A) (A) (A) (A) (A) (A)
                 (A) (A) (A) (A) (A) (A) (A) (A) (A) (A) (A) (A)
                 (A) (A) (A) (A) (A) (A) (A) (A) (A) (A) (A) (A)
                 (A) (A) (A) (A) (A) (A) (A) (A) (A) (A) (A) (A)
                 (A) (A) (A) (A) (A) (A) (A) (A) (A) (A) (A) (A)
                 (A) (A) (A) (A) (A) (A) (A) (A) (A) (A) (A) (A)
                 (A) (A) (A) (A) (A) (A) (A) (A) (A) (A) (A) (A)
                 (A) (A) (A) (A) (A) (A) (A) (A) (A) (A) (A) (A)
                 (A) (A) (A) (A) (A) (A) (A) (A) (A) (A) (A) (A)
                 (A) (A) (A) (A) (A) (A) (A) (A) (A) (A) (A) (A)
                 (A) (A) (A) (A) (A) (A) (A) (A) (A) (A) (A) (A)
                 (A) (A) (A) (A) (A) (A) (A) (A) (A) (A) (A) (A)
                 (A) (A) (A) (A) (A) (A) (A) (A) (A) (A) (A) (A)
                 (A) (A) (A) (A) (A) (A) (A) (A) (A) (A) (A) (A)
                 (A) (A) (A) (A) (A) (A) (A) (A) (A) (A) (A) (A)
                 (A) (A) (A) (A) (A) (A) (A) (A) (A) (A) (A) (A)
                 (A) (A) (A) (A) (A) (A) (A) (A) (A) (A) (A) (A)
                 (A) (A) (A) (A) (A) (A) (A) (A) (A) (A) (A) (A)
                 (A) (A) (A) (A) (A) (A) (A) (A) (A) (A) (A) (A)
                 (A) (A) (A) (A) (A) (A) (A) (A) (A) (A) (A) (A)
                 (A) (A) (A) (A) (A) (A) (A) (A) (A) (A) (A) (A)
                 (A) (A) (A) (A) (A) (A) (A) (A) (A) (A) (A) (A)
                 (A) (A) (A) (A) (A) (A) (A) (A) (A) (A) (A) (A)
                 (A) (A) (A) (A) (A) (A) (A) (A) (A) (A) (A) (A)
                 (A) (A) (A) (A) (A) (A) (A) (A) (A) (A) (A) (A)
                 (A) (A) (A) (A) (A) (A) (A) (A) (A) (A) (A) (A)
                 (A) (A) (A) (A) (A) (A) (A) (A) (A) (A) (A) (A)
                 (A) (A) (A) (A) (A) (A) (A) (A) (A) (A) (A) (A)
                 (A) (A) (A) (A) (A) (A) (A) (A) (A) (A) (A) (A)
                 (A) (A) (A) (A) (A) (A) (A) (A) (A) (A) (A) (A)
                 (A) (A) (A) (A) (A) (A) (A) (A) (A) (A) (A) (A)
 Beta  Orbitals:
       Occupied  (A) (A) (A) (A) (A) (A) (A) (A) (A) (A) (A) (A)
                 (A) (A) (A) (A) (A) (A) (A) (A) (A) (A) (A) (A)
                 (A) (A) (A) (A) (A) (A) (A) (A) (A) (A) (A) (A)
                 (A) (A) (A) (A) (A) (A) (A) (A) (A) (A) (A) (A)
                 (A) (A) (A) (A) (A) (A) (A) (A) (A) (A) (A) (A)
                 (A) (A) (A) (A) (A) (A) (A) (A) (A) (A) (A) (A)
                 (A) (A) (A) (A) (A) (A) (A) (A) (A) (A) (A) (A)
                 (A) (A) (A) (A) (A) (A) (A) (A) (A) (A) (A) (A)
                 (A) (A) (A) (A) (A) (A) (A) (A) (A) (A) (A) (A)
                 (A) (A) (A) (A) (A) (A) (A) (A) (A) (A) (A) (A)
                 (A) (A) (A) (A) (A) (A) (A) (A) (A) (A) (A) (A)
                 (A) (A) (A) (A) (A) (A) (A) (A) (A) (A) (A) (A)
                 (A) (A) (A) (A) (A) (A) (A) (A) (A) (A) (A) (A)
                 (A) (A) (A) (A) (A) (A) (A) (A) (A) (A) (A) (A)
                 (A) (A) (A) (A) (A) (A)
       Virtual   (A) (A) (A) (A) (A) (A) (A) (A) (A) (A) (A) (A)
                 (A) (A) (A) (A) (A) (A) (A) (A) (A) (A) (A) (A)
                 (A) (A) (A) (A) (A) (A) (A) (A) (A) (A) (A) (A)
                 (A) (A) (A) (A) (A) (A) (A) (A) (A) (A) (A) (A)
                 (A) (A) (A) (A) (A) (A) (A) (A) (A) (A) (A) (A)
                 (A) (A) (A) (A) (A) (A) (A) (A) (A) (A) (A) (A)
                 (A) (A) (A) (A) (A) (A) (A) (A) (A) (A) (A) (A)
                 (A) (A) (A) (A) (A) (A) (A) (A) (A) (A) (A) (A)
                 (A) (A) (A) (A) (A) (A) (A) (A) (A) (A) (A) (A)
                 (A) (A) (A) (A) (A) (A) (A) (A) (A) (A) (A) (A)
                 (A) (A) (A) (A) (A) (A) (A) (A) (A) (A) (A) (A)
                 (A) (A) (A) (A) (A) (A) (A) (A) (A) (A) (A) (A)
                 (A) (A) (A) (A) (A) (A) (A) (A) (A) (A) (A) (A)
                 (A) (A) (A) (A) (A) (A) (A) (A) (A) (A) (A) (A)
                 (A) (A) (A) (A) (A) (A) (A) (A) (A) (A) (A) (A)
                 (A) (A) (A) (A) (A) (A) (A) (A) (A) (A) (A) (A)
                 (A) (A) (A) (A) (A) (A) (A) (A) (A) (A) (A) (A)
                 (A) (A) (A) (A) (A) (A) (A) (A) (A) (A) (A) (A)
                 (A) (A) (A) (A) (A) (A) (A) (A) (A) (A) (A) (A)
                 (A) (A) (A) (A) (A) (A) (A) (A) (A) (A) (A) (A)
                 (A) (A) (A) (A) (A) (A) (A) (A) (A) (A) (A) (A)
                 (A) (A) (A) (A) (A) (A) (A) (A) (A) (A) (A) (A)
                 (A) (A) (A) (A) (A) (A) (A) (A) (A) (A) (A) (A)
                 (A) (A) (A) (A) (A) (A) (A) (A) (A) (A) (A) (A)
                 (A) (A) (A) (A) (A) (A) (A) (A) (A) (A) (A) (A)
                 (A) (A) (A) (A) (A) (A) (A) (A) (A) (A) (A) (A)
                 (A) (A) (A) (A) (A) (A) (A) (A) (A) (A) (A) (A)
                 (A) (A) (A) (A) (A) (A) (A) (A) (A) (A) (A) (A)
                 (A) (A) (A) (A) (A) (A) (A) (A) (A) (A) (A) (A)
                 (A) (A) (A) (A) (A) (A) (A) (A) (A) (A) (A) (A)
                 (A) (A) (A) (A) (A) (A) (A) (A) (A) (A) (A) (A)
                 (A) (A) (A) (A) (A) (A) (A) (A) (A) (A) (A) (A)
                 (A) (A) (A) (A) (A) (A) (A) (A) (A) (A) (A) (A)
                 (A) (A) (A) (A) (A) (A) (A) (A) (A) (A) (A) (A)
                 (A) (A) (A) (A) (A) (A) (A) (A) (A) (A) (A) (A)
                 (A) (A) (A) (A) (A) (A) (A) (A) (A) (A) (A) (A)
                 (A) (A) (A) (A) (A) (A) (A) (A) (A) (A) (A) (A)
                 (A) (A) (A) (A) (A) (A) (A) (A) (A) (A) (A) (A)
                 (A) (A) (A) (A) (A) (A) (A) (A) (A) (A) (A) (A)
                 (A) (A) (A) (A) (A) (A) (A) (A) (A) (A) (A) (A)
                 (A) (A) (A) (A) (A) (A) (A) (A) (A) (A) (A) (A)
                 (A) (A) (A) (A) (A) (A) (A) (A) (A) (A) (A) (A)
                 (A) (A) (A) (A) (A) (A) (A) (A) (A) (A) (A) (A)
                 (A) (A) (A) (A) (A) (A) (A) (A) (A) (A) (A) (A)
                 (A) (A) (A) (A) (A) (A) (A) (A) (A) (A) (A) (A)
                 (A) (A) (A) (A) (A) (A) (A) (A) (A) (A) (A) (A)
                 (A) (A) (A) (A) (A) (A) (A) (A) (A) (A) (A) (A)
                 (A) (A) (A) (A) (A) (A) (A) (A) (A) (A) (A) (A)
                 (A) (A) (A) (A) (A) (A) (A) (A) (A) (A) (A) (A)
                 (A) (A) (A) (A) (A) (A) (A) (A) (A) (A) (A) (A)
                 (A) (A) (A) (A) (A) (A) (A) (A) (A) (A) (A) (A)
                 (A) (A) (A) (A) (A) (A) (A) (A) (A) (A) (A) (A)
                 (A) (A) (A) (A) (A) (A) (A) (A) (A) (A) (A) (A)
                 (A) (A) (A) (A) (A) (A) (A) (A) (A) (A) (A) (A)
                 (A) (A) (A) (A) (A) (A) (A) (A) (A) (A) (A) (A)
                 (A) (A) (A) (A) (A) (A) (A) (A) (A) (A) (A) (A)
                 (A) (A) (A) (A) (A) (A) (A) (A) (A) (A) (A) (A)
                 (A) (A) (A) (A) (A) (A) (A) (A) (A) (A) (A) (A)
                 (A) (A) (A) (A) (A) (A) (A) (A) (A) (A) (A) (A)
                 (A) (A) (A) (A) (A) (A) (A) (A) (A) (A) (A) (A)
                 (A) (A) (A) (A) (A) (A) (A) (A) (A) (A) (A) (A)
                 (A) (A) (A) (A) (A) (A) (A) (A) (A) (A) (A) (A)
                 (A) (A) (A) (A) (A) (A) (A) (A) (A) (A) (A) (A)
                 (A) (A) (A) (A) (A) (A) (A) (A) (A) (A) (A) (A)
                 (A) (A) (A) (A) (A) (A) (A) (A) (A) (A) (A) (A)
                 (A) (A) (A) (A) (A) (A) (A) (A) (A) (A) (A) (A)
                 (A) (A) (A) (A) (A) (A) (A) (A) (A) (A) (A) (A)
                 (A) (A) (A) (A) (A) (A) (A) (A) (A) (A) (A) (A)
                 (A) (A) (A) (A) (A) (A) (A) (A) (A) (A) (A) (A)
                 (A) (A) (A) (A) (A) (A) (A) (A) (A) (A) (A) (A)
                 (A) (A) (A) (A) (A) (A) (A) (A) (A) (A) (A) (A)
                 (A) (A) (A) (A) (A) (A) (A) (A) (A) (A) (A) (A)
                 (A) (A) (A) (A) (A) (A) (A) (A) (A) (A) (A) (A)
                 (A) (A) (A) (A) (A) (A) (A) (A) (A) (A) (A) (A)
                 (A) (A) (A) (A) (A) (A) (A) (A) (A) (A) (A) (A)
                 (A) (A) (A) (A) (A) (A) (A) (A) (A) (A) (A) (A)
                 (A) (A) (A) (A) (A) (A) (A) (A) (A) (A) (A) (A)
                 (A) (A) (A) (A) (A) (A) (A) (A) (A) (A) (A) (A)
                 (A) (A) (A) (A) (A) (A) (A) (A) (A) (A) (A) (A)
                 (A) (A) (A) (A) (A) (A) (A) (A) (A) (A) (A) (A)
                 (A) (A) (A) (A) (A) (A) (A) (A) (A) (A) (A) (A)
                 (A) (A) (A) (A) (A) (A) (A) (A) (A) (A) (A) (A)
                 (A) (A) (A) (A) (A) (A) (A) (A) (A) (A) (A) (A)
                 (A) (A) (A) (A) (A) (A) (A) (A) (A) (A) (A) (A)
                 (A) (A) (A) (A) (A) (A) (A) (A) (A) (A) (A) (A)
                 (A) (A) (A) (A) (A) (A) (A) (A) (A) (A) (A) (A)
                 (A) (A) (A) (A) (A) (A) (A) (A) (A) (A) (A) (A)
                 (A) (A) (A) (A) (A) (A) (A) (A) (A) (A) (A) (A)
                 (A) (A) (A) (A) (A) (A) (A) (A) (A) (A) (A) (A)
                 (A) (A) (A) (A) (A) (A) (A) (A) (A) (A) (A) (A)
                 (A) (A) (A) (A) (A) (A) (A) (A) (A) (A) (A) (A)
                 (A) (A) (A) (A) (A) (A) (A) (A) (A) (A) (A) (A)
                 (A) (A) (A) (A) (A) (A) (A) (A) (A) (A) (A) (A)
                 (A) (A) (A) (A) (A) (A) (A) (A) (A) (A) (A) (A)
                 (A) (A) (A) (A) (A) (A) (A) (A) (A) (A) (A) (A)
                 (A) (A) (A) (A) (A) (A) (A) (A) (A) (A) (A) (A)
                 (A) (A) (A) (A) (A) (A) (A) (A) (A) (A) (A) (A)
                 (A) (A) (A) (A) (A) (A) (A) (A) (A) (A) (A) (A)
                 (A) (A) (A) (A) (A) (A) (A) (A) (A) (A) (A) (A)
                 (A) (A) (A) (A) (A) (A) (A) (A) (A) (A) (A) (A)
                 (A) (A) (A) (A) (A) (A) (A) (A) (A) (A) (A) (A)
                 (A) (A) (A) (A) (A) (A) (A) (A) (A) (A) (A) (A)
                 (A) (A) (A) (A) (A) (A) (A) (A) (A) (A) (A) (A)
                 (A) (A) (A) (A) (A) (A) (A) (A) (A) (A) (A) (A)
                 (A) (A) (A) (A) (A) (A) (A) (A) (A) (A) (A) (A)
                 (A) (A) (A) (A) (A) (A) (A) (A) (A) (A) (A) (A)
                 (A) (A) (A) (A) (A) (A) (A) (A) (A) (A) (A) (A)
                 (A) (A) (A) (A) (A) (A) (A) (A) (A) (A) (A) (A)
                 (A) (A) (A) (A) (A) (A) (A) (A) (A) (A) (A) (A)
                 (A) (A) (A) (A) (A) (A) (A) (A) (A) (A) (A) (A)
                 (A) (A) (A) (A) (A) (A) (A) (A) (A) (A) (A) (A)
                 (A) (A) (A) (A) (A) (A) (A) (A) (A) (A) (A) (A)
                 (A) (A) (A) (A) (A) (A) (A) (A) (A) (A) (A) (A)
                 (A) (A) (A) (A) (A) (A) (A) (A) (A) (A) (A) (A)
                 (A) (A) (A) (A) (A) (A) (A) (A) (A) (A) (A) (A)
                 (A) (A) (A) (A) (A) (A) (A) (A) (A) (A) (A) (A)
                 (A) (A) (A) (A) (A) (A) (A) (A) (A) (A) (A) (A)
                 (A) (A) (A) (A) (A) (A) (A) (A) (A) (A) (A) (A)
                 (A) (A) (A) (A) (A) (A) (A) (A) (A) (A) (A) (A)
                 (A) (A) (A) (A) (A) (A) (A) (A) (A) (A) (A) (A)
                 (A) (A) (A) (A) (A) (A) (A) (A) (A) (A) (A) (A)
                 (A) (A) (A) (A) (A) (A) (A) (A) (A) (A) (A) (A)
                 (A) (A) (A) (A) (A) (A) (A) (A) (A) (A) (A) (A)
                 (A) (A) (A) (A) (A) (A) (A) (A) (A) (A) (A) (A)
                 (A) (A) (A) (A) (A) (A) (A) (A) (A) (A) (A) (A)
                 (A) (A) (A) (A) (A) (A) (A) (A) (A) (A) (A) (A)
                 (A) (A) (A) (A) (A) (A) (A) (A) (A) (A) (A) (A)
                 (A) (A) (A) (A) (A) (A) (A) (A) (A) (A) (A) (A)
                 (A)
 The electronic state is 2-A.
 Alpha  occ. eigenvalues -- -256.36820 -30.23756 -26.08307 -26.07753 -26.06066
 Alpha  occ. eigenvalues --  -14.51955 -14.51582 -14.47763 -14.47509 -14.44704
 Alpha  occ. eigenvalues --  -14.44683 -14.44599 -14.44561 -10.36425 -10.36017
 Alpha  occ. eigenvalues --  -10.33767 -10.33488 -10.31892 -10.31816 -10.31710
 Alpha  occ. eigenvalues --  -10.31704 -10.31616 -10.31588 -10.31549 -10.31516
 Alpha  occ. eigenvalues --  -10.31182 -10.30969 -10.29508 -10.29314 -10.28957
 Alpha  occ. eigenvalues --  -10.28953 -10.28799 -10.28759 -10.28726 -10.28677
 Alpha  occ. eigenvalues --  -10.28673 -10.28663 -10.28645 -10.28634 -10.28619
 Alpha  occ. eigenvalues --  -10.28603 -10.28357 -10.28264 -10.27347 -10.27317
 Alpha  occ. eigenvalues --  -10.27291 -10.27290 -10.27261 -10.27080 -10.26922
 Alpha  occ. eigenvalues --  -10.26913  -3.62140  -2.40144  -2.39009  -2.35455
 Alpha  occ. eigenvalues --   -1.15879  -1.15555  -1.07960  -1.06953  -1.06929
 Alpha  occ. eigenvalues --   -1.05965  -1.01657  -1.01348  -0.92637  -0.91462
 Alpha  occ. eigenvalues --   -0.91192  -0.90571  -0.90259  -0.89895  -0.89841
 Alpha  occ. eigenvalues --   -0.89806  -0.89602  -0.86238  -0.85016  -0.84321
 Alpha  occ. eigenvalues --   -0.83638  -0.82268  -0.81434  -0.81206  -0.80321
 Alpha  occ. eigenvalues --   -0.79429  -0.77833  -0.77609  -0.77389  -0.74972
 Alpha  occ. eigenvalues --   -0.74646  -0.74449  -0.74236  -0.71535  -0.71264
 Alpha  occ. eigenvalues --   -0.70066  -0.69739  -0.67734  -0.67307  -0.66097
 Alpha  occ. eigenvalues --   -0.65891  -0.64325  -0.63956  -0.63348  -0.62138
 Alpha  occ. eigenvalues --   -0.61169  -0.60868  -0.60326  -0.58347  -0.58174
 Alpha  occ. eigenvalues --   -0.57870  -0.57747  -0.57590  -0.57314  -0.57051
 Alpha  occ. eigenvalues --   -0.55479  -0.54712  -0.54460  -0.54152  -0.54085
 Alpha  occ. eigenvalues --   -0.53256  -0.53060  -0.52992  -0.52881  -0.52662
 Alpha  occ. eigenvalues --   -0.52549  -0.52511  -0.52406  -0.52033  -0.51833
 Alpha  occ. eigenvalues --   -0.51503  -0.51304  -0.51037  -0.50526  -0.50459
 Alpha  occ. eigenvalues --   -0.50109  -0.49971  -0.49739  -0.49578  -0.49455
 Alpha  occ. eigenvalues --   -0.49298  -0.49225  -0.48906  -0.48780  -0.48538
 Alpha  occ. eigenvalues --   -0.48084  -0.47755  -0.47548  -0.47324  -0.47110
 Alpha  occ. eigenvalues --   -0.46874  -0.46513  -0.46184  -0.45392  -0.45135
 Alpha  occ. eigenvalues --   -0.44990  -0.44656  -0.44189  -0.43587  -0.43203
 Alpha  occ. eigenvalues --   -0.42887  -0.42425  -0.41856  -0.41630  -0.40375
 Alpha  occ. eigenvalues --   -0.39883  -0.39250  -0.38634  -0.38215  -0.38175
 Alpha  occ. eigenvalues --   -0.36730  -0.36518  -0.34098  -0.33828  -0.32823
 Alpha  occ. eigenvalues --   -0.32585  -0.31583  -0.31453  -0.28835  -0.28161
 Alpha virt. eigenvalues --   -0.17038  -0.16857  -0.14680  -0.13184  -0.11416
 Alpha virt. eigenvalues --   -0.08947  -0.08572  -0.08416  -0.07261  -0.06224
 Alpha virt. eigenvalues --   -0.05242  -0.05118  -0.04813  -0.04574  -0.04016
 Alpha virt. eigenvalues --   -0.03469  -0.02917  -0.02599  -0.01780  -0.01648
 Alpha virt. eigenvalues --   -0.01517  -0.01373  -0.00712  -0.00414  -0.00049
 Alpha virt. eigenvalues --    0.00449   0.00695   0.00783   0.01191   0.01408
 Alpha virt. eigenvalues --    0.01670   0.01836   0.02372   0.02420   0.02625
 Alpha virt. eigenvalues --    0.03111   0.03290   0.03460   0.03777   0.03894
 Alpha virt. eigenvalues --    0.04058   0.04355   0.04421   0.04620   0.04674
 Alpha virt. eigenvalues --    0.04818   0.05001   0.05032   0.05168   0.05754
 Alpha virt. eigenvalues --    0.05926   0.06214   0.06313   0.06570   0.06748
 Alpha virt. eigenvalues --    0.06969   0.07310   0.07495   0.07675   0.07788
 Alpha virt. eigenvalues --    0.08005   0.08183   0.08348   0.08578   0.08716
 Alpha virt. eigenvalues --    0.08761   0.09133   0.09293   0.09360   0.09798
 Alpha virt. eigenvalues --    0.10207   0.10461   0.10829   0.11027   0.11106
 Alpha virt. eigenvalues --    0.11172   0.11429   0.11709   0.11935   0.12185
 Alpha virt. eigenvalues --    0.12406   0.12671   0.12970   0.13111   0.13475
 Alpha virt. eigenvalues --    0.13643   0.13850   0.14307   0.14476   0.14723
 Alpha virt. eigenvalues --    0.14857   0.15145   0.15422   0.15555   0.16184
 Alpha virt. eigenvalues --    0.16433   0.16838   0.17066   0.17079   0.17426
 Alpha virt. eigenvalues --    0.17679   0.17959   0.18079   0.18310   0.18398
 Alpha virt. eigenvalues --    0.18810   0.18862   0.19287   0.19489   0.19678
 Alpha virt. eigenvalues --    0.20091   0.20183   0.20495   0.20780   0.20903
 Alpha virt. eigenvalues --    0.21099   0.21308   0.21786   0.21929   0.22141
 Alpha virt. eigenvalues --    0.22314   0.22359   0.22419   0.22711   0.23164
 Alpha virt. eigenvalues --    0.23416   0.23615   0.23952   0.24307   0.24421
 Alpha virt. eigenvalues --    0.24587   0.24651   0.25113   0.25308   0.25832
 Alpha virt. eigenvalues --    0.25973   0.26063   0.26542   0.26763   0.27345
 Alpha virt. eigenvalues --    0.27596   0.27705   0.28052   0.28080   0.28344
 Alpha virt. eigenvalues --    0.28510   0.28551   0.28741   0.28872   0.29289
 Alpha virt. eigenvalues --    0.29511   0.29881   0.30127   0.30370   0.30766
 Alpha virt. eigenvalues --    0.31199   0.31414   0.31497   0.31641   0.31728
 Alpha virt. eigenvalues --    0.31979   0.32278   0.32554   0.32588   0.32824
 Alpha virt. eigenvalues --    0.33137   0.33422   0.33569   0.33652   0.33795
 Alpha virt. eigenvalues --    0.33873   0.34011   0.34207   0.34434   0.34480
 Alpha virt. eigenvalues --    0.34765   0.34939   0.35215   0.35283   0.35356
 Alpha virt. eigenvalues --    0.35572   0.35739   0.35935   0.36167   0.36361
 Alpha virt. eigenvalues --    0.36525   0.36832   0.36998   0.37030   0.37593
 Alpha virt. eigenvalues --    0.37650   0.37899   0.38078   0.38251   0.38480
 Alpha virt. eigenvalues --    0.38543   0.38792   0.38881   0.39068   0.39418
 Alpha virt. eigenvalues --    0.39715   0.39779   0.39937   0.40108   0.40231
 Alpha virt. eigenvalues --    0.40597   0.40775   0.40827   0.41088   0.41358
 Alpha virt. eigenvalues --    0.41576   0.41668   0.41946   0.41988   0.42375
 Alpha virt. eigenvalues --    0.42510   0.42626   0.42877   0.43101   0.43317
 Alpha virt. eigenvalues --    0.43398   0.43848   0.43940   0.44026   0.44136
 Alpha virt. eigenvalues --    0.44253   0.44888   0.44960   0.45320   0.45356
 Alpha virt. eigenvalues --    0.45871   0.46022   0.46191   0.46356   0.46694
 Alpha virt. eigenvalues --    0.46832   0.47049   0.47387   0.47437   0.47626
 Alpha virt. eigenvalues --    0.47724   0.48248   0.48383   0.48604   0.48771
 Alpha virt. eigenvalues --    0.48978   0.49332   0.49539   0.49611   0.49745
 Alpha virt. eigenvalues --    0.49889   0.50189   0.50317   0.50451   0.51203
 Alpha virt. eigenvalues --    0.51303   0.51682   0.51802   0.52138   0.52350
 Alpha virt. eigenvalues --    0.52748   0.53427   0.53691   0.53904   0.54143
 Alpha virt. eigenvalues --    0.54665   0.54805   0.54981   0.55508   0.55632
 Alpha virt. eigenvalues --    0.55916   0.56339   0.56619   0.56676   0.56786
 Alpha virt. eigenvalues --    0.57173   0.57302   0.57596   0.57771   0.57938
 Alpha virt. eigenvalues --    0.58230   0.59092   0.59386   0.59611   0.59802
 Alpha virt. eigenvalues --    0.60184   0.60572   0.61233   0.61667   0.61949
 Alpha virt. eigenvalues --    0.61983   0.62344   0.62576   0.63067   0.63327
 Alpha virt. eigenvalues --    0.63512   0.63783   0.64220   0.64413   0.64909
 Alpha virt. eigenvalues --    0.65098   0.65412   0.65711   0.65923   0.66115
 Alpha virt. eigenvalues --    0.66709   0.66895   0.67083   0.67427   0.67571
 Alpha virt. eigenvalues --    0.67884   0.68175   0.68347   0.68638   0.68974
 Alpha virt. eigenvalues --    0.69472   0.69779   0.69866   0.70045   0.70681
 Alpha virt. eigenvalues --    0.71009   0.71206   0.71585   0.71881   0.72247
 Alpha virt. eigenvalues --    0.72692   0.72913   0.73282   0.73553   0.73942
 Alpha virt. eigenvalues --    0.74456   0.74836   0.75241   0.75403   0.75761
 Alpha virt. eigenvalues --    0.75948   0.76398   0.76869   0.77216   0.77423
 Alpha virt. eigenvalues --    0.78019   0.78315   0.78784   0.79306   0.79397
 Alpha virt. eigenvalues --    0.79648   0.80181   0.80327   0.80565   0.80950
 Alpha virt. eigenvalues --    0.81143   0.81325   0.81978   0.82093   0.82391
 Alpha virt. eigenvalues --    0.82987   0.83231   0.83390   0.83921   0.84395
 Alpha virt. eigenvalues --    0.84691   0.84755   0.84961   0.85638   0.85830
 Alpha virt. eigenvalues --    0.86246   0.86583   0.86803   0.87036   0.87723
 Alpha virt. eigenvalues --    0.88031   0.88170   0.88302   0.88600   0.88920
 Alpha virt. eigenvalues --    0.89405   0.89507   0.89787   0.89977   0.90061
 Alpha virt. eigenvalues --    0.90635   0.90857   0.91134   0.91394   0.91697
 Alpha virt. eigenvalues --    0.91972   0.92637   0.92906   0.92984   0.93157
 Alpha virt. eigenvalues --    0.93808   0.94035   0.94474   0.94565   0.94627
 Alpha virt. eigenvalues --    0.95145   0.95500   0.95831   0.96250   0.96266
 Alpha virt. eigenvalues --    0.96507   0.97286   0.97534   0.97665   0.97940
 Alpha virt. eigenvalues --    0.98404   0.98961   0.98975   0.99276   0.99520
 Alpha virt. eigenvalues --    0.99830   1.00123   1.00520   1.00933   1.01131
 Alpha virt. eigenvalues --    1.01683   1.01887   1.02239   1.02642   1.02944
 Alpha virt. eigenvalues --    1.03271   1.03763   1.04703   1.05071   1.05398
 Alpha virt. eigenvalues --    1.06092   1.06436   1.06693   1.06848   1.07309
 Alpha virt. eigenvalues --    1.07553   1.07734   1.08086   1.08669   1.08911
 Alpha virt. eigenvalues --    1.09200   1.09496   1.09758   1.10368   1.10523
 Alpha virt. eigenvalues --    1.10988   1.11257   1.11381   1.11797   1.12025
 Alpha virt. eigenvalues --    1.12477   1.12630   1.13278   1.13557   1.14094
 Alpha virt. eigenvalues --    1.14673   1.14764   1.15197   1.15468   1.15940
 Alpha virt. eigenvalues --    1.16523   1.16753   1.17107   1.17215   1.17508
 Alpha virt. eigenvalues --    1.17967   1.18053   1.18578   1.18808   1.19081
 Alpha virt. eigenvalues --    1.19377   1.19649   1.19952   1.20371   1.20690
 Alpha virt. eigenvalues --    1.21031   1.21631   1.21910   1.22446   1.23304
 Alpha virt. eigenvalues --    1.23466   1.23822   1.24290   1.24486   1.25248
 Alpha virt. eigenvalues --    1.25595   1.25639   1.26468   1.26626   1.26890
 Alpha virt. eigenvalues --    1.27520   1.27946   1.28085   1.28948   1.29785
 Alpha virt. eigenvalues --    1.30054   1.30190   1.30615   1.30868   1.31596
 Alpha virt. eigenvalues --    1.31843   1.32584   1.32804   1.33164   1.33975
 Alpha virt. eigenvalues --    1.34270   1.34908   1.35389   1.35556   1.35728
 Alpha virt. eigenvalues --    1.36216   1.36595   1.37165   1.37437   1.37684
 Alpha virt. eigenvalues --    1.38108   1.38301   1.39060   1.39157   1.39560
 Alpha virt. eigenvalues --    1.39748   1.40296   1.40559   1.40794   1.41278
 Alpha virt. eigenvalues --    1.41507   1.41770   1.41927   1.42518   1.42911
 Alpha virt. eigenvalues --    1.43036   1.43160   1.43667   1.43943   1.44174
 Alpha virt. eigenvalues --    1.44226   1.44360   1.44463   1.44681   1.44851
 Alpha virt. eigenvalues --    1.44989   1.45144   1.46026   1.46069   1.46270
 Alpha virt. eigenvalues --    1.46377   1.46815   1.46972   1.47089   1.47332
 Alpha virt. eigenvalues --    1.47592   1.47814   1.48083   1.48207   1.48359
 Alpha virt. eigenvalues --    1.48995   1.49313   1.49442   1.49534   1.49942
 Alpha virt. eigenvalues --    1.50316   1.50482   1.50818   1.50941   1.51483
 Alpha virt. eigenvalues --    1.51571   1.52061   1.52239   1.52778   1.53070
 Alpha virt. eigenvalues --    1.53275   1.53392   1.53747   1.54075   1.54199
 Alpha virt. eigenvalues --    1.54317   1.54665   1.54809   1.55152   1.55586
 Alpha virt. eigenvalues --    1.55674   1.55764   1.56342   1.56724   1.57447
 Alpha virt. eigenvalues --    1.57527   1.57971   1.58226   1.58309   1.58642
 Alpha virt. eigenvalues --    1.58908   1.59446   1.59504   1.59788   1.60284
 Alpha virt. eigenvalues --    1.60444   1.60620   1.60852   1.61080   1.61225
 Alpha virt. eigenvalues --    1.61613   1.61936   1.62084   1.62462   1.62745
 Alpha virt. eigenvalues --    1.63170   1.63342   1.63927   1.64612   1.64685
 Alpha virt. eigenvalues --    1.65055   1.65491   1.65795   1.66296   1.66552
 Alpha virt. eigenvalues --    1.67109   1.68308   1.68413   1.69222   1.70400
 Alpha virt. eigenvalues --    1.70622   1.71018   1.71412   1.71869   1.72609
 Alpha virt. eigenvalues --    1.73136   1.73301   1.73971   1.74445   1.74633
 Alpha virt. eigenvalues --    1.74989   1.75276   1.75794   1.76102   1.76463
 Alpha virt. eigenvalues --    1.76937   1.77171   1.77361   1.77589   1.77865
 Alpha virt. eigenvalues --    1.78434   1.78708   1.79107   1.79389   1.80281
 Alpha virt. eigenvalues --    1.80813   1.81140   1.81662   1.81926   1.82482
 Alpha virt. eigenvalues --    1.82991   1.83216   1.83954   1.84655   1.85245
 Alpha virt. eigenvalues --    1.85515   1.86367   1.86593   1.86764   1.87434
 Alpha virt. eigenvalues --    1.87823   1.87991   1.88037   1.88320   1.88797
 Alpha virt. eigenvalues --    1.88905   1.89091   1.89484   1.89984   1.90669
 Alpha virt. eigenvalues --    1.90892   1.90977   1.91878   1.92463   1.92578
 Alpha virt. eigenvalues --    1.92687   1.93479   1.93512   1.93954   1.94235
 Alpha virt. eigenvalues --    1.94560   1.95679   1.96173   1.96361   1.96872
 Alpha virt. eigenvalues --    1.97291   1.97874   1.97983   1.98710   1.99144
 Alpha virt. eigenvalues --    1.99488   2.00120   2.00402   2.00483   2.00816
 Alpha virt. eigenvalues --    2.00943   2.01320   2.01424   2.01933   2.02455
 Alpha virt. eigenvalues --    2.02510   2.03286   2.03706   2.03865   2.04235
 Alpha virt. eigenvalues --    2.04641   2.05051   2.05486   2.05958   2.06040
 Alpha virt. eigenvalues --    2.06495   2.07310   2.07619   2.08100   2.08875
 Alpha virt. eigenvalues --    2.09533   2.09644   2.09831   2.10181   2.10447
 Alpha virt. eigenvalues --    2.10991   2.11294   2.11977   2.12398   2.12557
 Alpha virt. eigenvalues --    2.12810   2.13128   2.13788   2.14139   2.14588
 Alpha virt. eigenvalues --    2.15328   2.15577   2.16090   2.16774   2.17449
 Alpha virt. eigenvalues --    2.17715   2.18040   2.18268   2.19094   2.19290
 Alpha virt. eigenvalues --    2.19393   2.20148   2.20416   2.20539   2.21244
 Alpha virt. eigenvalues --    2.21665   2.22012   2.22486   2.22664   2.22793
 Alpha virt. eigenvalues --    2.23296   2.23485   2.24170   2.24782   2.25076
 Alpha virt. eigenvalues --    2.25563   2.25957   2.26297   2.26772   2.27198
 Alpha virt. eigenvalues --    2.27735   2.27909   2.28140   2.28307   2.28722
 Alpha virt. eigenvalues --    2.28957   2.29269   2.29401   2.29833   2.30159
 Alpha virt. eigenvalues --    2.30495   2.31292   2.31634   2.31960   2.32202
 Alpha virt. eigenvalues --    2.32815   2.33163   2.33940   2.34243   2.34595
 Alpha virt. eigenvalues --    2.35035   2.35067   2.35789   2.36232   2.36628
 Alpha virt. eigenvalues --    2.36802   2.37556   2.37962   2.38227   2.38452
 Alpha virt. eigenvalues --    2.38724   2.39171   2.39333   2.39609   2.39693
 Alpha virt. eigenvalues --    2.39979   2.40728   2.41257   2.41291   2.41602
 Alpha virt. eigenvalues --    2.42411   2.43081   2.43383   2.43779   2.43938
 Alpha virt. eigenvalues --    2.44358   2.44445   2.44854   2.45082   2.45619
 Alpha virt. eigenvalues --    2.46057   2.46577   2.46959   2.47249   2.47450
 Alpha virt. eigenvalues --    2.47936   2.48276   2.48452   2.49083   2.49346
 Alpha virt. eigenvalues --    2.49700   2.50336   2.50607   2.50853   2.51218
 Alpha virt. eigenvalues --    2.51581   2.51700   2.52352   2.52556   2.52838
 Alpha virt. eigenvalues --    2.53055   2.53505   2.54538   2.54591   2.55136
 Alpha virt. eigenvalues --    2.55484   2.55809   2.55848   2.56049   2.56746
 Alpha virt. eigenvalues --    2.56954   2.57105   2.57334   2.57969   2.58155
 Alpha virt. eigenvalues --    2.58517   2.59296   2.59577   2.59918   2.59979
 Alpha virt. eigenvalues --    2.60709   2.60809   2.61185   2.61538   2.61723
 Alpha virt. eigenvalues --    2.62179   2.62582   2.62737   2.63070   2.63714
 Alpha virt. eigenvalues --    2.63849   2.63981   2.64980   2.65326   2.65773
 Alpha virt. eigenvalues --    2.66245   2.66460   2.67002   2.67360   2.67694
 Alpha virt. eigenvalues --    2.67875   2.68406   2.68833   2.69263   2.69986
 Alpha virt. eigenvalues --    2.70309   2.70371   2.70844   2.71436   2.72171
 Alpha virt. eigenvalues --    2.72501   2.72936   2.73370   2.73673   2.74022
 Alpha virt. eigenvalues --    2.74268   2.74548   2.74960   2.75212   2.75597
 Alpha virt. eigenvalues --    2.75904   2.76392   2.76430   2.77055   2.77157
 Alpha virt. eigenvalues --    2.77783   2.78381   2.78623   2.78987   2.79203
 Alpha virt. eigenvalues --    2.79493   2.79623   2.80217   2.80498   2.80680
 Alpha virt. eigenvalues --    2.81272   2.81460   2.81744   2.82012   2.82301
 Alpha virt. eigenvalues --    2.82729   2.83019   2.83170   2.83773   2.83986
 Alpha virt. eigenvalues --    2.84447   2.84656   2.85035   2.85096   2.85663
 Alpha virt. eigenvalues --    2.85882   2.86087   2.86681   2.87023   2.87237
 Alpha virt. eigenvalues --    2.87815   2.87948   2.88266   2.88778   2.89061
 Alpha virt. eigenvalues --    2.89284   2.89482   2.89689   2.90004   2.90644
 Alpha virt. eigenvalues --    2.91049   2.91328   2.91645   2.91791   2.92516
 Alpha virt. eigenvalues --    2.92710   2.92854   2.93042   2.93444   2.93950
 Alpha virt. eigenvalues --    2.94348   2.94588   2.95119   2.95638   2.95888
 Alpha virt. eigenvalues --    2.96043   2.96311   2.96535   2.96887   2.96936
 Alpha virt. eigenvalues --    2.97307   2.97577   2.98137   2.98387   2.98622
 Alpha virt. eigenvalues --    2.99130   2.99423   2.99693   3.00094   3.00326
 Alpha virt. eigenvalues --    3.00554   3.00742   3.01118   3.01318   3.01719
 Alpha virt. eigenvalues --    3.02064   3.02445   3.02631   3.02794   3.02977
 Alpha virt. eigenvalues --    3.03268   3.03454   3.04002   3.04229   3.04366
 Alpha virt. eigenvalues --    3.04422   3.05090   3.05409   3.05670   3.06020
 Alpha virt. eigenvalues --    3.06418   3.06569   3.06800   3.07002   3.07498
 Alpha virt. eigenvalues --    3.07592   3.08096   3.08293   3.08631   3.09000
 Alpha virt. eigenvalues --    3.09115   3.09393   3.09511   3.09934   3.10348
 Alpha virt. eigenvalues --    3.10761   3.11090   3.11458   3.11792   3.12205
 Alpha virt. eigenvalues --    3.12241   3.12899   3.13041   3.13418   3.13690
 Alpha virt. eigenvalues --    3.13888   3.14146   3.14525   3.14910   3.15033
 Alpha virt. eigenvalues --    3.15282   3.15717   3.15904   3.16089   3.16483
 Alpha virt. eigenvalues --    3.16657   3.16873   3.17015   3.17328   3.17483
 Alpha virt. eigenvalues --    3.17793   3.17945   3.18122   3.18343   3.18881
 Alpha virt. eigenvalues --    3.19422   3.19488   3.19629   3.20097   3.20249
 Alpha virt. eigenvalues --    3.20344   3.20808   3.20968   3.21302   3.21626
 Alpha virt. eigenvalues --    3.21714   3.21815   3.22052   3.22267   3.22455
 Alpha virt. eigenvalues --    3.22793   3.23043   3.23130   3.23374   3.23690
 Alpha virt. eigenvalues --    3.24170   3.24497   3.24745   3.24923   3.25127
 Alpha virt. eigenvalues --    3.25533   3.25660   3.26123   3.26329   3.26449
 Alpha virt. eigenvalues --    3.26787   3.26958   3.27057   3.27370   3.27513
 Alpha virt. eigenvalues --    3.27910   3.28104   3.28486   3.28656   3.28881
 Alpha virt. eigenvalues --    3.28909   3.29427   3.29611   3.29727   3.30132
 Alpha virt. eigenvalues --    3.30294   3.30742   3.31189   3.31249   3.31544
 Alpha virt. eigenvalues --    3.31836   3.32102   3.32685   3.32997   3.33356
 Alpha virt. eigenvalues --    3.33730   3.34025   3.34440   3.34646   3.35286
 Alpha virt. eigenvalues --    3.35439   3.36149   3.36597   3.36886   3.37186
 Alpha virt. eigenvalues --    3.37654   3.38004   3.38213   3.38859   3.39064
 Alpha virt. eigenvalues --    3.39899   3.39987   3.40878   3.41019   3.41625
 Alpha virt. eigenvalues --    3.41775   3.41977   3.42035   3.42473   3.42762
 Alpha virt. eigenvalues --    3.42916   3.43196   3.44194   3.44418   3.44807
 Alpha virt. eigenvalues --    3.45073   3.45360   3.46046   3.46479   3.46817
 Alpha virt. eigenvalues --    3.47042   3.47193   3.47851   3.48227   3.48297
 Alpha virt. eigenvalues --    3.48993   3.49369   3.49840   3.49950   3.50381
 Alpha virt. eigenvalues --    3.50805   3.51227   3.51450   3.51713   3.52677
 Alpha virt. eigenvalues --    3.53032   3.53288   3.54123   3.54253   3.54593
 Alpha virt. eigenvalues --    3.55018   3.55580   3.55889   3.56378   3.56852
 Alpha virt. eigenvalues --    3.57139   3.57623   3.58056   3.58387   3.58608
 Alpha virt. eigenvalues --    3.59413   3.59461   3.60017   3.60417   3.60802
 Alpha virt. eigenvalues --    3.61095   3.61434   3.61624   3.61980   3.62070
 Alpha virt. eigenvalues --    3.62307   3.62582   3.62847   3.63070   3.63275
 Alpha virt. eigenvalues --    3.64151   3.64213   3.64821   3.65401   3.65779
 Alpha virt. eigenvalues --    3.66066   3.66329   3.66802   3.67131   3.68094
 Alpha virt. eigenvalues --    3.68549   3.69111   3.70069   3.70267   3.70661
 Alpha virt. eigenvalues --    3.70885   3.71038   3.71992   3.72184   3.72801
 Alpha virt. eigenvalues --    3.73364   3.73741   3.74215   3.74860   3.75150
 Alpha virt. eigenvalues --    3.75922   3.76525   3.76941   3.77486   3.78385
 Alpha virt. eigenvalues --    3.79325   3.79500   3.80036   3.80360   3.80572
 Alpha virt. eigenvalues --    3.81153   3.81640   3.82131   3.82201   3.82549
 Alpha virt. eigenvalues --    3.83125   3.83343   3.83739   3.84439   3.85305
 Alpha virt. eigenvalues --    3.85817   3.86174   3.87499   3.87980   3.88482
 Alpha virt. eigenvalues --    3.89318   3.89808   3.90295   3.90515   3.90807
 Alpha virt. eigenvalues --    3.91090   3.91861   3.92387   3.92764   3.93301
 Alpha virt. eigenvalues --    3.93805   3.94223   3.94480   3.94706   3.95238
 Alpha virt. eigenvalues --    3.95763   3.96166   3.96852   3.97310   3.98768
 Alpha virt. eigenvalues --    4.00298   4.00895   4.01613   4.01850   4.02436
 Alpha virt. eigenvalues --    4.02738   4.03988   4.04430   4.04815   4.05280
 Alpha virt. eigenvalues --    4.05724   4.06664   4.07215   4.07327   4.07774
 Alpha virt. eigenvalues --    4.08715   4.09234   4.09609   4.10421   4.10689
 Alpha virt. eigenvalues --    4.10934   4.11505   4.12163   4.12851   4.13179
 Alpha virt. eigenvalues --    4.14056   4.14286   4.14954   4.15141   4.15593
 Alpha virt. eigenvalues --    4.16283   4.16424   4.17456   4.17702   4.17727
 Alpha virt. eigenvalues --    4.18387   4.19072   4.19766   4.20141   4.20447
 Alpha virt. eigenvalues --    4.20824   4.21555   4.22727   4.23172   4.23749
 Alpha virt. eigenvalues --    4.24374   4.24455   4.24746   4.25166   4.26247
 Alpha virt. eigenvalues --    4.26683   4.27131   4.27696   4.28980   4.29505
 Alpha virt. eigenvalues --    4.29685   4.30282   4.30638   4.31136   4.31764
 Alpha virt. eigenvalues --    4.31930   4.32608   4.33090   4.33360   4.33534
 Alpha virt. eigenvalues --    4.34121   4.34477   4.34907   4.35074   4.35256
 Alpha virt. eigenvalues --    4.35918   4.36064   4.36394   4.36852   4.37366
 Alpha virt. eigenvalues --    4.37646   4.38211   4.38984   4.39457   4.39768
 Alpha virt. eigenvalues --    4.40297   4.41370   4.42954   4.43874   4.44982
 Alpha virt. eigenvalues --    4.45439   4.46066   4.47698   4.47816   4.48524
 Alpha virt. eigenvalues --    4.49134   4.50236   4.51216   4.51944   4.53430
 Alpha virt. eigenvalues --    4.53997   4.54296   4.54578   4.56208   4.56587
 Alpha virt. eigenvalues --    4.58141   4.59117   4.59343   4.60073   4.60244
 Alpha virt. eigenvalues --    4.60408   4.61476   4.62450   4.62983   4.63269
 Alpha virt. eigenvalues --    4.63867   4.64123   4.64725   4.65186   4.65666
 Alpha virt. eigenvalues --    4.66516   4.67054   4.67314   4.68261   4.69170
 Alpha virt. eigenvalues --    4.70502   4.71562   4.72432   4.72815   4.73844
 Alpha virt. eigenvalues --    4.74141   4.74286   4.74887   4.75203   4.75441
 Alpha virt. eigenvalues --    4.75889   4.76616   4.76855   4.77564   4.78561
 Alpha virt. eigenvalues --    4.79161   4.79817   4.81884   4.82028   4.83194
 Alpha virt. eigenvalues --    4.83610   4.84428   4.84940   4.85469   4.85946
 Alpha virt. eigenvalues --    4.86239   4.87081   4.87560   4.88887   4.89042
 Alpha virt. eigenvalues --    4.89455   4.90265   4.91035   4.92084   4.92793
 Alpha virt. eigenvalues --    4.93797   4.94139   4.94378   4.94784   4.95627
 Alpha virt. eigenvalues --    4.96377   4.97042   4.98670   4.99230   4.99577
 Alpha virt. eigenvalues --    5.00062   5.01461   5.01829   5.02481   5.02682
 Alpha virt. eigenvalues --    5.03231   5.03596   5.05889   5.08524   5.09776
 Alpha virt. eigenvalues --    5.09976   5.10463   5.11711   5.11949   5.13409
 Alpha virt. eigenvalues --    5.13982   5.14534   5.15670   5.16612   5.18339
 Alpha virt. eigenvalues --    5.18818   5.19702   5.20641   5.21780   5.22990
 Alpha virt. eigenvalues --    5.24418   5.25938   5.27251   5.27460   5.27961
 Alpha virt. eigenvalues --    5.28231   5.28962   5.29588   5.29895   5.30154
 Alpha virt. eigenvalues --    5.30289   5.32879   5.34569   5.34800   5.35493
 Alpha virt. eigenvalues --    5.36636   5.37612   5.38201   5.39712   5.40433
 Alpha virt. eigenvalues --    5.41533   5.42126   5.42760   5.43634   5.46691
 Alpha virt. eigenvalues --    5.48468   5.50181   5.50862   5.52226   5.52627
 Alpha virt. eigenvalues --    5.53389   5.54591   5.55179   5.55305   5.56272
 Alpha virt. eigenvalues --    5.56933   5.57556   5.58357   5.59288   5.61547
 Alpha virt. eigenvalues --    5.63058   5.64890   5.65275   5.67557   5.71598
 Alpha virt. eigenvalues --    5.71897   5.76470   5.80593   5.85883   5.88004
 Alpha virt. eigenvalues --    5.88629   5.89833   5.91346   5.92061   5.93318
 Alpha virt. eigenvalues --    5.94099   5.96303   5.99624   6.00834   6.04582
 Alpha virt. eigenvalues --    6.05194   6.06518   6.07327   6.08590   6.10116
 Alpha virt. eigenvalues --    6.13951   6.17336   6.25155   6.25304   6.31682
 Alpha virt. eigenvalues --   22.27090  22.28215  22.35556  22.35843  22.37373
 Alpha virt. eigenvalues --   22.38220  22.44936  22.46030  22.53722  22.53825
 Alpha virt. eigenvalues --   22.72745  22.73604  22.78430  22.78890  22.84670
 Alpha virt. eigenvalues --   22.85599  22.87141  22.88962  22.90126  22.93476
 Alpha virt. eigenvalues --   22.95006  22.99675  23.01247  23.05241  23.17880
 Alpha virt. eigenvalues --   23.19423  23.20171  23.20936  23.22671  23.32403
 Alpha virt. eigenvalues --   23.36682  23.41775  23.43206  23.47829  23.63506
 Alpha virt. eigenvalues --   23.68417  23.70550  23.79839  32.31294  32.32741
 Alpha virt. eigenvalues --   32.69929  32.76412  32.93683  32.94170  32.95207
 Alpha virt. eigenvalues --   33.32967
  Beta  occ. eigenvalues -- -256.36786 -30.21573 -26.05982 -26.05701 -26.04977
  Beta  occ. eigenvalues --  -14.51947 -14.51585 -14.47830 -14.47576 -14.44757
  Beta  occ. eigenvalues --  -14.44734 -14.44654 -14.44613 -10.36399 -10.36015
  Beta  occ. eigenvalues --  -10.33768 -10.33490 -10.31884 -10.31818 -10.31696
  Beta  occ. eigenvalues --  -10.31689 -10.31609 -10.31590 -10.31551 -10.31518
  Beta  occ. eigenvalues --  -10.31182 -10.30964 -10.29509 -10.29314 -10.28963
  Beta  occ. eigenvalues --  -10.28937 -10.28779 -10.28739 -10.28730 -10.28677
  Beta  occ. eigenvalues --  -10.28668 -10.28660 -10.28651 -10.28639 -10.28623
  Beta  occ. eigenvalues --  -10.28607 -10.28357 -10.28270 -10.27349 -10.27318
  Beta  occ. eigenvalues --  -10.27293 -10.27291 -10.27262 -10.27080 -10.26923
  Beta  occ. eigenvalues --  -10.26902  -3.56842  -2.32815  -2.32626  -2.32184
  Beta  occ. eigenvalues --   -1.15877  -1.15579  -1.07984  -1.06977  -1.06953
  Beta  occ. eigenvalues --   -1.05987  -1.01686  -1.01389  -0.92637  -0.91461
  Beta  occ. eigenvalues --   -0.91193  -0.90561  -0.90258  -0.89896  -0.89838
  Beta  occ. eigenvalues --   -0.89812  -0.89604  -0.86236  -0.85015  -0.84332
  Beta  occ. eigenvalues --   -0.83635  -0.82266  -0.81429  -0.81206  -0.80321
  Beta  occ. eigenvalues --   -0.79436  -0.77840  -0.77620  -0.77401  -0.74988
  Beta  occ. eigenvalues --   -0.74667  -0.74461  -0.74222  -0.71533  -0.71265
  Beta  occ. eigenvalues --   -0.70073  -0.69738  -0.67730  -0.67307  -0.66098
  Beta  occ. eigenvalues --   -0.65881  -0.64329  -0.63961  -0.63356  -0.62144
  Beta  occ. eigenvalues --   -0.61184  -0.60886  -0.60341  -0.58328  -0.58174
  Beta  occ. eigenvalues --   -0.57827  -0.57723  -0.57545  -0.57289  -0.57060
  Beta  occ. eigenvalues --   -0.55485  -0.54708  -0.54430  -0.54113  -0.54008
  Beta  occ. eigenvalues --   -0.53218  -0.53049  -0.52969  -0.52835  -0.52629
  Beta  occ. eigenvalues --   -0.52543  -0.52493  -0.52415  -0.51991  -0.51829
  Beta  occ. eigenvalues --   -0.51437  -0.51300  -0.51020  -0.50532  -0.50460
  Beta  occ. eigenvalues --   -0.50097  -0.49960  -0.49701  -0.49557  -0.49451
  Beta  occ. eigenvalues --   -0.49219  -0.48976  -0.48880  -0.48700  -0.48534
  Beta  occ. eigenvalues --   -0.48058  -0.47739  -0.47456  -0.47281  -0.47075
  Beta  occ. eigenvalues --   -0.46748  -0.46361  -0.46180  -0.45379  -0.45068
  Beta  occ. eigenvalues --   -0.44917  -0.44219  -0.43580  -0.43215  -0.42702
  Beta  occ. eigenvalues --   -0.42339  -0.42280  -0.41747  -0.40472  -0.40353
  Beta  occ. eigenvalues --   -0.39129  -0.38548  -0.37435  -0.36889  -0.35990
  Beta  occ. eigenvalues --   -0.35539  -0.34107  -0.33807  -0.33104  -0.32617
  Beta  occ. eigenvalues --   -0.31667  -0.31152  -0.28880  -0.28090
  Beta virt. eigenvalues --   -0.19178  -0.16837  -0.15520  -0.12403  -0.11407
  Beta virt. eigenvalues --   -0.10513  -0.08627  -0.08480  -0.08335  -0.07212
  Beta virt. eigenvalues --   -0.06200  -0.05240  -0.04952  -0.04803  -0.04547
  Beta virt. eigenvalues --   -0.04008  -0.03446  -0.02916  -0.02596  -0.01666
  Beta virt. eigenvalues --   -0.01547  -0.01489  -0.01351  -0.00697  -0.00408
  Beta virt. eigenvalues --   -0.00019   0.00453   0.00704   0.00785   0.01197
  Beta virt. eigenvalues --    0.01433   0.01675   0.01861   0.02389   0.02428
  Beta virt. eigenvalues --    0.02638   0.03115   0.03317   0.03477   0.03801
  Beta virt. eigenvalues --    0.03900   0.04066   0.04364   0.04474   0.04626
  Beta virt. eigenvalues --    0.04680   0.04833   0.05007   0.05035   0.05197
  Beta virt. eigenvalues --    0.05763   0.05938   0.06218   0.06316   0.06587
  Beta virt. eigenvalues --    0.06758   0.06975   0.07315   0.07498   0.07682
  Beta virt. eigenvalues --    0.07797   0.08024   0.08201   0.08352   0.08596
  Beta virt. eigenvalues --    0.08723   0.08776   0.09145   0.09303   0.09363
  Beta virt. eigenvalues --    0.09806   0.10223   0.10467   0.10840   0.11035
  Beta virt. eigenvalues --    0.11126   0.11186   0.11434   0.11719   0.11939
  Beta virt. eigenvalues --    0.12200   0.12409   0.12684   0.12986   0.13119
  Beta virt. eigenvalues --    0.13481   0.13648   0.13857   0.14319   0.14483
  Beta virt. eigenvalues --    0.14733   0.14862   0.15151   0.15433   0.15596
  Beta virt. eigenvalues --    0.16200   0.16497   0.16858   0.17071   0.17109
  Beta virt. eigenvalues --    0.17434   0.17683   0.17987   0.18112   0.18383
  Beta virt. eigenvalues --    0.18421   0.18833   0.18922   0.19314   0.19524
  Beta virt. eigenvalues --    0.19712   0.20109   0.20188   0.20525   0.20801
  Beta virt. eigenvalues --    0.20909   0.21106   0.21321   0.21804   0.21986
  Beta virt. eigenvalues --    0.22161   0.22338   0.22377   0.22432   0.22757
  Beta virt. eigenvalues --    0.23162   0.23458   0.23626   0.23995   0.24317
  Beta virt. eigenvalues --    0.24445   0.24588   0.24703   0.25133   0.25385
  Beta virt. eigenvalues --    0.25906   0.25996   0.26097   0.26577   0.26774
  Beta virt. eigenvalues --    0.27371   0.27633   0.27733   0.28093   0.28107
  Beta virt. eigenvalues --    0.28400   0.28519   0.28581   0.28746   0.28964
  Beta virt. eigenvalues --    0.29305   0.29542   0.29900   0.30150   0.30381
  Beta virt. eigenvalues --    0.30795   0.31224   0.31455   0.31516   0.31673
  Beta virt. eigenvalues --    0.31749   0.31997   0.32294   0.32592   0.32612
  Beta virt. eigenvalues --    0.32871   0.33150   0.33441   0.33597   0.33723
  Beta virt. eigenvalues --    0.33817   0.33943   0.34109   0.34240   0.34442
  Beta virt. eigenvalues --    0.34512   0.34776   0.34960   0.35247   0.35295
  Beta virt. eigenvalues --    0.35431   0.35603   0.35776   0.36015   0.36226
  Beta virt. eigenvalues --    0.36397   0.36617   0.36860   0.37011   0.37042
  Beta virt. eigenvalues --    0.37604   0.37671   0.37910   0.38107   0.38281
  Beta virt. eigenvalues --    0.38506   0.38573   0.38803   0.38892   0.39083
  Beta virt. eigenvalues --    0.39442   0.39736   0.39786   0.39949   0.40123
  Beta virt. eigenvalues --    0.40262   0.40622   0.40805   0.40838   0.41095
  Beta virt. eigenvalues --    0.41374   0.41577   0.41670   0.41945   0.42014
  Beta virt. eigenvalues --    0.42392   0.42520   0.42643   0.42889   0.43131
  Beta virt. eigenvalues --    0.43328   0.43414   0.43871   0.43954   0.44041
  Beta virt. eigenvalues --    0.44145   0.44268   0.44914   0.44966   0.45342
  Beta virt. eigenvalues --    0.45376   0.45955   0.46041   0.46239   0.46373
  Beta virt. eigenvalues --    0.46709   0.46876   0.47062   0.47411   0.47469
  Beta virt. eigenvalues --    0.47645   0.47751   0.48265   0.48400   0.48615
  Beta virt. eigenvalues --    0.48793   0.48999   0.49335   0.49541   0.49639
  Beta virt. eigenvalues --    0.49765   0.49916   0.50199   0.50372   0.50470
  Beta virt. eigenvalues --    0.51220   0.51344   0.51698   0.51808   0.52141
  Beta virt. eigenvalues --    0.52370   0.52787   0.53438   0.53709   0.53920
  Beta virt. eigenvalues --    0.54158   0.54681   0.54845   0.55006   0.55536
  Beta virt. eigenvalues --    0.55664   0.55935   0.56386   0.56632   0.56698
  Beta virt. eigenvalues --    0.56882   0.57194   0.57341   0.57602   0.57807
  Beta virt. eigenvalues --    0.57951   0.58244   0.59111   0.59390   0.59631
  Beta virt. eigenvalues --    0.59827   0.60207   0.60601   0.61284   0.61677
  Beta virt. eigenvalues --    0.61971   0.62007   0.62405   0.62743   0.63104
  Beta virt. eigenvalues --    0.63349   0.63537   0.63789   0.64284   0.64463
  Beta virt. eigenvalues --    0.64955   0.65148   0.65424   0.65737   0.65959
  Beta virt. eigenvalues --    0.66160   0.66729   0.66912   0.67095   0.67443
  Beta virt. eigenvalues --    0.67604   0.67918   0.68192   0.68374   0.68692
  Beta virt. eigenvalues --    0.69004   0.69485   0.69802   0.69910   0.70057
  Beta virt. eigenvalues --    0.70711   0.71057   0.71263   0.71612   0.71924
  Beta virt. eigenvalues --    0.72280   0.72704   0.72929   0.73317   0.73574
  Beta virt. eigenvalues --    0.73980   0.74472   0.74849   0.75254   0.75418
  Beta virt. eigenvalues --    0.75798   0.75966   0.76416   0.76875   0.77243
  Beta virt. eigenvalues --    0.77443   0.78041   0.78331   0.78809   0.79341
  Beta virt. eigenvalues --    0.79427   0.79692   0.80202   0.80383   0.80615
  Beta virt. eigenvalues --    0.80969   0.81154   0.81358   0.81994   0.82102
  Beta virt. eigenvalues --    0.82419   0.83017   0.83273   0.83439   0.83939
  Beta virt. eigenvalues --    0.84423   0.84735   0.84795   0.84986   0.85700
  Beta virt. eigenvalues --    0.85841   0.86287   0.86598   0.86841   0.87066
  Beta virt. eigenvalues --    0.87749   0.88088   0.88205   0.88362   0.88635
  Beta virt. eigenvalues --    0.88939   0.89437   0.89526   0.89813   0.89984
  Beta virt. eigenvalues --    0.90138   0.90659   0.90888   0.91173   0.91416
  Beta virt. eigenvalues --    0.91726   0.92015   0.92647   0.92930   0.92999
  Beta virt. eigenvalues --    0.93164   0.93839   0.94050   0.94486   0.94584
  Beta virt. eigenvalues --    0.94649   0.95155   0.95522   0.95849   0.96266
  Beta virt. eigenvalues --    0.96416   0.96526   0.97291   0.97554   0.97710
  Beta virt. eigenvalues --    0.97957   0.98445   0.98976   0.99042   0.99426
  Beta virt. eigenvalues --    0.99685   0.99959   1.00241   1.00587   1.00959
  Beta virt. eigenvalues --    1.01164   1.01722   1.01963   1.02292   1.02678
  Beta virt. eigenvalues --    1.02982   1.03319   1.03778   1.04736   1.05095
  Beta virt. eigenvalues --    1.05419   1.06110   1.06485   1.06706   1.06913
  Beta virt. eigenvalues --    1.07333   1.07571   1.07802   1.08155   1.08704
  Beta virt. eigenvalues --    1.08933   1.09265   1.09530   1.09765   1.10402
  Beta virt. eigenvalues --    1.10560   1.11018   1.11306   1.11504   1.11813
  Beta virt. eigenvalues --    1.12154   1.12500   1.12649   1.13301   1.13582
  Beta virt. eigenvalues --    1.14131   1.14725   1.14820   1.15267   1.15526
  Beta virt. eigenvalues --    1.15983   1.16604   1.16797   1.17135   1.17273
  Beta virt. eigenvalues --    1.17574   1.17993   1.18078   1.18597   1.18845
  Beta virt. eigenvalues --    1.19097   1.19403   1.19746   1.19976   1.20390
  Beta virt. eigenvalues --    1.20715   1.21098   1.21688   1.21984   1.22461
  Beta virt. eigenvalues --    1.23315   1.23516   1.23880   1.24309   1.24500
  Beta virt. eigenvalues --    1.25290   1.25606   1.25802   1.26524   1.26649
  Beta virt. eigenvalues --    1.26958   1.27574   1.27950   1.28135   1.28970
  Beta virt. eigenvalues --    1.29821   1.30074   1.30223   1.30643   1.30898
  Beta virt. eigenvalues --    1.31661   1.31869   1.32601   1.32848   1.33230
  Beta virt. eigenvalues --    1.33993   1.34288   1.34963   1.35393   1.35578
  Beta virt. eigenvalues --    1.35799   1.36293   1.36673   1.37234   1.37455
  Beta virt. eigenvalues --    1.37741   1.38156   1.38327   1.39099   1.39185
  Beta virt. eigenvalues --    1.39599   1.39790   1.40318   1.40569   1.40836
  Beta virt. eigenvalues --    1.41299   1.41527   1.41788   1.41940   1.42528
  Beta virt. eigenvalues --    1.42930   1.43091   1.43180   1.43689   1.43963
  Beta virt. eigenvalues --    1.44188   1.44258   1.44385   1.44482   1.44713
  Beta virt. eigenvalues --    1.44877   1.45023   1.45175   1.46039   1.46109
  Beta virt. eigenvalues --    1.46283   1.46388   1.46861   1.46993   1.47097
  Beta virt. eigenvalues --    1.47374   1.47617   1.47865   1.48099   1.48220
  Beta virt. eigenvalues --    1.48379   1.49023   1.49325   1.49455   1.49574
  Beta virt. eigenvalues --    1.49968   1.50325   1.50525   1.50843   1.50986
  Beta virt. eigenvalues --    1.51493   1.51584   1.52078   1.52258   1.52800
  Beta virt. eigenvalues --    1.53078   1.53278   1.53405   1.53752   1.54088
  Beta virt. eigenvalues --    1.54201   1.54321   1.54669   1.54821   1.55202
  Beta virt. eigenvalues --    1.55597   1.55686   1.55774   1.56356   1.56727
  Beta virt. eigenvalues --    1.57464   1.57554   1.57986   1.58238   1.58318
  Beta virt. eigenvalues --    1.58666   1.58925   1.59467   1.59513   1.59797
  Beta virt. eigenvalues --    1.60295   1.60472   1.60639   1.60862   1.61103
  Beta virt. eigenvalues --    1.61238   1.61640   1.61952   1.62101   1.62464
  Beta virt. eigenvalues --    1.62760   1.63177   1.63422   1.63937   1.64618
  Beta virt. eigenvalues --    1.64716   1.65064   1.65498   1.65817   1.66336
  Beta virt. eigenvalues --    1.66574   1.67142   1.68320   1.68428   1.69231
  Beta virt. eigenvalues --    1.70408   1.70645   1.71020   1.71452   1.71885
  Beta virt. eigenvalues --    1.72615   1.73140   1.73311   1.73991   1.74452
[...]
  1510. RY*(  26) C  82                  0.00000     3.45599   
  1511. RY*(   1) C  83                  0.00203     1.48705   
  1512. RY*(   2) C  83                  0.00161     0.59868   
  1513. RY*(   3) C  83                  0.00093     1.17269   
  1514. RY*(   4) C  83                  0.00065     2.46727   
  1515. RY*(   5) C  83                  0.00039     1.48847   
  1516. RY*(   6) C  83                  0.00021     1.69274   
  1517. RY*(   7) C  83                  0.00009     1.76681   
  1518. RY*(   8) C  83                  0.00005     2.24755   
  1519. RY*(   9) C  83                  0.00003     2.91836   
  1520. RY*(  10) C  83                  0.00002     1.59746   
  1521. RY*(  11) C  83                  0.00002     3.32607   
  1522. RY*(  12) C  83                  0.00001     3.25644   
  1523. RY*(  13) C  83                  0.00001     2.47937   
  1524. RY*(  14) C  83                  0.00001     2.33124   
  1525. RY*(  15) C  83                  0.00001     2.53573   
  1526. RY*(  16) C  83                  0.00001     3.18677   
  1527. RY*(  17) C  83                  0.00001     2.49283   
  1528. RY*(  18) C  83                  0.00000    21.31165   
  1529. RY*(  19) C  83                  0.00001     2.76611   
  1530. RY*(  20) C  83                  0.00000     3.65827   
  1531. RY*(  21) C  83                  0.00000     3.61279   
  1532. RY*(  22) C  83                  0.00000     3.68768   
  1533. RY*(  23) C  83                  0.00000     3.61332   
  1534. RY*(  24) C  83                  0.00000     3.49158   
  1535. RY*(  25) C  83                  0.00000     3.58487   
  1536. RY*(  26) C  83                  0.00000     3.31035   
  1537. RY*(   1) H  84                  0.00029     0.56341   
  1538. RY*(   2) H  84                  0.00017     2.38096   
  1539. RY*(   3) H  84                  0.00010     2.02575   
  1540. RY*(   4) H  84                  0.00006     2.34959   
  1541. RY*(   5) H  84                  0.00001     3.05528   
  1542. RY*(   1) N  85                  0.00686     0.68921   
  1543. RY*(   2) N  85                  0.00381     1.31405   
  1544. RY*(   3) N  85                  0.00144     1.13166   
  1545. RY*(   4) N  85                  0.00077     1.62431   
  1546. RY*(   5) N  85                  0.00039     1.73381   
  1547. RY*(   6) N  85                  0.00030     1.92601   
  1548. RY*(   7) N  85                  0.00021     2.78291   
  1549. RY*(   8) N  85                  0.00018     3.27394   
  1550. RY*(   9) N  85                  0.00007     3.25840   
  1551. RY*(  10) N  85                  0.00005     2.71435   
  1552. RY*(  11) N  85                  0.00004     2.73681   
  1553. RY*(  12) N  85                  0.00004     3.70036   
  1554. RY*(  13) N  85                  0.00002     3.19753   
  1555. RY*(  14) N  85                  0.00002     3.16555   
  1556. RY*(  15) N  85                  0.00001     4.76040   
  1557. RY*(  16) N  85                  0.00000     4.72806   
  1558. RY*(  17) N  85                  0.00001     4.12520   
  1559. RY*(  18) N  85                  0.00000     4.40765   
  1560. RY*(  19) N  85                  0.00000    31.53200   
  1561. RY*(  20) N  85                  0.00000     4.27226   
  1562. RY*(  21) N  85                  0.00000     4.01024   
  1563. RY*(  22) N  85                  0.00000     4.54536   
  1564. RY*(  23) N  85                  0.00000     4.58972   
  1565. RY*(  24) N  85                  0.00000     4.58357   
  1566. RY*(  25) N  85                  0.00000     4.62317   
  1567. RY*(  26) N  85                  0.00000     4.36650   
  1568. RY*(   1) C  86                  0.00205     1.40400   
  1569. RY*(   2) C  86                  0.00125     0.61872   
  1570. RY*(   3) C  86                  0.00076     1.91123   
  1571. RY*(   4) C  86                  0.00033     2.06805   
  1572. RY*(   5) C  86                  0.00026     1.62281   
  1573. RY*(   6) C  86                  0.00024     2.09976   
  1574. RY*(   7) C  86                  0.00021     1.58524   
  1575. RY*(   8) C  86                  0.00013     1.46955   
  1576. RY*(   9) C  86                  0.00011     1.82567   
  1577. RY*(  10) C  86                  0.00006     1.53403   
  1578. RY*(  11) C  86                  0.00004     1.07109   
  1579. RY*(  12) C  86                  0.00003     2.03655   
  1580. RY*(  13) C  86                  0.00002     3.29001   
  1581. RY*(  14) C  86                  0.00002     1.39799   
  1582. RY*(  15) C  86                  0.00002     1.94007   
  1583. RY*(  16) C  86                  0.00000    21.47204   
  1584. RY*(  17) C  86                  0.00000     3.17141   
  1585. RY*(  18) C  86                  0.00000     3.34935   
  1586. RY*(  19) C  86                  0.00001     2.94925   
  1587. RY*(  20) C  86                  0.00000     3.83185   
  1588. RY*(  21) C  86                  0.00000     3.51239   
  1589. RY*(  22) C  86                  0.00001     3.81992   
  1590. RY*(  23) C  86                  0.00000     3.44643   
  1591. RY*(  24) C  86                  0.00000     3.54482   
  1592. RY*(  25) C  86                  0.00000     3.61602   
  1593. RY*(  26) C  86                  0.00000     3.34958   
  1594. RY*(   1) H  87                  0.00024     0.71473   
  1595. RY*(   2) H  87                  0.00016     2.16581   
  1596. RY*(   3) H  87                  0.00012     2.21300   
  1597. RY*(   4) H  87                  0.00003     2.64172   
  1598. RY*(   5) H  87                  0.00001     3.02352   
  1599. BD*(   1)Fe   1 - N   2          0.03300     0.31701   
  1600. BD*(   1)Fe   1 - N   3          0.03303     0.31317   
  1601. BD*(   1)Fe   1 - N   4          0.03310     0.31237   
  1602. BD*(   1)Fe   1 - N   5          0.03293     0.31690   
  1603. BD*(   1)Fe   1 - N  73          0.03426     0.28995   
  1604. BD*(   1)Fe   1 - N  85          0.03637     0.29203   
  1605. BD*(   1) N   2 - C   6          0.01389     0.41532   
  1606. BD*(   2) N   2 - C   6          0.31838    -0.08985  1652(v),1620(v),1625(v)
                                                    309(g),172(v),204(g),723(v)
                                                    1612(r)
  1607. BD*(   1) N   2 - C   9          0.01361     0.41337   
  1608. BD*(   1) N   3 - C  10          0.01373     0.41093   
  1609. BD*(   2) N   3 - C  10          0.32345    -0.09212  1625(v),1629(v),1634(v)
                                                    1615(r),413(g),172(v),230(g)
                                                    754(v)
  1610. BD*(   1) N   3 - C  13          0.01349     0.41592   
  1611. BD*(   1) N   4 - C  14          0.01424     0.40915   
  1612. BD*(   2) N   4 - C  14          0.33074    -0.09285  1634(v),1638(v),1643(v)
                                                    172(v),517(g),256(g),516(g)
                                                    785(v),1606(r)
  1613. BD*(   1) N   4 - C  17          0.01321     0.41488   
  1614. BD*(   1) N   5 - C  18          0.01358     0.41332   
  1615. BD*(   2) N   5 - C  18          0.32386    -0.09200  1643(v),1652(v),1647(v)
                                                    1609(r),621(g),172(v),282(g)
  1616. BD*(   1) N   5 - C  21          0.01404     0.41281   
  1617. BD*(   1) C   6 - C   7          0.01739     0.39231   
  1618. BD*(   1) C   6 - C  22          0.01037     0.47542   
  1619. BD*(   1) C   7 - C   8          0.01142     0.51433   
  1620. BD*(   2) C   7 - C   8          0.11807    -0.02366  1625(v),1606(v),1658(v)
                                                    1660(v),1659(v),1661(v)
  1621. BD*(   1) C   7 - C  34          0.00824     0.32630   
  1622. BD*(   1) C   8 - C   9          0.01750     0.39326   
  1623. BD*(   1) C   8 - C  30          0.00817     0.32652   
  1624. BD*(   1) C   9 - C  24          0.01033     0.48080   
  1625. BD*(   2) C   9 - C  24          0.19884    -0.04938  1634(r),1609(v),1620(v)
                                                    1606(v),1652(r),754(g)
                                                    389(g)
  1626. BD*(   1) C  10 - C  11          0.01699     0.40148   
  1627. BD*(   1) C  10 - C  24          0.01051     0.47220   
  1628. BD*(   1) C  11 - C  12          0.01119     0.49668   
  1629. BD*(   2) C  11 - C  12          0.13584    -0.02842  1668(v),1634(v),1609(v)
                                                    1664(v),1663(v),1666(v)
  1630. BD*(   1) C  11 - C  38          0.00792     0.32606   
  1631. BD*(   1) C  12 - C  13          0.01896     0.39038   
  1632. BD*(   1) C  12 - C  42          0.01327     0.40444   
  1633. BD*(   1) C  13 - C  26          0.01034     0.47847   
  1634. BD*(   2) C  13 - C  26          0.19691    -0.04943  1625(r),1612(v),1629(v)
                                                    1609(v),785(g),1643(r)
                                                    493(g),1668(r)
  1635. BD*(   1) C  14 - C  15          0.01691     0.40171   
  1636. BD*(   1) C  14 - C  26          0.01080     0.47440   
  1637. BD*(   1) C  15 - C  16          0.01259     0.49592   
  1638. BD*(   2) C  15 - C  16          0.14167    -0.02912  1676(v),1643(v),1612(v)
                                                    1671(v)
  1639. BD*(   1) C  15 - C  47          0.00784     0.32789   
  1640. BD*(   1) C  16 - C  17          0.01694     0.38993   
  1641. BD*(   1) C  16 - C  51          0.01332     0.40917   
  1642. BD*(   1) C  17 - C  28          0.01047     0.47346   
  1643. BD*(   2) C  17 - C  28          0.20915    -0.05256  1615(v),1638(v),1612(v)
                                                    1652(r),1634(r),816(g)
                                                    597(g)
  1644. BD*(   1) C  18 - C  19          0.01738     0.39238   
  1645. BD*(   1) C  18 - C  28          0.01048     0.47532   
  1646. BD*(   1) C  19 - C  20          0.01145     0.51322   
  1647. BD*(   2) C  19 - C  20          0.11924    -0.02459  1652(v),1615(v),1680(v)
                                                    1684(v),1683(v),1679(v)
  1648. BD*(   1) C  19 - C  56          0.00818     0.32578   
  1649. BD*(   1) C  20 - C  21          0.01732     0.39306   
  1650. BD*(   1) C  20 - C  60          0.00824     0.32577   
  1651. BD*(   1) C  21 - C  22          0.01035     0.47525   
  1652. BD*(   2) C  21 - C  22          0.19979    -0.05026  1606(v),1647(v),1615(v)
                                                    1625(r),723(g),1643(r)
                                                    701(g)
  1653. BD*(   1) C  22 - H  23          0.00621     0.34071   
  1654. BD*(   1) C  24 - H  25          0.00625     0.34089   
  1655. BD*(   1) C  26 - H  27          0.00728     0.34805   
  1656. BD*(   1) C  28 - H  29          0.00649     0.34088   
  1657. BD*(   1) C  30 - H  31          0.00304     0.31105   
  1658. BD*(   1) C  30 - H  32          0.00475     0.29807   
  1659. BD*(   1) C  30 - H  33          0.00455     0.29907   
  1660. BD*(   1) C  34 - H  35          0.00490     0.29794   
  1661. BD*(   1) C  34 - H  36          0.00461     0.29943   
  1662. BD*(   1) C  34 - H  37          0.00304     0.31139   
  1663. BD*(   1) C  38 - H  39          0.00446     0.29814   
  1664. BD*(   1) C  38 - H  40          0.00484     0.29812   
  1665. BD*(   1) C  38 - H  41          0.00279     0.31115   
  1666. BD*(   1) C  42 - H  43          0.01060     0.33918   
  1667. BD*(   1) C  42 - C  44          0.00351     0.53862   
  1668. BD*(   2) C  42 - C  44          0.02845    -0.01445   
  1669. BD*(   1) C  44 - H  45          0.00553     0.35143   
  1670. BD*(   1) C  44 - H  46          0.00412     0.35852   
  1671. BD*(   1) C  47 - H  48          0.00566     0.29740   
  1672. BD*(   1) C  47 - H  49          0.00446     0.30499   
  1673. BD*(   1) C  47 - H  50          0.00381     0.31213   
  1674. BD*(   1) C  51 - H  52          0.01035     0.33858   
  1675. BD*(   1) C  51 - C  53          0.00370     0.54993   
  1676. BD*(   2) C  51 - C  53          0.03196    -0.02522   
  1677. BD*(   1) C  53 - H  54          0.00521     0.35597   
  1678. BD*(   1) C  53 - H  55          0.00389     0.35868   
  1679. BD*(   1) C  56 - H  57          0.00449     0.29941   
  1680. BD*(   1) C  56 - H  58          0.00485     0.29645   
  1681. BD*(   1) C  56 - H  59          0.00306     0.31075   
  1682. BD*(   1) C  60 - H  61          0.00304     0.31131   
  1683. BD*(   1) C  60 - H  62          0.00470     0.29916   
  1684. BD*(   1) C  60 - H  63          0.00483     0.29798   
  1685. BD*(   1) C  64 - H  65          0.00158     0.28932   
  1686. BD*(   1) C  64 - H  66          0.00511     0.27769   
  1687. BD*(   1) C  64 - H  67          0.00516     0.27792   
  1688. BD*(   1) C  64 - C  70          0.00631     0.29830   
  1689. BD*(   1) N  68 - H  69          0.00661     0.27462   
  1690. BD*(   1) N  68 - C  70          0.01368     0.32956   
  1691. BD*(   1) N  68 - C  71          0.01068     0.34117   
  1692. BD*(   1) C  70 - C  74          0.01054     0.46460   
  1693. BD*(   1) C  71 - H  72          0.00831     0.28681   
  1694. BD*(   1) C  71 - N  73          0.00882     0.42810   
  1695. BD*(   1) N  73 - C  74          0.00862     0.37403   
  1696. BD*(   2) N  73 - C  74          0.33747    -0.12055  94(v),174(v),172(v),1383(g)
                                                    1358(g),1326(v)
  1697. BD*(   1) C  74 - H  75          0.00683     0.32777   
  1698. BD*(   1) C  76 - H  77          0.00513     0.27972   
  1699. BD*(   1) C  76 - H  78          0.00159     0.29137   
  1700. BD*(   1) C  76 - H  79          0.00518     0.27961   
  1701. BD*(   1) C  76 - C  82          0.00628     0.30053   
  1702. BD*(   1) N  80 - H  81          0.00660     0.27714   
  1703. BD*(   1) N  80 - C  82          0.01356     0.33237   
  1704. BD*(   1) N  80 - C  83          0.01062     0.34398   
  1705. BD*(   1) C  82 - C  86          0.01037     0.46683   
  1706. BD*(   2) C  82 - C  86          0.14445    -0.06295  1709(v),1700(v),1698(v)
                                                    1573(g),1489(g)
  1707. BD*(   1) C  83 - H  84          0.00866     0.28889   
  1708. BD*(   1) C  83 - N  85          0.00863     0.42962   
  1709. BD*(   2) C  83 - N  85          0.21778    -0.11388  1706(v),1512(g),1542(g)
  1710. BD*(   1) N  85 - C  86          0.00824     0.37525   
  1711. BD*(   1) C  86 - H  87          0.00707     0.33001   
       -------------------------------
              Total Lewis  168.91448  ( 97.0773%)
        Valence non-Lewis    4.74245  (  2.7255%)
        Rydberg non-Lewis    0.34307  (  0.1972%)
       -------------------------------
            Total unit  1  174.00000  (100.0000%)
           Charge unit  1    1.00000
 Unable to Open any file for archive entry.
 1\1\GINC-BGN1008\SP\UAPFD\def2TZVP\C38H40Fe1N8(1+,2)\BECSLEIP\15-Oct-2
 024\0\\# apfd/def2TZVP guess=read scf=maxcycle=999 geom=check pop=nbo\
 \5o18_III_D\\1,2\Fe,0,17.669973473,55.8128120566,36.1747594772\N,0,17.
 3093505586,57.7723570894,36.1319085511\N,0,15.7966448279,55.4499155546
 ,35.5376769605\N,0,18.0064220521,53.8324195243,36.2530337041\N,0,19.52
 48110109,56.1420213657,36.821271947\C,0,18.1585944354,58.7594153238,36
 .5136698086\C,0,17.5970821923,60.0601919137,36.2164961369\C,0,16.38599
 16495,59.8303651207,35.6428632993\C,0,16.2114793101,58.3936804195,35.6
 283053552\C,0,14.8727142856,56.3853311048,35.1912781245\C,0,13.6351595
 722,55.7587490331,34.8074157822\C,0,13.8102382342,54.4125259796,34.985
 0095873\C,0,15.1740642822,54.2473681372,35.4496293567\C,0,17.092972729
 2,52.8421990012,36.0589421172\C,0,17.6746007123,51.5517241476,36.32279
 00273\C,0,18.9898564839,51.7787659232,36.6381522456\C,0,19.1685215214,
 53.2172699565,36.586153852\C,0,20.5159350225,55.2289082201,36.98678090
 96\C,0,21.7132424338,55.8629041085,37.494956537\C,0,21.4375759866,57.1
 926923557,37.5697451501\C,0,20.061934577,57.3461717372,37.1485102462\C
 ,0,19.4249375598,58.5692938415,37.0377473664\H,0,19.9822180382,59.4481
 837873,37.325271032\C,0,15.0746873585,57.7566633505,35.1731981413\H,0,
 14.2621827536,58.3733066114,34.8187236112\C,0,15.7723358958,53.0248304
 382,35.6843077102\H,0,15.173445356,52.1418915383,35.5235103906\C,0,20.
 3613306689,53.8592425816,36.8726098031\H,0,21.2282577153,53.244193722,
 37.0627893005\C,0,15.3823358692,60.8051744544,35.1284337526\H,0,15.751
 7911379,61.8242324662,35.2153563144\H,0,14.4501478187,60.7295556829,35
 .6894583232\H,0,15.1610915019,60.6086042161,34.0791478509\C,0,18.28121
 40321,61.3557562666,36.4923108762\H,0,19.2154801997,61.4238480194,35.9
 335544426\H,0,18.5156049037,61.4471128525,37.5531232045\H,0,17.6508118
 912,62.1949792327,36.2077447956\C,0,12.407203314,56.4800018039,34.3683
 034638\H,0,12.6233724268,57.1269371364,33.5175569554\H,0,12.0190773388
 ,57.1038242055,35.174459912\H,0,11.6309480742,55.7746023023,34.0820830
 594\C,0,12.8201616324,53.3759381076,34.7725138798\H,0,12.1911253048,53
 .5095480215,33.8980122736\C,0,12.6032091292,52.3327873583,35.565232506
 9\H,0,13.1590535067,52.182023852,36.4750086098\H,0,11.8410858924,51.60
 38587907,35.3436212047\C,0,16.9368673781,50.2579086238,36.3052554402\H
 ,0,16.8782122162,49.8546909391,35.2924957803\H,0,15.9204473035,50.3886
 117081,36.6733083063\H,0,17.4449044716,49.5296402057,36.9345417036\C,0
 ,20.0210133012,50.8329063915,36.9996326323\H,0,20.7720630958,51.200829
 565,37.689621653\C,0,20.1218153496,49.5839300516,36.5541279014\H,0,19.
 4383179226,49.1746340783,35.8312805354\H,0,20.9152537001,48.9322720525
 ,36.8817861867\C,0,22.979315465,55.1412053508,37.8096924712\H,0,23.333
 8978097,54.5904666921,36.9382398696\H,0,22.8237867942,54.426825146,38.
 6192195731\H,0,23.7567429245,55.8376125439,38.1148452529\C,0,22.311561
 7877,58.313924206,38.0192424408\H,0,23.2890558101,57.9462005409,38.321
 8993245\H,0,21.8640442452,58.8357126972,38.865471412\H,0,22.452112445,
 59.0360892243,37.2143304421\C,0,20.1464846076,57.1362732366,31.3469027
 55\H,0,20.6295803817,58.0190109598,31.7540802236\H,0,19.5157605907,57.
 4375392139,30.5103824267\H,0,20.9141601713,56.4609503997,30.9688081173
 \N,0,18.6089114444,55.3421988194,32.1794585072\H,0,18.5446486279,54.84
 8990926,31.3041418834\C,0,19.3400352671,56.4791487997,32.4066703132\C,
 0,17.9987411821,55.0099374846,33.3398868547\H,0,17.3587287449,54.16044
 70589,33.4603872904\N,0,18.2985521738,55.8657542444,34.2851631854\C,0,
 19.1318593143,56.7853405758,33.720787738\H,0,19.5221625785,57.59897849
 17,34.2962263954\C,0,14.7737355357,56.3768565267,40.9231025485\H,0,14.
 317360495,55.4836801339,41.3498033158\H,0,13.9966195655,56.977122935,4
 0.4604183457\H,0,15.2221511702,56.9509210431,41.7340850356\N,0,16.8919
 317045,55.2507913407,40.203628803\H,0,17.1159902898,54.8681877962,41.1
 074121928\C,0,15.7934752151,56.0148681587,39.9060713333\C,0,17.6118899
 172,55.1100662486,39.0674568472\H,0,18.5263496033,54.5576060904,39.001
 4205626\N,0,17.036986613,55.7365021559,38.0710928318\C,0,15.9057326031
 ,56.3048831898,38.5767161659\H,0,15.2524655126,56.879305441,37.9534774
 459\\Version=ES64L-G16RevC.02\State=2-A\HF=-3172.9089284\S2=0.795826\S
 2-1=0.\S2A=0.750697\RMSD=1.657e-09\Dipole=0.2367318,0.1699154,-0.06962
 75\Quadrupole=-6.7150569,-5.9860773,12.7011342,0.733758,-2.6861259,-1.
 9326754\PG=C01 [X(C38H40Fe1N8)]\\@
 The archive entry for this job was punched.


 WOMEN HOLD UP HALF THE SKY. -- MAO TSE TUNG
 Job cpu time:       1 days 19 hours 11 minutes 16.7 seconds.
 Elapsed time:       0 days  0 hours 39 minutes 47.5 seconds.
 File lengths (MBytes):  RWF=   2700 Int=      0 D2E=      0 Chk=    245 Scr=      1
 Normal termination of Gaussian 16 at Tue Oct 15 22:53:34 2024.
