 Entering Gaussian System, Link 0=g16
 Input=5ocb12re.com
 Output=5ocb12re.log
 Initial command:
 /sw/chem/gaussian/g16_C02/a100/g16/l1.exe "/local/becsleip_8046393/Gau-356893.inp" -scrdir="/local/becsleip_8046393/"
 Entering Link 1 = /sw/chem/gaussian/g16_C02/a100/g16/l1.exe PID=    356894.
  
 Copyright (c) 1988-2021, Gaussian, Inc.  All Rights Reserved.
  
 This is part of the Gaussian(R) 16 program.  It is based on
 the Gaussian(R) 09 system (copyright 2009, Gaussian, Inc.),
 the Gaussian(R) 03 system (copyright 2003, Gaussian, Inc.),
 the Gaussian(R) 98 system (copyright 1998, Gaussian, Inc.),
 the Gaussian(R) 94 system (copyright 1995, Gaussian, Inc.),
 the Gaussian 92(TM) system (copyright 1992, Gaussian, Inc.),
 the Gaussian 90(TM) system (copyright 1990, Gaussian, Inc.),
 the Gaussian 88(TM) system (copyright 1988, Gaussian, Inc.),
 the Gaussian 86(TM) system (copyright 1986, Carnegie Mellon
 University), and the Gaussian 82(TM) system (copyright 1983,
 Carnegie Mellon University). Gaussian is a federally registered
 trademark of Gaussian, Inc.
  
 This software contains proprietary and confidential information,
 including trade secrets, belonging to Gaussian, Inc.
  
 This software is provided under written license and may be
 used, copied, transmitted, or stored only in accord with that
 written license.
  
 The following legend is applicable only to US Government
 contracts under FAR:
  
                    RESTRICTED RIGHTS LEGEND
  
 Use, reproduction and disclosure by the US Government is
 subject to restrictions as set forth in subparagraphs (a)
 and (c) of the Commercial Computer Software - Restricted
 Rights clause in FAR 52.227-19.
  
 Gaussian, Inc.
 340 Quinnipiac St., Bldg. 40, Wallingford CT 06492
  
  
 ---------------------------------------------------------------
 Warning -- This program may not be used in any manner that
 competes with the business of Gaussian, Inc. or will provide
 assistance to any competitor of Gaussian, Inc.  The licensee
 of this program is prohibited from giving any competitor of
 Gaussian, Inc. access to this program.  By using this program,
 the user acknowledges that Gaussian, Inc. is engaged in the
 business of creating and licensing software in the field of
 computational chemistry and represents and warrants to the
 licensee that it is not a competitor of Gaussian, Inc. and that
 it will not use this program in any manner prohibited above.
 ---------------------------------------------------------------
  

 Cite this work as:
 Gaussian 16, Revision C.02,
 M. J. Frisch, G. W. Trucks, H. B. Schlegel, G. E. Scuseria, 
 M. A. Robb, J. R. Cheeseman, G. Scalmani, V. Barone, 
 G. A. Petersson, H. Nakatsuji, X. Li, M. Caricato, A. V. Marenich, 
 J. Bloino, B. G. Janesko, R. Gomperts, B. Mennucci, H. P. Hratchian, 
 J. V. Ortiz, A. F. Izmaylov, J. L. Sonnenberg, D. Williams-Young, 
 F. Ding, F. Lipparini, F. Egidi, J. Goings, B. Peng, A. Petrone, 
 T. Henderson, D. Ranasinghe, V. G. Zakrzewski, J. Gao, N. Rega, 
 G. Zheng, W. Liang, M. Hada, M. Ehara, K. Toyota, R. Fukuda, 
 J. Hasegawa, M. Ishida, T. Nakajima, Y. Honda, O. Kitao, H. Nakai, 
 T. Vreven, K. Throssell, J. A. Montgomery, Jr., J. E. Peralta, 
 F. Ogliaro, M. J. Bearpark, J. J. Heyd, E. N. Brothers, K. N. Kudin, 
 V. N. Staroverov, T. A. Keith, R. Kobayashi, J. Normand, 
 K. Raghavachari, A. P. Rendell, J. C. Burant, S. S. Iyengar, 
 J. Tomasi, M. Cossi, J. M. Millam, M. Klene, C. Adamo, R. Cammi, 
 J. W. Ochterski, R. L. Martin, K. Morokuma, O. Farkas, 
 J. B. Foresman, and D. J. Fox, Gaussian, Inc., Wallingford CT, 2019.
 
 ******************************************
 Gaussian 16:  ES64L-G16RevC.02  7-Dec-2021
                13-Oct-2024 
 ******************************************
 %mem=16GB
 %CPU=0-71
 SetSPE:  set environment variable "OMP_PROC_BIND" = "true"
 SetSPE:  set environment variable "OMP_PLACES" = "{0},{1},{2},{3},{4},{5},{6},{7},{8},{9},{10},{11},{12},{13},{14},{15},{16},{17},{18},{19},{20},{21},{22},{23},{24},{25},{26},{27},{28},{29},{30},{31},{32},{33},{34},{35},{36},{37},{38},{39},{40},{41},{42},{43},{44},{45},{46},{47},{48},{49},{50},{51},{52},{53},{54},{55},{56},{57},{58},{59},{60},{61},{62},{63},{64},{65},{66},{67},{68},{69},{70},{71}"
 Will use up to   72 processors via shared memory.
 %gpucpu=0,1,2,3=0,1,2,3
 Will use    4 GPUs:
 Thread  CPU   GPU
      0    0     0
      1    1     1
      2    2     2
      3    3     3
      4    4    -1
      5    5    -1
      6    6    -1
      7    7    -1
      8    8    -1
      9    9    -1
     10   10    -1
     11   11    -1
     12   12    -1
     13   13    -1
     14   14    -1
     15   15    -1
     16   16    -1
     17   17    -1
     18   18    -1
     19   19    -1
     20   20    -1
     21   21    -1
     22   22    -1
     23   23    -1
     24   24    -1
     25   25    -1
     26   26    -1
     27   27    -1
     28   28    -1
     29   29    -1
     30   30    -1
     31   31    -1
     32   32    -1
     33   33    -1
     34   34    -1
     35   35    -1
     36   36    -1
     37   37    -1
     38   38    -1
     39   39    -1
     40   40    -1
     41   41    -1
     42   42    -1
     43   43    -1
     44   44    -1
     45   45    -1
     46   46    -1
     47   47    -1
     48   48    -1
     49   49    -1
     50   50    -1
     51   51    -1
     52   52    -1
     53   53    -1
     54   54    -1
     55   55    -1
     56   56    -1
     57   57    -1
     58   58    -1
     59   59    -1
     60   60    -1
     61   61    -1
     62   62    -1
     63   63    -1
     64   64    -1
     65   65    -1
     66   66    -1
     67   67    -1
     68   68    -1
     69   69    -1
     70   70    -1
     71   71    -1
 SetGPE:  set environment variable "OMP_PROC_BIND" = "true"
 SetGPE:  set environment variable "OMP_PLACES" = "{0},{1},{2},{3},{4},{5},{6},{7},{8},{9},{10},{11},{12},{13},{14},{15},{16},{17},{18},{19},{20},{21},{22},{23},{24},{25},{26},{27},{28},{29},{30},{31},{32},{33},{34},{35},{36},{37},{38},{39},{40},{41},{42},{43},{44},{45},{46},{47},{48},{49},{50},{51},{52},{53},{54},{55},{56},{57},{58},{59},{60},{61},{62},{63},{64},{65},{66},{67},{68},{69},{70},{71}"
 %oldchk=5ocb_II_S.chk
 %chk=5ocb_II_Sre.chk
 Properties for Device   0
 Minimum vector length:                              32
 Maximum vector length:                            1024
 Number of SMPs:                                    108
 Maximum number of threads per SMP:                2048
 Number of ASync Engines:                             5
 Memory:                                           9207742464
 Properties for Device   1
 Minimum vector length:                              32
 Maximum vector length:                            1024
 Number of SMPs:                                    108
 Maximum number of threads per SMP:                2048
 Number of ASync Engines:                             5
 Memory:                                           9207742464
 Properties for Device   2
 Minimum vector length:                              32
 Maximum vector length:                            1024
 Number of SMPs:                                    108
 Maximum number of threads per SMP:                2048
 Number of ASync Engines:                             5
 Memory:                                           9207742464
 Properties for Device   3
 Minimum vector length:                              32
 Maximum vector length:                            1024
 Number of SMPs:                                    108
 Maximum number of threads per SMP:                2048
 Number of ASync Engines:                             5
 Memory:                                           9207742464
   8286968217 words of memory will be used on each GPU.
 Copying data from "5ocb_II_S.chk" to current chk file "5ocb_II_Sre.chk"
 IOpt=  2 FromEx=T IUOpen= 4 IOptOp= 5 NList=   0 IFRang= 0 IUIn= 4 IUOut= 2.
 --------------------------------------
 # apfd/gen scf=maxcycle=999 geom=check
 --------------------------------------
 1/29=2,38=1,172=1/1;
 2/12=2,40=1/2;
 3/5=7,11=2,14=-4,25=1,30=1,74=-44/1,2,3;
 4//1;
 5/5=2,7=999,38=5/2;
 6/7=2,8=2,9=2,10=2,28=1/1;
 99/5=1,9=1/99;
 ----------
 5ocb_III_D
 ----------
 Structure from the checkpoint file:  "5ocb_II_Sre.chk"
 Charge =  1 Multiplicity = 2
 Z-Matrix found in chk file.
 Fe,0,39.351,59.715,17.637
 N,0,40.711,61.199,17.847
 N,0,37.887,60.949,17.914
 N,0,37.962,58.169,17.379
 N,0,40.914,58.393,17.322
 C,0,42.046,61.115,17.633
 C,0,42.638,62.39,17.893
 C,0,41.63,63.23,18.282
 C,0,40.41,62.469,18.261
 C,0,37.99,62.248,18.344
 C,0,36.655,62.859,18.469
 C,0,35.774,61.912,18.106
 C,0,36.555,60.726,17.756
 C,0,36.628,58.35,17.284
 C,0,36.012,57.046,17.057
 C,0,37.057,56.121,17.036
 C,0,38.27,56.857,17.262
 C,0,40.738,57.078,17.201
 C,0,42.056,56.487,16.927
 C,0,42.953,57.533,16.944
 C,0,42.189,58.718,17.165
 C,0,42.741,60.003,17.237
 H,0,43.788,60.126,16.961
 C,0,39.158,62.961,18.58
 H,0,39.085,63.948,19.035
 C,0,35.942,59.53,17.389
 H,0,34.873,59.534,17.177
 C,0,39.545,56.332,17.253
 H,0,39.637,55.247,17.289
 C,0,44.126,62.682,17.775
 H,0,44.229,62.371,16.714
 H,0,44.468,61.852,18.429
 H,0,44.751,63.584,17.948
 C,0,41.744,64.718,18.67
 H,0,41.263,64.617,19.667
 H,0,40.992,65.093,17.944
 H,0,42.587,65.437,18.748
 C,0,44.454,57.492,16.722
 H,0,44.605,56.775,17.557
 H,0,45.349,58.145,16.642
 H,0,44.314,56.922,15.779
 C,0,42.263,55.031,16.967
 H,0,42.199,54.489,16.017
 C,0,43.265,54.584,17.763
 H,0,43.441,55.041,18.748
 H,0,43.914,53.759,17.434
 C,0,36.976,54.623,16.836
 H,0,37.512,54.35,17.77
 H,0,37.69,54.579,15.986
 H,0,36.146,53.902,16.673
 C,0,34.528,56.864,17.028
 H,0,34.073,57.784,16.682
 C,0,33.912,55.775,17.582
 H,0,34.5,54.899,17.892
 H,0,32.821,55.763,17.724
 C,0,34.262,62.079,18.085
 H,0,34.263,62.51,19.109
 H,0,33.341,61.472,17.951
 H,0,34.282,62.908,17.346
 C,0,36.258,64.266,18.916
 H,0,35.642,63.935,19.78
 H,0,35.596,64.407,18.035
 H,0,36.755,65.225,19.175
 C,0,39.595,59.216,12.015
 H,0,40.434,59.761,11.532
 H,0,38.663,59.405,11.44
 H,0,39.826,58.129,12.018
 N,0,39.136,61.008,13.723
 H,0,38.997,61.73,13.046
 C,0,39.429,59.699,13.416
 C,0,39.069,61.152,15.035
 H,0,38.874,62.094,15.546
 N,0,39.277,59.97,15.591
 C,0,39.516,59.047,14.598
 H,0,39.726,58.011,14.83
 C,0,37.017,59.875,21.037
 H,0,37.504,60.873,21.062
 H,0,36.637,59.64,22.054
 H,0,36.169,59.912,20.32
 C,0,38.02,58.813,20.6
 H,0,37.511,58.145,19.874
 H,0,38.291,58.215,21.495
 S,0,39.532,59.443,19.845
 C,0,40.661,58.131,20.348
 H,0,41.672,58.279,19.912
 H,0,40.281,57.145,20.005
 H,0,40.763,58.116,21.454
 Recover connectivity data from disk.
 Stoichiometry    C37H42FeN6S(1+,2)
 Framework group  C1[X(C37H42FeN6S)]
 Deg. of freedom   255
 Full point group                 C1      NOp   1
 Largest Abelian subgroup         C1      NOp   1
 Largest concise Abelian subgroup C1      NOp   1
                         Standard orientation:                         
 ---------------------------------------------------------------------
 Center     Atomic      Atomic             Coordinates (Angstroms)
 Number     Number       Type             X           Y           Z
 ---------------------------------------------------------------------
      1         26           0        0.010960    0.243495   -0.105717
      2          7           0       -0.793496    2.099893   -0.156607
      3          7           0        1.801158    0.967709    0.010409
      4          7           0        0.816722   -1.687545   -0.017197
      5          7           0       -1.904658   -0.536912   -0.211783
      6          6           0       -2.108878    2.418180   -0.097088
      7          6           0       -2.244880    3.839833   -0.161065
      8          6           0       -0.984277    4.359979   -0.276456
      9          6           0       -0.066210    3.253149   -0.282919
     10          6           0        2.159219    2.280552   -0.166080
     11          6           0        3.618169    2.440892   -0.035982
     12          6           0        4.108216    1.216787    0.221233
     13          6           0        2.964055    0.306348    0.253693
     14          6           0        2.112005   -1.962440    0.243604
     15          6           0        2.267082   -3.413832    0.272115
     16          6           0        1.003575   -3.944848    0.008176
     17          6           0        0.116564   -2.832081   -0.189565
     18          6           0       -2.150632   -1.840649   -0.332649
     19          6           0       -3.610812   -2.010706   -0.311769
     20          6           0       -4.140246   -0.742207   -0.213667
     21          6           0       -3.032486    0.152920   -0.122145
     22          6           0       -3.157125    1.542112    0.003249
     23          1           0       -4.149164    1.951540    0.192304
     24          6           0        1.309264    3.358887   -0.373584
     25          1           0        1.743724    4.327458   -0.617790
     26          6           0        3.126762   -1.064729    0.439571
     27          1           0        4.101436   -1.437687    0.753631
     28          6           0       -1.242133   -2.913543   -0.410102
     29          1           0       -1.647274   -3.891996   -0.665985
     30          6           0       -3.577038    4.573395   -0.137121
     31          1           0       -3.932200    4.152747    0.827227
     32          1           0       -4.045117    4.008725   -0.971165
     33          1           0       -3.869092    5.643828   -0.192237
     34          6           0       -0.586656    5.846462   -0.376200
     35          1           0       -0.008641    5.750708   -1.320817
     36          1           0        0.120313    5.843029    0.480181
     37          1           0       -1.153431    6.801484   -0.396013
     38          6           0       -5.600324   -0.331552   -0.154483
     39          1           0       -5.826617   -0.824282   -1.124082
     40          1           0       -6.260388    0.554237   -0.038178
     41          1           0       -5.785682   -1.054212    0.668410
     42          6           0       -4.234436   -3.298116   -0.655356
     43          1           0       -4.484078   -3.971235    0.172262
     44          6           0       -5.187394   -3.270708   -1.618968
     45          1           0       -5.063145   -2.635561   -2.508463
     46          1           0       -6.096157   -3.883157   -1.523455
     47          6           0        0.601181   -5.401123   -0.080753
     48          1           0        0.160456   -5.339917   -1.098690
     49          1           0       -0.216630   -5.343213    0.668957
     50          1           0        1.141878   -6.366909    0.020313
     51          6           0        3.605436   -4.065965    0.412658
     52          1           0        4.254773   -3.406193    0.974978
     53          6           0        3.946400   -5.196326   -0.278949
     54          1           0        3.179375   -5.777725   -0.810803
     55          1           0        4.992152   -5.536840   -0.311228
     56          6           0        5.578437    0.882908    0.424820
     57          1           0        5.865763    1.443440   -0.490377
     58          1           0        6.243387   -0.001206    0.528882
     59          1           0        5.692140    1.550079    1.305568
     60          6           0        4.481910    3.696312   -0.158218
     61          1           0        5.097605    3.321775   -1.004478
     62          1           0        5.010091    3.479393    0.794806
     63          1           0        4.340797    4.792028   -0.273388
     64          6           0       -1.243608   -1.009238    5.258250
     65          1           0       -1.945986   -0.304379    5.752288
     66          1           0       -0.399205   -1.221132    5.948941
     67          1           0       -1.785360   -1.949898    5.020338
     68          7           0       -0.010047    0.779932    3.986869
     69          1           0        0.231053    1.305508    4.802084
     70          6           0       -0.724784   -0.395866    4.001968
     71          6           0        0.300429    1.094780    2.741460
     72          1           0        0.845038    1.990662    2.445982
     73          7           0       -0.161904    0.143063    1.947731
     74          6           0       -0.817347   -0.795077    2.712837
     75          1           0       -1.288419   -1.659615    2.263519
     76          6           0        2.785939    0.164921   -3.159645
     77          1           0        2.629441    1.257845   -3.037892
     78          1           0        3.231943   -0.020430   -4.159965
     79          1           0        3.483725   -0.183785   -2.368406
     80          6           0        1.456248   -0.571612   -3.040215
     81          1           0        1.622843   -1.471200   -2.411433
     82          1           0        1.161866   -0.905316   -4.057098
     83         16           0        0.103236    0.387413   -2.331202
     84          6           0       -1.273344   -0.397469   -3.190260
     85          1           0       -2.248943   -0.000893   -2.836628
     86          1           0       -1.263542   -1.493676   -3.010043
     87          1           0       -1.201575   -0.208462   -4.282502
 ---------------------------------------------------------------------
 Rotational constants (GHZ):           0.0834155           0.0805817           0.0579998
 General basis read from cards:  (5D, 7F)
 There are   784 symmetry adapted cartesian basis functions of A   symmetry.
 There are   737 symmetry adapted basis functions of A   symmetry.
   737 basis functions,  1510 primitive gaussians,   784 cartesian basis functions
   174 alpha electrons      173 beta electrons
       nuclear repulsion energy      7144.3753828506 Hartrees.
 NAtoms=   87 NActive=   87 NUniq=   87 SFac= 1.00D+00 NAtFMM=   60 NAOKFM=T Big=T
 Integral buffers will be    131072 words long.
 Raffenetti 2 integral format.
 Two-electron integral symmetry is turned on.
 R6APFD:  NTU= -4 IXU= 1 FactS= 1.050
 Nuclear repulsion after empirical dispersion term =     7144.1937279499 Hartrees.
 One-electron integrals computed using PRISM.
 NBasis=   737 RedAO= T EigKep=  3.10D-04  NBF=   737
 NBsUse=   737 1.00D-06 EigRej= -1.00D+00 NBFU=   737
 ExpMin= 4.20D-02 ExpMax= 3.01D+05 ExpMxC= 3.30D+03 IAcc=3 IRadAn=         5 AccDes= 0.00D+00
 Harris functional with IExCor= 3731 and IRadAn=       5 diagonalized for initial guess.
 HarFok:  IExCor= 3731 AccDes= 0.00D+00 IRadAn=         5 IDoV= 1 UseB2=F ITyADJ=14
 ICtDFT=  3500011 ScaDFX=  1.000000  1.000000  1.000000  1.000000
 FoFCou: FMM=F IPFlag=           0 FMFlag=      100000 FMFlg1=        2001
         NFxFlg=           0 DoJE=T BraDBF=F KetDBF=T FulRan=T
         wScrn=  0.000000 ICntrl=       500 IOpCl=  0 I1Cent=   200000004 NGrid=           0
         NMat0=    1 NMatS0=      1 NMatT0=    0 NMatD0=    1 NMtDS0=    0 NMtDT0=    0
 Petite list used in FoFCou.
 Initial guess <Sx>= 0.0000 <Sy>= 0.0000 <Sz>= 0.5000 <S**2>= 0.7500 S= 0.5000
 Requested convergence on RMS density matrix=1.00D-08 within 999 cycles.
 Requested convergence on MAX density matrix=1.00D-06.
 Requested convergence on             energy=1.00D-06.
 No special actions if energy rises.
 EnCoef did   100 forward-backward iterations
 EnCoef did   100 forward-backward iterations
 EnCoef did   100 forward-backward iterations
 EnCoef did   100 forward-backward iterations
 EnCoef did     4 forward-backward iterations
 EnCoef did     2 forward-backward iterations
 EnCoef did     3 forward-backward iterations
 Restarting incremental Fock formation.
 Restarting incremental Fock formation.
 Restarting incremental Fock formation.
 SCF Done:  E(UAPFD) =  -3423.77247643     A.U. after   67 cycles
            NFock= 67  Conv=0.36D-08     -V/T= 2.0040
 <Sx>= 0.0000 <Sy>= 0.0000 <Sz>= 0.5000 <S**2>= 0.7965 S= 0.5230
 <L.S>=  0.00000000000    
 Annihilation of the first spin contaminant:
 S**2 before annihilation     0.7965,   after     0.7509

 **********************************************************************

            Population analysis using the SCF Density.

 **********************************************************************

 Orbital symmetries:
 Alpha Orbitals:
       Occupied  (A) (A) (A) (A) (A) (A) (A) (A) (A) (A) (A) (A)
                 (A) (A) (A) (A) (A) (A) (A) (A) (A) (A) (A) (A)
                 (A) (A) (A) (A) (A) (A) (A) (A) (A) (A) (A) (A)
                 (A) (A) (A) (A) (A) (A) (A) (A) (A) (A) (A) (A)
                 (A) (A) (A) (A) (A) (A) (A) (A) (A) (A) (A) (A)
                 (A) (A) (A) (A) (A) (A) (A) (A) (A) (A) (A) (A)
                 (A) (A) (A) (A) (A) (A) (A) (A) (A) (A) (A) (A)
                 (A) (A) (A) (A) (A) (A) (A) (A) (A) (A) (A) (A)
                 (A) (A) (A) (A) (A) (A) (A) (A) (A) (A) (A) (A)
                 (A) (A) (A) (A) (A) (A) (A) (A) (A) (A) (A) (A)
                 (A) (A) (A) (A) (A) (A) (A) (A) (A) (A) (A) (A)
                 (A) (A) (A) (A) (A) (A) (A) (A) (A) (A) (A) (A)
                 (A) (A) (A) (A) (A) (A) (A) (A) (A) (A) (A) (A)
                 (A) (A) (A) (A) (A) (A) (A) (A) (A) (A) (A) (A)
                 (A) (A) (A) (A) (A) (A)
       Virtual   (A) (A) (A) (A) (A) (A) (A) (A) (A) (A) (A) (A)
                 (A) (A) (A) (A) (A) (A) (A) (A) (A) (A) (A) (A)
                 (A) (A) (A) (A) (A) (A) (A) (A) (A) (A) (A) (A)
                 (A) (A) (A) (A) (A) (A) (A) (A) (A) (A) (A) (A)
                 (A) (A) (A) (A) (A) (A) (A) (A) (A) (A) (A) (A)
                 (A) (A) (A) (A) (A) (A) (A) (A) (A) (A) (A) (A)
                 (A) (A) (A) (A) (A) (A) (A) (A) (A) (A) (A) (A)
                 (A) (A) (A) (A) (A) (A) (A) (A) (A) (A) (A) (A)
                 (A) (A) (A) (A) (A) (A) (A) (A) (A) (A) (A) (A)
                 (A) (A) (A) (A) (A) (A) (A) (A) (A) (A) (A) (A)
                 (A) (A) (A) (A) (A) (A) (A) (A) (A) (A) (A) (A)
                 (A) (A) (A) (A) (A) (A) (A) (A) (A) (A) (A) (A)
                 (A) (A) (A) (A) (A) (A) (A) (A) (A) (A) (A) (A)
                 (A) (A) (A) (A) (A) (A) (A) (A) (A) (A) (A) (A)
                 (A) (A) (A) (A) (A) (A) (A) (A) (A) (A) (A) (A)
                 (A) (A) (A) (A) (A) (A) (A) (A) (A) (A) (A) (A)
                 (A) (A) (A) (A) (A) (A) (A) (A) (A) (A) (A) (A)
                 (A) (A) (A) (A) (A) (A) (A) (A) (A) (A) (A) (A)
                 (A) (A) (A) (A) (A) (A) (A) (A) (A) (A) (A) (A)
                 (A) (A) (A) (A) (A) (A) (A) (A) (A) (A) (A) (A)
                 (A) (A) (A) (A) (A) (A) (A) (A) (A) (A) (A) (A)
                 (A) (A) (A) (A) (A) (A) (A) (A) (A) (A) (A) (A)
                 (A) (A) (A) (A) (A) (A) (A) (A) (A) (A) (A) (A)
                 (A) (A) (A) (A) (A) (A) (A) (A) (A) (A) (A) (A)
                 (A) (A) (A) (A) (A) (A) (A) (A) (A) (A) (A) (A)
                 (A) (A) (A) (A) (A) (A) (A) (A) (A) (A) (A) (A)
                 (A) (A) (A) (A) (A) (A) (A) (A) (A) (A) (A) (A)
                 (A) (A) (A) (A) (A) (A) (A) (A) (A) (A) (A) (A)
                 (A) (A) (A) (A) (A) (A) (A) (A) (A) (A) (A) (A)
                 (A) (A) (A) (A) (A) (A) (A) (A) (A) (A) (A) (A)
                 (A) (A) (A) (A) (A) (A) (A) (A) (A) (A) (A) (A)
                 (A) (A) (A) (A) (A) (A) (A) (A) (A) (A) (A) (A)
                 (A) (A) (A) (A) (A) (A) (A) (A) (A) (A) (A) (A)
                 (A) (A) (A) (A) (A) (A) (A) (A) (A) (A) (A) (A)
                 (A) (A) (A) (A) (A) (A) (A) (A) (A) (A) (A) (A)
                 (A) (A) (A) (A) (A) (A) (A) (A) (A) (A) (A) (A)
                 (A) (A) (A) (A) (A) (A) (A) (A) (A) (A) (A) (A)
                 (A) (A) (A) (A) (A) (A) (A) (A) (A) (A) (A) (A)
                 (A) (A) (A) (A) (A) (A) (A) (A) (A) (A) (A) (A)
                 (A) (A) (A) (A) (A) (A) (A) (A) (A) (A) (A) (A)
                 (A) (A) (A) (A) (A) (A) (A) (A) (A) (A) (A) (A)
                 (A) (A) (A) (A) (A) (A) (A) (A) (A) (A) (A) (A)
                 (A) (A) (A) (A) (A) (A) (A) (A) (A) (A) (A) (A)
                 (A) (A) (A) (A) (A) (A) (A) (A) (A) (A) (A) (A)
                 (A) (A) (A) (A) (A) (A) (A) (A) (A) (A) (A) (A)
                 (A) (A) (A) (A) (A) (A) (A) (A) (A) (A) (A) (A)
                 (A) (A) (A) (A) (A) (A) (A) (A) (A) (A) (A)
 Beta  Orbitals:
       Occupied  (A) (A) (A) (A) (A) (A) (A) (A) (A) (A) (A) (A)
                 (A) (A) (A) (A) (A) (A) (A) (A) (A) (A) (A) (A)
                 (A) (A) (A) (A) (A) (A) (A) (A) (A) (A) (A) (A)
                 (A) (A) (A) (A) (A) (A) (A) (A) (A) (A) (A) (A)
                 (A) (A) (A) (A) (A) (A) (A) (A) (A) (A) (A) (A)
                 (A) (A) (A) (A) (A) (A) (A) (A) (A) (A) (A) (A)
                 (A) (A) (A) (A) (A) (A) (A) (A) (A) (A) (A) (A)
                 (A) (A) (A) (A) (A) (A) (A) (A) (A) (A) (A) (A)
                 (A) (A) (A) (A) (A) (A) (A) (A) (A) (A) (A) (A)
                 (A) (A) (A) (A) (A) (A) (A) (A) (A) (A) (A) (A)
                 (A) (A) (A) (A) (A) (A) (A) (A) (A) (A) (A) (A)
                 (A) (A) (A) (A) (A) (A) (A) (A) (A) (A) (A) (A)
                 (A) (A) (A) (A) (A) (A) (A) (A) (A) (A) (A) (A)
                 (A) (A) (A) (A) (A) (A) (A) (A) (A) (A) (A) (A)
                 (A) (A) (A) (A) (A)
       Virtual   (A) (A) (A) (A) (A) (A) (A) (A) (A) (A) (A) (A)
                 (A) (A) (A) (A) (A) (A) (A) (A) (A) (A) (A) (A)
                 (A) (A) (A) (A) (A) (A) (A) (A) (A) (A) (A) (A)
                 (A) (A) (A) (A) (A) (A) (A) (A) (A) (A) (A) (A)
                 (A) (A) (A) (A) (A) (A) (A) (A) (A) (A) (A) (A)
                 (A) (A) (A) (A) (A) (A) (A) (A) (A) (A) (A) (A)
                 (A) (A) (A) (A) (A) (A) (A) (A) (A) (A) (A) (A)
                 (A) (A) (A) (A) (A) (A) (A) (A) (A) (A) (A) (A)
                 (A) (A) (A) (A) (A) (A) (A) (A) (A) (A) (A) (A)
                 (A) (A) (A) (A) (A) (A) (A) (A) (A) (A) (A) (A)
                 (A) (A) (A) (A) (A) (A) (A) (A) (A) (A) (A) (A)
                 (A) (A) (A) (A) (A) (A) (A) (A) (A) (A) (A) (A)
                 (A) (A) (A) (A) (A) (A) (A) (A) (A) (A) (A) (A)
                 (A) (A) (A) (A) (A) (A) (A) (A) (A) (A) (A) (A)
                 (A) (A) (A) (A) (A) (A) (A) (A) (A) (A) (A) (A)
                 (A) (A) (A) (A) (A) (A) (A) (A) (A) (A) (A) (A)
                 (A) (A) (A) (A) (A) (A) (A) (A) (A) (A) (A) (A)
                 (A) (A) (A) (A) (A) (A) (A) (A) (A) (A) (A) (A)
                 (A) (A) (A) (A) (A) (A) (A) (A) (A) (A) (A) (A)
                 (A) (A) (A) (A) (A) (A) (A) (A) (A) (A) (A) (A)
                 (A) (A) (A) (A) (A) (A) (A) (A) (A) (A) (A) (A)
                 (A) (A) (A) (A) (A) (A) (A) (A) (A) (A) (A) (A)
                 (A) (A) (A) (A) (A) (A) (A) (A) (A) (A) (A) (A)
                 (A) (A) (A) (A) (A) (A) (A) (A) (A) (A) (A) (A)
                 (A) (A) (A) (A) (A) (A) (A) (A) (A) (A) (A) (A)
                 (A) (A) (A) (A) (A) (A) (A) (A) (A) (A) (A) (A)
                 (A) (A) (A) (A) (A) (A) (A) (A) (A) (A) (A) (A)
                 (A) (A) (A) (A) (A) (A) (A) (A) (A) (A) (A) (A)
                 (A) (A) (A) (A) (A) (A) (A) (A) (A) (A) (A) (A)
                 (A) (A) (A) (A) (A) (A) (A) (A) (A) (A) (A) (A)
                 (A) (A) (A) (A) (A) (A) (A) (A) (A) (A) (A) (A)
                 (A) (A) (A) (A) (A) (A) (A) (A) (A) (A) (A) (A)
                 (A) (A) (A) (A) (A) (A) (A) (A) (A) (A) (A) (A)
                 (A) (A) (A) (A) (A) (A) (A) (A) (A) (A) (A) (A)
                 (A) (A) (A) (A) (A) (A) (A) (A) (A) (A) (A) (A)
                 (A) (A) (A) (A) (A) (A) (A) (A) (A) (A) (A) (A)
                 (A) (A) (A) (A) (A) (A) (A) (A) (A) (A) (A) (A)
                 (A) (A) (A) (A) (A) (A) (A) (A) (A) (A) (A) (A)
                 (A) (A) (A) (A) (A) (A) (A) (A) (A) (A) (A) (A)
                 (A) (A) (A) (A) (A) (A) (A) (A) (A) (A) (A) (A)
                 (A) (A) (A) (A) (A) (A) (A) (A) (A) (A) (A) (A)
                 (A) (A) (A) (A) (A) (A) (A) (A) (A) (A) (A) (A)
                 (A) (A) (A) (A) (A) (A) (A) (A) (A) (A) (A) (A)
                 (A) (A) (A) (A) (A) (A) (A) (A) (A) (A) (A) (A)
                 (A) (A) (A) (A) (A) (A) (A) (A) (A) (A) (A) (A)
                 (A) (A) (A) (A) (A) (A) (A) (A) (A) (A) (A) (A)
                 (A) (A) (A) (A) (A) (A) (A) (A) (A) (A) (A) (A)
 The electronic state is 2-A.
 Alpha  occ. eigenvalues -- -256.36248 -89.07653 -30.23221 -26.07882 -26.06812
 Alpha  occ. eigenvalues --  -26.05800 -14.52888 -14.48601 -14.47304 -14.46416
 Alpha  occ. eigenvalues --  -14.45999 -14.45969 -10.37103 -10.34258 -10.33548
 Alpha  occ. eigenvalues --  -10.33431 -10.32913 -10.32904 -10.32808 -10.32778
 Alpha  occ. eigenvalues --  -10.32755 -10.32652 -10.32453 -10.32246 -10.32007
 Alpha  occ. eigenvalues --  -10.31107 -10.30865 -10.30855 -10.30524 -10.30478
 Alpha  occ. eigenvalues --  -10.30366 -10.30163 -10.30006 -10.29962 -10.29780
 Alpha  occ. eigenvalues --  -10.29697 -10.29692 -10.29650 -10.29537 -10.29474
 Alpha  occ. eigenvalues --  -10.29455 -10.29033 -10.28934 -10.28669 -10.28606
 Alpha  occ. eigenvalues --  -10.28510 -10.28505 -10.28426 -10.28367  -8.10486
 Alpha  occ. eigenvalues --   -6.05082  -6.04817  -6.04266  -3.62010  -2.40388
 Alpha  occ. eigenvalues --   -2.38095  -2.35834  -1.16070  -1.08574  -1.07763
 Alpha  occ. eigenvalues --   -1.07081  -1.06409  -1.00579  -0.93956  -0.92892
 Alpha  occ. eigenvalues --   -0.92255  -0.91242  -0.90441  -0.90113  -0.90026
 Alpha  occ. eigenvalues --   -0.89794  -0.89460  -0.85948  -0.85333  -0.84728
 Alpha  occ. eigenvalues --   -0.84478  -0.83249  -0.82130  -0.80846  -0.79918
 Alpha  occ. eigenvalues --   -0.78821  -0.78695  -0.77814  -0.76759  -0.76148
 Alpha  occ. eigenvalues --   -0.74804  -0.74440  -0.74320  -0.71594  -0.69587
 Alpha  occ. eigenvalues --   -0.69412  -0.68922  -0.67999  -0.67801  -0.65707
 Alpha  occ. eigenvalues --   -0.64457  -0.63589  -0.62824  -0.62256  -0.61224
 Alpha  occ. eigenvalues --   -0.61120  -0.60310  -0.58084  -0.57916  -0.57788
 Alpha  occ. eigenvalues --   -0.57424  -0.57311  -0.56951  -0.55961  -0.55206
 Alpha  occ. eigenvalues --   -0.55008  -0.54995  -0.54374  -0.54123  -0.53798
 Alpha  occ. eigenvalues --   -0.53476  -0.53389  -0.53069  -0.52724  -0.52304
 Alpha  occ. eigenvalues --   -0.52140  -0.52000  -0.51567  -0.51233  -0.51094
 Alpha  occ. eigenvalues --   -0.50906  -0.50784  -0.50583  -0.50108  -0.50009
 Alpha  occ. eigenvalues --   -0.49868  -0.49735  -0.49554  -0.49490  -0.49327
 Alpha  occ. eigenvalues --   -0.48946  -0.48760  -0.48576  -0.48395  -0.47996
 Alpha  occ. eigenvalues --   -0.47532  -0.47358  -0.46737  -0.46378  -0.45450
 Alpha  occ. eigenvalues --   -0.44986  -0.44507  -0.44187  -0.44039  -0.43872
 Alpha  occ. eigenvalues --   -0.43052  -0.42895  -0.42683  -0.41946  -0.41882
 Alpha  occ. eigenvalues --   -0.41617  -0.41054  -0.40842  -0.39760  -0.39330
 Alpha  occ. eigenvalues --   -0.38661  -0.38481  -0.37844  -0.36936  -0.36255
 Alpha  occ. eigenvalues --   -0.36092  -0.34244  -0.33749  -0.32860  -0.31784
 Alpha  occ. eigenvalues --   -0.31614  -0.30250  -0.28619  -0.28117
 Alpha virt. eigenvalues --   -0.17001  -0.16529  -0.16174  -0.13785  -0.11056
 Alpha virt. eigenvalues --   -0.09348  -0.07389  -0.06804  -0.05855  -0.03742
 Alpha virt. eigenvalues --   -0.03557  -0.01714  -0.01352  -0.01057  -0.00382
 Alpha virt. eigenvalues --    0.00238   0.00380   0.00841   0.01966   0.02770
 Alpha virt. eigenvalues --    0.02920   0.02973   0.03208   0.03431   0.03546
 Alpha virt. eigenvalues --    0.03755   0.03935   0.03963   0.04555   0.04673
 Alpha virt. eigenvalues --    0.04792   0.05180   0.05250   0.05552   0.05696
 Alpha virt. eigenvalues --    0.05898   0.06118   0.06361   0.06611   0.06629
 Alpha virt. eigenvalues --    0.06794   0.06981   0.07312   0.07609   0.07827
 Alpha virt. eigenvalues --    0.08355   0.08878   0.09124   0.09248   0.09437
 Alpha virt. eigenvalues --    0.10116   0.10175   0.10407   0.10808   0.10953
 Alpha virt. eigenvalues --    0.11949   0.12063   0.12570   0.13008   0.13103
 Alpha virt. eigenvalues --    0.13502   0.13778   0.13901   0.14199   0.14486
 Alpha virt. eigenvalues --    0.14745   0.15150   0.15488   0.16210   0.16732
 Alpha virt. eigenvalues --    0.17195   0.17649   0.18403   0.18496   0.19036
 Alpha virt. eigenvalues --    0.19352   0.20431   0.20625   0.21161   0.21983
 Alpha virt. eigenvalues --    0.22286   0.22655   0.23203   0.24319   0.25189
 Alpha virt. eigenvalues --    0.25431   0.25767   0.26063   0.26692   0.27642
 Alpha virt. eigenvalues --    0.28371   0.28732   0.28979   0.29543   0.30950
 Alpha virt. eigenvalues --    0.31644   0.32377   0.33131   0.33398   0.34006
 Alpha virt. eigenvalues --    0.34608   0.34709   0.35904   0.36287   0.37236
 Alpha virt. eigenvalues --    0.37465   0.38098   0.38503   0.38712   0.38962
 Alpha virt. eigenvalues --    0.40274   0.40732   0.40931   0.41560   0.41806
 Alpha virt. eigenvalues --    0.42293   0.42870   0.43633   0.43816   0.44011
 Alpha virt. eigenvalues --    0.44265   0.44957   0.45121   0.45354   0.45547
 Alpha virt. eigenvalues --    0.45749   0.46059   0.46769   0.47085   0.47203
 Alpha virt. eigenvalues --    0.47343   0.47745   0.47964   0.48542   0.48717
 Alpha virt. eigenvalues --    0.48974   0.49231   0.50050   0.50359   0.50954
 Alpha virt. eigenvalues --    0.51119   0.51706   0.52163   0.52516   0.52633
 Alpha virt. eigenvalues --    0.52937   0.53259   0.53655   0.53835   0.54043
 Alpha virt. eigenvalues --    0.54199   0.54425   0.54875   0.54987   0.55800
 Alpha virt. eigenvalues --    0.56394   0.56601   0.56917   0.57024   0.57359
 Alpha virt. eigenvalues --    0.57689   0.58299   0.58470   0.58781   0.59539
 Alpha virt. eigenvalues --    0.59606   0.59991   0.60809   0.61533   0.61646
 Alpha virt. eigenvalues --    0.62201   0.62746   0.63434   0.63560   0.64721
 Alpha virt. eigenvalues --    0.65153   0.65189   0.65701   0.66053   0.66262
 Alpha virt. eigenvalues --    0.67002   0.67809   0.67876   0.68426   0.68996
 Alpha virt. eigenvalues --    0.69188   0.69299   0.69944   0.70284   0.70714
 Alpha virt. eigenvalues --    0.71520   0.71695   0.71998   0.72482   0.72893
 Alpha virt. eigenvalues --    0.72989   0.73578   0.74094   0.74588   0.74997
 Alpha virt. eigenvalues --    0.75177   0.75584   0.75755   0.76066   0.76584
 Alpha virt. eigenvalues --    0.76874   0.76909   0.77316   0.77762   0.78316
 Alpha virt. eigenvalues --    0.78490   0.78992   0.79016   0.79438   0.79715
 Alpha virt. eigenvalues --    0.79877   0.80425   0.80748   0.80946   0.81535
 Alpha virt. eigenvalues --    0.81676   0.81883   0.81976   0.82258   0.82582
 Alpha virt. eigenvalues --    0.82917   0.83032   0.83069   0.83668   0.83864
 Alpha virt. eigenvalues --    0.84390   0.84548   0.84939   0.85020   0.85430
 Alpha virt. eigenvalues --    0.85530   0.85558   0.86188   0.86709   0.86904
 Alpha virt. eigenvalues --    0.87673   0.87858   0.88127   0.88583   0.89265
 Alpha virt. eigenvalues --    0.89549   0.90235   0.90469   0.91177   0.91188
 Alpha virt. eigenvalues --    0.91514   0.91627   0.92247   0.92451   0.92640
 Alpha virt. eigenvalues --    0.93178   0.93419   0.94113   0.94377   0.94806
 Alpha virt. eigenvalues --    0.95290   0.96090   0.96816   0.97204   0.98367
 Alpha virt. eigenvalues --    0.98824   0.99268   1.00010   1.00268   1.00774
 Alpha virt. eigenvalues --    1.01285   1.01948   1.02778   1.03268   1.03787
 Alpha virt. eigenvalues --    1.04210   1.04961   1.05782   1.06243   1.06597
 Alpha virt. eigenvalues --    1.07292   1.08555   1.09757   1.09927   1.10429
 Alpha virt. eigenvalues --    1.11239   1.12134   1.12346   1.13539   1.13860
 Alpha virt. eigenvalues --    1.14570   1.15047   1.15748   1.16194   1.16751
 Alpha virt. eigenvalues --    1.17139   1.17356   1.18596   1.19179   1.19312
 Alpha virt. eigenvalues --    1.20027   1.20852   1.21144   1.21630   1.22031
 Alpha virt. eigenvalues --    1.22777   1.23773   1.24088   1.24599   1.24846
 Alpha virt. eigenvalues --    1.24994   1.25371   1.25783   1.26466   1.26595
 Alpha virt. eigenvalues --    1.27058   1.27702   1.28087   1.28891   1.29433
 Alpha virt. eigenvalues --    1.30334   1.30970   1.31743   1.32470   1.32615
 Alpha virt. eigenvalues --    1.33151   1.34246   1.34528   1.35388   1.35472
 Alpha virt. eigenvalues --    1.35766   1.36149   1.37429   1.38352   1.38876
 Alpha virt. eigenvalues --    1.39318   1.40142   1.40772   1.41528   1.41784
 Alpha virt. eigenvalues --    1.43414   1.44457   1.45285   1.45513   1.45904
 Alpha virt. eigenvalues --    1.46420   1.47874   1.48523   1.48994   1.49517
 Alpha virt. eigenvalues --    1.50642   1.51829   1.53517   1.54385   1.54997
 Alpha virt. eigenvalues --    1.55599   1.58364   1.58472   1.59049   1.60521
 Alpha virt. eigenvalues --    1.61315   1.62184   1.62500   1.64104   1.64587
 Alpha virt. eigenvalues --    1.65292   1.65908   1.67131   1.68527   1.69581
 Alpha virt. eigenvalues --    1.70416   1.70600   1.71296   1.71828   1.72248
 Alpha virt. eigenvalues --    1.73298   1.73911   1.74467   1.74685   1.74986
 Alpha virt. eigenvalues --    1.76103   1.76314   1.77243   1.77493   1.77831
 Alpha virt. eigenvalues --    1.78185   1.79709   1.80047   1.80219   1.80321
 Alpha virt. eigenvalues --    1.81128   1.81267   1.81881   1.82272   1.83648
 Alpha virt. eigenvalues --    1.84120   1.84765   1.85152   1.85369   1.86178
 Alpha virt. eigenvalues --    1.86598   1.87026   1.88468   1.89376   1.89462
 Alpha virt. eigenvalues --    1.90436   1.90824   1.91247   1.92481   1.93049
 Alpha virt. eigenvalues --    1.93443   1.93970   1.94683   1.95055   1.95636
 Alpha virt. eigenvalues --    1.96110   1.96776   1.97902   1.98138   1.98432
 Alpha virt. eigenvalues --    1.98519   1.99399   1.99924   2.00055   2.00500
 Alpha virt. eigenvalues --    2.00658   2.01826   2.02230   2.02868   2.03743
 Alpha virt. eigenvalues --    2.04309   2.05024   2.05135   2.06116   2.07233
 Alpha virt. eigenvalues --    2.07901   2.08437   2.09042   2.09951   2.10402
 Alpha virt. eigenvalues --    2.10615   2.10859   2.11485   2.11957   2.12306
 Alpha virt. eigenvalues --    2.13391   2.13490   2.13701   2.14501   2.15084
 Alpha virt. eigenvalues --    2.15365   2.15729   2.16461   2.16551   2.17126
 Alpha virt. eigenvalues --    2.18270   2.18305   2.18715   2.19105   2.19517
 Alpha virt. eigenvalues --    2.19827   2.20623   2.21218   2.21531   2.22209
 Alpha virt. eigenvalues --    2.22701   2.22913   2.24212   2.24834   2.25786
 Alpha virt. eigenvalues --    2.26190   2.27091   2.27994   2.28081   2.28507
 Alpha virt. eigenvalues --    2.28752   2.29140   2.29527   2.30887   2.31183
 Alpha virt. eigenvalues --    2.32282   2.32612   2.32829   2.34344   2.34398
 Alpha virt. eigenvalues --    2.35132   2.35662   2.36866   2.37527   2.38176
 Alpha virt. eigenvalues --    2.39580   2.40374   2.41364   2.42110   2.42445
 Alpha virt. eigenvalues --    2.43543   2.44063   2.44617   2.44957   2.45861
 Alpha virt. eigenvalues --    2.46424   2.46458   2.48426   2.48755   2.49471
 Alpha virt. eigenvalues --    2.49602   2.50599   2.51106   2.54356   2.55141
 Alpha virt. eigenvalues --    2.56489   2.57135   2.57640   2.58957   2.59489
 Alpha virt. eigenvalues --    2.60014   2.61325   2.62589   2.64498   2.65153
 Alpha virt. eigenvalues --    2.65196   2.66082   2.68063   2.68734   2.70389
 Alpha virt. eigenvalues --    2.74576   2.76159   2.76836   2.77578   2.80304
 Alpha virt. eigenvalues --    2.81283   2.83718   2.84524   2.86388   2.87770
 Alpha virt. eigenvalues --    2.89020   2.89348   2.90386   2.91716   2.93117
 Alpha virt. eigenvalues --    2.93811   2.94550   2.95461   3.00010   3.04294
 Alpha virt. eigenvalues --    3.04830   3.05747   3.08116   3.10193   3.15763
 Alpha virt. eigenvalues --    3.16377   3.18351   3.24153   3.26521   3.32895
 Alpha virt. eigenvalues --    3.35826   3.37322   3.50471   3.54223   3.70894
 Alpha virt. eigenvalues --    3.77599   4.05543   4.15983
  Beta  occ. eigenvalues -- -256.36211 -89.07674 -30.20989 -26.05348 -26.04983
  Beta  occ. eigenvalues --  -26.04576 -14.52889 -14.48659 -14.47336 -14.46456
  Beta  occ. eigenvalues --  -14.46065 -14.46039 -10.37096 -10.34260 -10.33552
  Beta  occ. eigenvalues --  -10.33418 -10.32915 -10.32910 -10.32813 -10.32768
  Beta  occ. eigenvalues --  -10.32741 -10.32651 -10.32453 -10.32242 -10.32010
  Beta  occ. eigenvalues --  -10.31088 -10.30871 -10.30864 -10.30524 -10.30455
  Beta  occ. eigenvalues --  -10.30356 -10.30171 -10.30008 -10.29965 -10.29767
  Beta  occ. eigenvalues --  -10.29690 -10.29681 -10.29651 -10.29538 -10.29483
  Beta  occ. eigenvalues --  -10.29456 -10.29032 -10.28936 -10.28671 -10.28607
  Beta  occ. eigenvalues --  -10.28514 -10.28505 -10.28427 -10.28367  -8.10508
  Beta  occ. eigenvalues --   -6.05097  -6.04854  -6.04305  -3.56592  -2.32585
  Beta  occ. eigenvalues --   -2.32303  -2.32059  -1.16086  -1.08616  -1.07777
  Beta  occ. eigenvalues --   -1.07113  -1.06429  -1.00621  -0.94006  -0.92890
  Beta  occ. eigenvalues --   -0.92243  -0.91249  -0.90444  -0.90112  -0.90028
  Beta  occ. eigenvalues --   -0.89804  -0.89460  -0.85950  -0.85336  -0.84733
  Beta  occ. eigenvalues --   -0.84476  -0.83247  -0.82127  -0.80849  -0.79929
  Beta  occ. eigenvalues --   -0.78839  -0.78704  -0.77823  -0.76774  -0.76168
  Beta  occ. eigenvalues --   -0.74800  -0.74462  -0.74325  -0.71597  -0.69595
  Beta  occ. eigenvalues --   -0.69421  -0.68932  -0.67989  -0.67798  -0.65700
  Beta  occ. eigenvalues --   -0.64460  -0.63596  -0.62830  -0.62261  -0.61244
  Beta  occ. eigenvalues --   -0.61138  -0.60331  -0.58089  -0.57922  -0.57780
  Beta  occ. eigenvalues --   -0.57443  -0.57299  -0.56943  -0.55924  -0.55175
  Beta  occ. eigenvalues --   -0.54997  -0.54990  -0.54282  -0.54119  -0.53781
  Beta  occ. eigenvalues --   -0.53468  -0.53371  -0.53055  -0.52720  -0.52299
  Beta  occ. eigenvalues --   -0.52052  -0.51989  -0.51569  -0.51213  -0.51061
  Beta  occ. eigenvalues --   -0.50886  -0.50774  -0.50527  -0.50050  -0.49991
  Beta  occ. eigenvalues --   -0.49754  -0.49725  -0.49518  -0.49495  -0.49146
  Beta  occ. eigenvalues --   -0.48852  -0.48665  -0.48556  -0.48366  -0.47947
  Beta  occ. eigenvalues --   -0.47531  -0.47299  -0.46736  -0.46336  -0.45365
  Beta  occ. eigenvalues --   -0.44715  -0.44371  -0.44002  -0.43798  -0.43253
  Beta  occ. eigenvalues --   -0.42993  -0.42680  -0.41921  -0.41766  -0.41523
  Beta  occ. eigenvalues --   -0.40992  -0.40759  -0.39726  -0.39286  -0.38473
  Beta  occ. eigenvalues --   -0.37718  -0.37308  -0.36433  -0.36238  -0.34804
  Beta  occ. eigenvalues --   -0.34221  -0.33697  -0.33006  -0.31929  -0.31331
  Beta  occ. eigenvalues --   -0.30187  -0.28685  -0.28083
  Beta virt. eigenvalues --   -0.18940  -0.16571  -0.15653  -0.13536  -0.11131
  Beta virt. eigenvalues --   -0.10860  -0.09321  -0.07388  -0.06742  -0.05784
  Beta virt. eigenvalues --   -0.03737  -0.03547  -0.01515  -0.01288  -0.01031
  Beta virt. eigenvalues --   -0.00308   0.00346   0.00417   0.00897   0.01975
  Beta virt. eigenvalues --    0.02774   0.02931   0.02981   0.03215   0.03437
  Beta virt. eigenvalues --    0.03560   0.03766   0.03958   0.03974   0.04577
  Beta virt. eigenvalues --    0.04684   0.04839   0.05195   0.05293   0.05568
  Beta virt. eigenvalues --    0.05713   0.05929   0.06131   0.06371   0.06608
  Beta virt. eigenvalues --    0.06631   0.06814   0.06993   0.07322   0.07623
  Beta virt. eigenvalues --    0.07836   0.08361   0.08890   0.09133   0.09258
  Beta virt. eigenvalues --    0.09437   0.10130   0.10197   0.10416   0.10816
  Beta virt. eigenvalues --    0.10964   0.11965   0.12113   0.12593   0.13030
  Beta virt. eigenvalues --    0.13153   0.13538   0.13789   0.13908   0.14253
  Beta virt. eigenvalues --    0.14485   0.14755   0.15158   0.15530   0.16253
  Beta virt. eigenvalues --    0.16991   0.17222   0.17675   0.18454   0.18517
  Beta virt. eigenvalues --    0.19065   0.19439   0.20449   0.20628   0.21243
  Beta virt. eigenvalues --    0.21989   0.22390   0.22662   0.23298   0.24375
  Beta virt. eigenvalues --    0.25353   0.25553   0.25844   0.26092   0.26832
  Beta virt. eigenvalues --    0.27683   0.28392   0.28731   0.29000   0.29748
  Beta virt. eigenvalues --    0.31093   0.31679   0.32474   0.33220   0.33412
  Beta virt. eigenvalues --    0.34005   0.34615   0.34706   0.36032   0.36362
  Beta virt. eigenvalues --    0.37316   0.37508   0.38180   0.38580   0.38765
  Beta virt. eigenvalues --    0.39081   0.40298   0.40746   0.40935   0.41604
  Beta virt. eigenvalues --    0.41873   0.42283   0.42923   0.43676   0.43845
  Beta virt. eigenvalues --    0.44037   0.44308   0.44973   0.45147   0.45381
  Beta virt. eigenvalues --    0.45608   0.45771   0.46099   0.46814   0.47121
  Beta virt. eigenvalues --    0.47220   0.47369   0.47784   0.47987   0.48551
  Beta virt. eigenvalues --    0.48722   0.49002   0.49246   0.50057   0.50365
  Beta virt. eigenvalues --    0.50975   0.51132   0.51718   0.52188   0.52539
  Beta virt. eigenvalues --    0.52662   0.52954   0.53266   0.53673   0.53839
  Beta virt. eigenvalues --    0.54056   0.54230   0.54478   0.54879   0.55016
  Beta virt. eigenvalues --    0.55889   0.56410   0.56624   0.56924   0.57038
  Beta virt. eigenvalues --    0.57372   0.57716   0.58320   0.58590   0.58817
  Beta virt. eigenvalues --    0.59558   0.59650   0.60041   0.60821   0.61549
  Beta virt. eigenvalues --    0.61698   0.62344   0.62798   0.63457   0.63593
  Beta virt. eigenvalues --    0.64796   0.65175   0.65371   0.65720   0.66079
  Beta virt. eigenvalues --    0.66318   0.67088   0.67835   0.67902   0.68462
  Beta virt. eigenvalues --    0.69051   0.69261   0.69372   0.69964   0.70359
  Beta virt. eigenvalues --    0.70745   0.71542   0.71709   0.72018   0.72529
  Beta virt. eigenvalues --    0.72922   0.72997   0.73590   0.74099   0.74604
  Beta virt. eigenvalues --    0.75041   0.75230   0.75598   0.75781   0.76092
  Beta virt. eigenvalues --    0.76607   0.76882   0.76960   0.77395   0.77783
  Beta virt. eigenvalues --    0.78331   0.78498   0.79001   0.79028   0.79451
  Beta virt. eigenvalues --    0.79796   0.79877   0.80487   0.80756   0.80961
  Beta virt. eigenvalues --    0.81556   0.81698   0.81928   0.81989   0.82324
  Beta virt. eigenvalues --    0.82607   0.82916   0.83051   0.83119   0.83677
  Beta virt. eigenvalues --    0.83975   0.84403   0.84557   0.84946   0.85062
  Beta virt. eigenvalues --    0.85444   0.85574   0.85639   0.86265   0.86770
  Beta virt. eigenvalues --    0.86946   0.87712   0.87892   0.88151   0.88640
  Beta virt. eigenvalues --    0.89314   0.89686   0.90328   0.90501   0.91204
  Beta virt. eigenvalues --    0.91291   0.91528   0.91666   0.92303   0.92459
  Beta virt. eigenvalues --    0.92705   0.93235   0.93463   0.94171   0.94394
  Beta virt. eigenvalues --    0.94833   0.95369   0.96104   0.96854   0.97633
  Beta virt. eigenvalues --    0.98405   0.98842   0.99318   1.00068   1.00294
  Beta virt. eigenvalues --    1.00792   1.01308   1.02111   1.02794   1.03344
  Beta virt. eigenvalues --    1.03834   1.04218   1.04995   1.05878   1.06252
  Beta virt. eigenvalues --    1.06600   1.07307   1.08615   1.09901   1.10005
  Beta virt. eigenvalues --    1.10454   1.11338   1.12154   1.12357   1.13600
  Beta virt. eigenvalues --    1.13942   1.14593   1.15077   1.15767   1.16221
  Beta virt. eigenvalues --    1.16757   1.17154   1.17379   1.18625   1.19196
  Beta virt. eigenvalues --    1.19337   1.20042   1.20898   1.21150   1.21638
  Beta virt. eigenvalues --    1.22078   1.22801   1.23802   1.24118   1.24655
  Beta virt. eigenvalues --    1.24970   1.25024   1.25391   1.25802   1.26491
  Beta virt. eigenvalues --    1.26610   1.27069   1.27714   1.28103   1.28931
  Beta virt. eigenvalues --    1.29439   1.30340   1.30989   1.31765   1.32494
  Beta virt. eigenvalues --    1.32640   1.33175   1.34319   1.34551   1.35422
  Beta virt. eigenvalues --    1.35513   1.35797   1.36152   1.37460   1.38377
  Beta virt. eigenvalues --    1.38902   1.39327   1.40150   1.40815   1.41652
  Beta virt. eigenvalues --    1.41872   1.43460   1.44472   1.45280   1.45580
  Beta virt. eigenvalues --    1.45931   1.46416   1.47911   1.48568   1.49005
  Beta virt. eigenvalues --    1.49508   1.50852   1.51903   1.53531   1.54505
  Beta virt. eigenvalues --    1.55102   1.55730   1.58396   1.58485   1.59063
  Beta virt. eigenvalues --    1.60534   1.61354   1.62220   1.62507   1.64159
  Beta virt. eigenvalues --    1.64616   1.65420   1.65917   1.67151   1.68540
  Beta virt. eigenvalues --    1.69593   1.70421   1.70613   1.71310   1.71841
  Beta virt. eigenvalues --    1.72293   1.73300   1.73911   1.74468   1.74696
  Beta virt. eigenvalues --    1.75006   1.76100   1.76353   1.77249   1.77497
  Beta virt. eigenvalues --    1.77839   1.78206   1.79710   1.80073   1.80262
  Beta virt. eigenvalues --    1.80355   1.81139   1.81280   1.81915   1.82272
  Beta virt. eigenvalues --    1.83681   1.84136   1.84795   1.85163   1.85469
  Beta virt. eigenvalues --    1.86209   1.86610   1.87063   1.88559   1.89430
  Beta virt. eigenvalues --    1.89547   1.90554   1.90945   1.91340   1.92547
  Beta virt. eigenvalues --    1.93062   1.93479   1.94010   1.94731   1.95109
  Beta virt. eigenvalues --    1.95646   1.96145   1.96803   1.97923   1.98190
  Beta virt. eigenvalues --    1.98437   1.98593   1.99429   1.99979   2.00071
  Beta virt. eigenvalues --    2.00510   2.00667   2.01873   2.02235   2.02879
  Beta virt. eigenvalues --    2.03813   2.04322   2.05081   2.05153   2.06134
  Beta virt. eigenvalues --    2.07298   2.07973   2.08504   2.09058   2.10028
  Beta virt. eigenvalues --    2.10425   2.10642   2.10941   2.11502   2.11974
  Beta virt. eigenvalues --    2.12325   2.13496   2.13640   2.13769   2.14551
  Beta virt. eigenvalues --    2.15145   2.15374   2.15738   2.16485   2.16574
  Beta virt. eigenvalues --    2.17139   2.18286   2.18315   2.18899   2.19140
  Beta virt. eigenvalues --    2.19597   2.19999   2.20674   2.21385   2.21741
  Beta virt. eigenvalues --    2.22359   2.22905   2.23242   2.24360   2.24972
  Beta virt. eigenvalues --    2.25824   2.26523   2.27113   2.28066   2.28286
  Beta virt. eigenvalues --    2.28552   2.28815   2.29219   2.29609   2.30931
  Beta virt. eigenvalues --    2.31192   2.32330   2.32686   2.32948   2.34386
  Beta virt. eigenvalues --    2.34424   2.35145   2.35693   2.36994   2.37562
  Beta virt. eigenvalues --    2.38190   2.39850   2.40559   2.41535   2.42139
  Beta virt. eigenvalues --    2.42467   2.43577   2.44100   2.44691   2.45026
  Beta virt. eigenvalues --    2.45931   2.46482   2.46509   2.48479   2.48779
  Beta virt. eigenvalues --    2.49487   2.49679   2.50630   2.51195   2.54376
  Beta virt. eigenvalues --    2.55140   2.56534   2.57170   2.57652   2.58970
  Beta virt. eigenvalues --    2.59492   2.60085   2.61349   2.62595   2.64511
  Beta virt. eigenvalues --    2.65157   2.65198   2.66154   2.68083   2.68745
  Beta virt. eigenvalues --    2.70401   2.74568   2.76158   2.76841   2.77579
  Beta virt. eigenvalues --    2.80330   2.81321   2.83705   2.84536   2.86409
  Beta virt. eigenvalues --    2.87760   2.89011   2.89370   2.90420   2.91698
  Beta virt. eigenvalues --    2.93093   2.93832   2.94535   2.95436   3.00103
  Beta virt. eigenvalues --    3.04291   3.04854   3.05809   3.08134   3.10182
  Beta virt. eigenvalues --    3.15787   3.16373   3.18397   3.24145   3.26508
  Beta virt. eigenvalues --    3.32991   3.35819   3.37317   3.53533   3.60349
  Beta virt. eigenvalues --    3.73735   3.79423   4.07030   4.17802
          Condensed to atoms (all electrons):
          Atomic-Atomic Spin Densities.
 Mulliken charges and spin densities:
               1          2
     1  Fe   0.591824   1.121481
     2  N   -0.647557  -0.023632
     3  N   -0.649586  -0.020209
     4  N   -0.628933  -0.033809
     5  N   -0.605474  -0.031026
     6  C    0.338046   0.002285
     7  C   -0.011127  -0.001169
     8  C   -0.023225   0.011797
     9  C    0.315194  -0.001230
    10  C    0.270248  -0.002051
    11  C   -0.004422   0.014310
    12  C   -0.015092  -0.004566
    13  C    0.297440   0.009795
    14  C    0.314989   0.011114
    15  C   -0.031320  -0.007040
    16  C   -0.022745   0.016748
    17  C    0.326845  -0.003952
    18  C    0.287182  -0.003615
    19  C   -0.011277   0.010116
    20  C   -0.046635  -0.005795
    21  C    0.298938   0.004977
    22  C   -0.286722  -0.000602
    23  H    0.195461   0.000080
    24  C   -0.283502  -0.005524
    25  H    0.197365   0.000321
    26  C   -0.290951  -0.001957
    27  H    0.194047   0.000110
    28  C   -0.315604   0.006690
    29  H    0.201012  -0.000266
    30  C   -0.572544  -0.000445
    31  H    0.192364   0.000112
    32  H    0.195797   0.000089
    33  H    0.217953  -0.000137
    34  C   -0.569644  -0.000698
    35  H    0.195153   0.000436
    36  H    0.189526   0.000427
    37  H    0.218938  -0.000083
    38  C   -0.571929   0.000099
    39  H    0.203817  -0.000245
    40  H    0.218510  -0.000020
    41  H    0.208975  -0.000234
    42  C   -0.209339  -0.001902
    43  H    0.180364   0.000459
    44  C   -0.353348   0.001410
    45  H    0.181488  -0.000069
    46  H    0.194288  -0.000045
    47  C   -0.576824  -0.001190
    48  H    0.195161   0.000684
    49  H    0.198546   0.000709
    50  H    0.223074  -0.000088
    51  C   -0.122974   0.001758
    52  H    0.171327  -0.000080
    53  C   -0.389493  -0.002868
    54  H    0.186600   0.000144
    55  H    0.191384   0.000125
    56  C   -0.572561  -0.000175
    57  H    0.202270  -0.000107
    58  H    0.221900  -0.000019
    59  H    0.202816  -0.000059
    60  C   -0.576298  -0.000837
    61  H    0.206293   0.000656
    62  H    0.199770   0.000373
    63  H    0.220766  -0.000018
    64  C   -0.597009  -0.000269
    65  H    0.207114  -0.000019
    66  H    0.207283  -0.000030
    67  H    0.216274  -0.000004
    68  N   -0.617684  -0.000234
    69  H    0.378999   0.000020
    70  C    0.276352  -0.000764
    71  C    0.253583   0.001951
    72  H    0.238296  -0.000158
    73  N   -0.450904  -0.026460
    74  C   -0.035400  -0.000220
    75  H    0.215279  -0.000140
    76  C   -0.532710  -0.000188
    77  H    0.200412   0.000045
    78  H    0.199435  -0.000116
    79  H    0.198428  -0.000028
    80  C   -0.518321   0.001003
    81  H    0.244972  -0.000614
    82  H    0.219801  -0.001185
    83  S    0.440620  -0.038035
    84  C   -0.703627   0.006062
    85  H    0.242576  -0.000228
    86  H    0.229939   0.000118
    87  H    0.229747  -0.002054
 Sum of Mulliken charges =   1.00000   1.00000
 Mulliken charges and spin densities with hydrogens summed into heavy atoms:
               1          2
     1  Fe   0.591824   1.121481
     2  N   -0.647557  -0.023632
     3  N   -0.649586  -0.020209
     4  N   -0.628933  -0.033809
     5  N   -0.605474  -0.031026
     6  C    0.338046   0.002285
     7  C   -0.011127  -0.001169
     8  C   -0.023225   0.011797
     9  C    0.315194  -0.001230
    10  C    0.270248  -0.002051
    11  C   -0.004422   0.014310
    12  C   -0.015092  -0.004566
    13  C    0.297440   0.009795
    14  C    0.314989   0.011114
    15  C   -0.031320  -0.007040
    16  C   -0.022745   0.016748
    17  C    0.326845  -0.003952
    18  C    0.287182  -0.003615
    19  C   -0.011277   0.010116
    20  C   -0.046635  -0.005795
    21  C    0.298938   0.004977
    22  C   -0.091260  -0.000521
    24  C   -0.086137  -0.005203
    26  C   -0.096904  -0.001847
    28  C   -0.114593   0.006424
    30  C    0.033569  -0.000381
    34  C    0.033973   0.000082
    38  C    0.059372  -0.000400
    42  C   -0.028974  -0.001443
    44  C    0.022428   0.001296
    47  C    0.039956   0.000115
    51  C    0.048352   0.001679
    53  C   -0.011508  -0.002599
    56  C    0.054426  -0.000360
    60  C    0.050532   0.000174
    64  C    0.033661  -0.000322
    68  N   -0.238686  -0.000214
    70  C    0.276352  -0.000764
    71  C    0.491879   0.001793
    73  N   -0.450904  -0.026460
    74  C    0.179879  -0.000360
    76  C    0.065566  -0.000287
    80  C   -0.053548  -0.000796
    83  S    0.440620  -0.038035
    84  C   -0.001365   0.003898
 Electronic spatial extent (au):  <R**2>=          21576.3211
 Charge=              1.0000 electrons
 Dipole moment (field-independent basis, Debye):
    X=              0.2951    Y=              1.6812    Z=              2.7095  Tot=              3.2023
 Quadrupole moment (field-independent basis, Debye-Ang):
   XX=           -210.3654   YY=           -217.7938   ZZ=           -220.9642
   XY=              3.8189   XZ=              0.9203   YZ=              8.8527
 Traceless Quadrupole moment (field-independent basis, Debye-Ang):
   XX=              6.0091   YY=             -1.4194   ZZ=             -4.5897
   XY=              3.8189   XZ=              0.9203   YZ=              8.8527
 Octapole moment (field-independent basis, Debye-Ang**2):
  XXX=             -1.7010  YYY=             63.9660  ZZZ=            137.6839  XYY=              4.1450
  XXY=              4.1833  XXZ=            -13.6852  XZZ=            -13.5973  YZZ=             15.4771
  YYZ=             -5.2734  XYZ=              8.9734
 Hexadecapole moment (field-independent basis, Debye-Ang**3):
 XXXX=         -10759.0960 YYYY=         -10086.6320 ZZZZ=          -3767.2907 XXXY=             57.0529
 XXXZ=            143.4405 YYYX=           -228.3328 YYYZ=             34.1053 ZZZX=            -79.2971
 ZZZY=            167.8048 XXYY=          -3434.5391 XXZZ=          -2839.1729 YYZZ=          -2809.3269
 XXYZ=             27.8135 YYXZ=            -57.0252 ZZXY=             85.1330
 N-N= 7.144193727950D+03 E-N=-2.230131463528D+04  KE= 3.410184556145D+03
                          Isotropic Fermi Contact Couplings
        Atom                 a.u.       MegaHertz       Gauss      10(-4) cm-1
     1  Fe(57)             0.13868      20.11412       7.17722       6.70935
     2  N(14)             -0.02326      -7.51559      -2.68175      -2.50693
     3  N(14)             -0.02203      -7.11663      -2.53939      -2.37385
     4  N(14)             -0.02703      -8.73510      -3.11690      -2.91372
     5  N(14)             -0.02466      -7.96670      -2.84272      -2.65740
     6  C(13)             -0.00144      -1.62361      -0.57935      -0.54158
     7  C(13)             -0.00141      -1.58855      -0.56683      -0.52988
     8  C(13)              0.00097       1.09261       0.38987       0.36446
     9  C(13)             -0.00041      -0.46610      -0.16632      -0.15547
    10  C(13)             -0.00094      -1.05540      -0.37659      -0.35204
    11  C(13)              0.00172       1.93152       0.68921       0.64429
    12  C(13)             -0.00142      -1.59089      -0.56767      -0.53066
    13  C(13)              0.00007       0.07370       0.02630       0.02458
    14  C(13)              0.00023       0.26286       0.09380       0.08768
    15  C(13)             -0.00233      -2.61705      -0.93383      -0.87295
    16  C(13)              0.00168       1.88889       0.67400       0.63006
    17  C(13)             -0.00088      -0.98738      -0.35232      -0.32935
    18  C(13)             -0.00073      -0.81710      -0.29156      -0.27256
    19  C(13)              0.00111       1.24624       0.44469       0.41570
    20  C(13)             -0.00160      -1.79717      -0.64128      -0.59947
    21  C(13)             -0.00034      -0.37843      -0.13503      -0.12623
    22  C(13)             -0.00040      -0.44618      -0.15921      -0.14883
    23  H(1)               0.00004       0.16055       0.05729       0.05355
    24  C(13)             -0.00090      -1.01595      -0.36252      -0.33888
    25  H(1)               0.00012       0.55079       0.19653       0.18372
    26  C(13)             -0.00071      -0.79544      -0.28383      -0.26533
    27  H(1)               0.00004       0.19807       0.07068       0.06607
    28  C(13)              0.00079       0.88592       0.31612       0.29551
    29  H(1)              -0.00008      -0.35675      -0.12730      -0.11900
    30  C(13)             -0.00026      -0.28790      -0.10273      -0.09603
    31  H(1)               0.00005       0.22758       0.08121       0.07591
    32  H(1)               0.00005       0.20608       0.07354       0.06874
    33  H(1)              -0.00007      -0.30319      -0.10819      -0.10113
    34  C(13)             -0.00031      -0.34317      -0.12245      -0.11447
    35  H(1)               0.00027       1.19451       0.42623       0.39845
    36  H(1)               0.00027       1.22582       0.43740       0.40889
    37  H(1)              -0.00004      -0.17300      -0.06173      -0.05771
    38  C(13)             -0.00001      -0.01410      -0.00503      -0.00470
    39  H(1)              -0.00007      -0.32593      -0.11630      -0.10872
    40  H(1)              -0.00001      -0.03531      -0.01260      -0.01178
    41  H(1)              -0.00010      -0.46144      -0.16465      -0.15392
    42  C(13)             -0.00070      -0.78488      -0.28006      -0.26181
    43  H(1)               0.00022       0.96505       0.34435       0.32191
    44  C(13)              0.00045       0.51044       0.18214       0.17026
    45  H(1)              -0.00003      -0.12839      -0.04581      -0.04283
    46  H(1)              -0.00002      -0.09905      -0.03534      -0.03304
    47  C(13)             -0.00048      -0.53676      -0.19153      -0.17904
    48  H(1)               0.00035       1.55322       0.55423       0.51810
    49  H(1)               0.00033       1.46906       0.52420       0.49003
    50  H(1)              -0.00004      -0.17542      -0.06260      -0.05852
    51  C(13)              0.00016       0.18371       0.06555       0.06128
    52  H(1)              -0.00003      -0.15207      -0.05426      -0.05072
    53  C(13)             -0.00046      -0.51454      -0.18360      -0.17163
    54  H(1)               0.00005       0.21087       0.07524       0.07034
    55  H(1)               0.00003       0.15144       0.05404       0.05051
    56  C(13)             -0.00008      -0.08856      -0.03160      -0.02954
    57  H(1)              -0.00003      -0.15029      -0.05363      -0.05013
    58  H(1)              -0.00001      -0.03716      -0.01326      -0.01240
    59  H(1)              -0.00002      -0.07928      -0.02829      -0.02644
    60  C(13)             -0.00035      -0.39359      -0.14044      -0.13129
    61  H(1)               0.00038       1.67815       0.59880       0.55977
    62  H(1)               0.00025       1.10611       0.39469       0.36896
    63  H(1)              -0.00001      -0.02879      -0.01027      -0.00960
    64  C(13)             -0.00015      -0.16814      -0.06000      -0.05609
    65  H(1)              -0.00001      -0.04310      -0.01538      -0.01438
    66  H(1)              -0.00001      -0.04717      -0.01683      -0.01573
    67  H(1)              -0.00001      -0.03543      -0.01264      -0.01182
    68  N(14)             -0.00080      -0.25696      -0.09169      -0.08571
    69  H(1)               0.00001       0.05179       0.01848       0.01728
    70  C(13)             -0.00103      -1.16185      -0.41458      -0.38755
    71  C(13)              0.00212       2.38396       0.85066       0.79520
    72  H(1)              -0.00012      -0.52655      -0.18789      -0.17564
    73  N(14)             -0.02429      -7.84803      -2.80037      -2.61782
    74  C(13)             -0.00094      -1.05559      -0.37666      -0.35211
    75  H(1)              -0.00007      -0.30092      -0.10738      -0.10038
    76  C(13)              0.00004       0.04676       0.01668       0.01560
    77  H(1)              -0.00002      -0.07358      -0.02626      -0.02454
    78  H(1)              -0.00008      -0.34129      -0.12178      -0.11384
    79  H(1)               0.00001       0.05309       0.01894       0.01771
    80  C(13)             -0.00008      -0.08523      -0.03041      -0.02843
    81  H(1)              -0.00026      -1.15706      -0.41287      -0.38595
    82  H(1)              -0.00061      -2.70518      -0.96528      -0.90235
    83  S(33)             -0.01264      -4.34169      -1.54922      -1.44823
    84  C(13)              0.00222       2.49605       0.89065       0.83259
    85  H(1)              -0.00007      -0.29611      -0.10566      -0.09877
    86  H(1)               0.00001       0.03489       0.01245       0.01164
    87  H(1)              -0.00100      -4.45711      -1.59041      -1.48673
 --------------------------------------------------------
       Center         ----  Spin Dipole Couplings  ----
                      3XX-RR        3YY-RR        3ZZ-RR
 --------------------------------------------------------
     1   Atom       -1.374444      0.529768      0.844676
     2   Atom       -0.007459     -0.019674      0.027132
     3   Atom       -0.010576     -0.010128      0.020704
     4   Atom        0.004780     -0.012181      0.007401
     5   Atom       -0.013961      0.005087      0.008874
     6   Atom       -0.002245      0.001247      0.000998
     7   Atom       -0.000159     -0.000880      0.001039
     8   Atom       -0.008038     -0.003595      0.011633
     9   Atom       -0.004885      0.010498     -0.005613
    10   Atom        0.004101      0.002348     -0.006449
    11   Atom       -0.006449     -0.006998      0.013447
    12   Atom        0.003061     -0.001194     -0.001866
    13   Atom        0.001972     -0.010412      0.008439
    14   Atom       -0.004414     -0.002444      0.006858
    15   Atom        0.002207      0.001021     -0.003228
    16   Atom       -0.009389     -0.006350      0.015740
    17   Atom       -0.003195      0.010722     -0.007527
    18   Atom        0.004829      0.002554     -0.007383
    19   Atom       -0.004972     -0.004652      0.009625
    20   Atom        0.003461      0.000048     -0.003509
    21   Atom        0.004919     -0.006641      0.001721
    22   Atom        0.005704     -0.002601     -0.003103
    23   Atom        0.002364     -0.000863     -0.001500
    24   Atom        0.000537      0.008251     -0.008787
    25   Atom       -0.000559      0.002192     -0.001633
    26   Atom        0.005072     -0.001709     -0.003363
    27   Atom        0.002413     -0.000937     -0.001477
    28   Atom       -0.005971      0.002772      0.003200
    29   Atom       -0.001142      0.002680     -0.001538
    30   Atom        0.000040      0.000616     -0.000657
    31   Atom        0.000476      0.000299     -0.000775
    32   Atom        0.000557      0.000229     -0.000786
    33   Atom        0.000106      0.000402     -0.000507
    34   Atom       -0.001214      0.001274     -0.000060
    35   Atom       -0.000812      0.001528     -0.000716
    36   Atom       -0.000766      0.001630     -0.000864
    37   Atom       -0.000534      0.001063     -0.000529
    38   Atom        0.001106     -0.000596     -0.000510
    39   Atom        0.001151     -0.000519     -0.000632
    40   Atom        0.001110     -0.000558     -0.000553
    41   Atom        0.001180     -0.000518     -0.000662
    42   Atom        0.000065      0.000468     -0.000533
    43   Atom        0.000383      0.000279     -0.000662
    44   Atom        0.001007      0.000086     -0.001093
    45   Atom        0.000495     -0.000211     -0.000284
    46   Atom        0.000403     -0.000023     -0.000380
    47   Atom       -0.001165      0.001422     -0.000257
    48   Atom       -0.000830      0.001573     -0.000743
    49   Atom       -0.000744      0.001638     -0.000893
    50   Atom       -0.000548      0.001067     -0.000519
    51   Atom       -0.000504      0.000402      0.000102
    52   Atom        0.000475      0.000212     -0.000687
    53   Atom        0.001291      0.000413     -0.001704
    54   Atom       -0.000122      0.000638     -0.000516
    55   Atom       -0.000043      0.000318     -0.000275
    56   Atom        0.001268     -0.000654     -0.000615
    57   Atom        0.001392     -0.000610     -0.000783
    58   Atom        0.001164     -0.000578     -0.000587
    59   Atom        0.001232     -0.000605     -0.000627
    60   Atom       -0.000170      0.000058      0.000112
    61   Atom        0.000858     -0.000146     -0.000712
    62   Atom        0.000817     -0.000111     -0.000707
    63   Atom        0.000138      0.000488     -0.000625
    64   Atom       -0.000469     -0.000472      0.000941
    65   Atom       -0.000419     -0.000579      0.000999
    66   Atom       -0.000598     -0.000458      0.001056
    67   Atom       -0.000500     -0.000434      0.000934
    68   Atom       -0.002150     -0.001556      0.003706
    69   Atom       -0.001154     -0.001001      0.002155
    70   Atom       -0.001071     -0.001087      0.002157
    71   Atom       -0.004423     -0.006141      0.010564
    72   Atom       -0.003670     -0.000713      0.004383
    73   Atom        0.001169      0.006221     -0.007391
    74   Atom       -0.003274     -0.003043      0.006318
    75   Atom       -0.002146     -0.000200      0.002346
    76   Atom        0.000380     -0.001895      0.001514
    77   Atom        0.000524     -0.001894      0.001370
    78   Atom        0.000095     -0.000973      0.000879
    79   Atom        0.002022     -0.001875     -0.000147
    80   Atom       -0.001888     -0.001085      0.002973
    81   Atom       -0.001102     -0.001005      0.002107
    82   Atom       -0.001529     -0.001339      0.002868
    83   Atom        0.047556      0.074962     -0.122519
    84   Atom       -0.000290     -0.002754      0.003044
    85   Atom        0.000894     -0.003047      0.002153
    86   Atom       -0.002058     -0.000849      0.002908
    87   Atom       -0.001593     -0.001672      0.003265
 --------------------------------------------------------
                        XY            XZ            YZ
 --------------------------------------------------------
     1   Atom        0.513722      0.238428      0.789012
     2   Atom        0.007292      0.004785      0.005588
     3   Atom       -0.002099     -0.005347      0.008905
     4   Atom        0.012286      0.001695      0.002226
     5   Atom       -0.011605     -0.002108      0.001021
     6   Atom       -0.005753     -0.000939      0.000921
     7   Atom       -0.002242      0.000293      0.000450
     8   Atom       -0.000547      0.002078      0.000304
     9   Atom       -0.000870     -0.000542     -0.002698
    10   Atom        0.008107     -0.000977     -0.002191
    11   Atom        0.001944     -0.003321      0.003867
    12   Atom       -0.000368      0.000667     -0.000026
    13   Atom        0.001527      0.001753      0.002126
    14   Atom       -0.005663     -0.007145      0.000368
    15   Atom       -0.001640      0.000887      0.000265
    16   Atom       -0.000397     -0.005268      0.000195
    17   Atom       -0.001089      0.000836     -0.001099
    18   Atom        0.007342     -0.000641     -0.000382
    19   Atom        0.002112     -0.001355     -0.002992
    20   Atom       -0.000645      0.000228      0.001102
    21   Atom        0.001634      0.003389     -0.001712
    22   Atom       -0.003696     -0.000284      0.000305
    23   Atom       -0.001676     -0.000244      0.000101
    24   Atom        0.003967     -0.000692     -0.002770
    25   Atom        0.001378     -0.000141     -0.000441
    26   Atom       -0.003942      0.001816     -0.000389
    27   Atom       -0.001563      0.000801     -0.000310
    28   Atom        0.004293     -0.000908     -0.000990
    29   Atom        0.001847      0.000239      0.000577
    30   Atom       -0.000952     -0.000025     -0.000019
    31   Atom       -0.001149     -0.000269      0.000268
    32   Atom       -0.001160      0.000256     -0.000247
    33   Atom       -0.000753      0.000010     -0.000012
    34   Atom       -0.000340      0.000043     -0.000166
    35   Atom        0.000105     -0.000133     -0.000566
    36   Atom        0.000187      0.000131      0.000276
    37   Atom       -0.000292      0.000012     -0.000072
    38   Atom        0.000067      0.000275      0.000127
    39   Atom        0.000247      0.000283      0.000044
    40   Atom       -0.000053     -0.000005      0.000006
    41   Atom        0.000332     -0.000251      0.000009
    42   Atom        0.001357      0.000816     -0.000104
    43   Atom        0.000973     -0.000048     -0.000026
    44   Atom       -0.000239     -0.000104      0.000493
    45   Atom        0.000618      0.000569      0.000232
    46   Atom        0.000521      0.000153      0.000118
    47   Atom       -0.000372     -0.000165     -0.000052
    48   Atom        0.000058      0.000120      0.000520
    49   Atom        0.000253     -0.000081     -0.000384
    50   Atom       -0.000278     -0.000002     -0.000030
    51   Atom       -0.000507     -0.000305     -0.001196
    52   Atom       -0.001056      0.000351     -0.000297
    53   Atom       -0.001064      0.000580      0.001768
    54   Atom       -0.000759     -0.000199      0.000124
    55   Atom       -0.000410     -0.000009      0.000096
    56   Atom       -0.000015      0.000279      0.000011
    57   Atom        0.000280     -0.000157     -0.000002
    58   Atom       -0.000091      0.000180     -0.000011
    59   Atom        0.000328      0.000527      0.000034
    60   Atom        0.001170     -0.000266      0.000019
    61   Atom        0.000999     -0.000457     -0.000178
    62   Atom        0.001083      0.000417      0.000196
    63   Atom        0.000892     -0.000051     -0.000069
    64   Atom        0.000062     -0.000339     -0.000353
    65   Atom        0.000084     -0.000521     -0.000164
    66   Atom        0.000043     -0.000140     -0.000389
    67   Atom        0.000207     -0.000561     -0.000666
    68   Atom       -0.000003      0.000411     -0.000190
    69   Atom       -0.000015      0.000091      0.000617
    70   Atom       -0.000073     -0.001047     -0.001402
    71   Atom        0.000939      0.003267      0.004714
    72   Atom        0.002006      0.002917      0.006098
    73   Atom        0.001892     -0.000476      0.000497
    74   Atom        0.000707     -0.002574     -0.003227
    75   Atom        0.002546     -0.003509     -0.004925
    76   Atom       -0.000180     -0.002883      0.000076
    77   Atom        0.000960     -0.003009     -0.001138
    78   Atom       -0.000123     -0.001499      0.000134
    79   Atom       -0.000535     -0.002804      0.000441
    80   Atom       -0.001636     -0.002691      0.002230
    81   Atom       -0.002766     -0.004257      0.004423
    82   Atom       -0.000389     -0.001481      0.001248
    83   Atom       -0.009665      0.008593      0.054570
    84   Atom        0.004699      0.005337      0.004086
    85   Atom        0.000320      0.004710      0.000635
    86   Atom        0.001207      0.002857      0.003271
    87   Atom        0.000153      0.001528      0.000506
 --------------------------------------------------------


 ---------------------------------------------------------------------------------
              Anisotropic Spin Dipole Couplings in Principal Axis System
 ---------------------------------------------------------------------------------

       Atom             a.u.   MegaHertz   Gauss  10(-4) cm-1        Axes

              Baa    -1.5049   -26.054    -9.297    -8.691  0.9711 -0.2380 -0.0186
     1 Fe(57) Bbb    -0.0760    -1.316    -0.470    -0.439  0.1654  0.7273 -0.6661
              Bcc     1.5809    27.370     9.766     9.130  0.1721  0.6438  0.7456
 
              Baa    -0.0233    -0.897    -0.320    -0.299 -0.4022  0.9134 -0.0631
     2 N(14)  Bbb    -0.0054    -0.209    -0.074    -0.070  0.9020  0.3834 -0.1985
              Bcc     0.0287     1.106     0.395     0.369  0.1571  0.1367  0.9781
 
              Baa    -0.0128    -0.495    -0.176    -0.165  0.4316  0.8865 -0.1666
     3 N(14)  Bbb    -0.0112    -0.432    -0.154    -0.144  0.8873 -0.3839  0.2558
              Bcc     0.0240     0.927     0.331     0.309 -0.1628  0.2582  0.9523
 
              Baa    -0.0187    -0.721    -0.257    -0.240 -0.4608  0.8863 -0.0457
     4 N(14)  Bbb     0.0062     0.238     0.085     0.080 -0.4171 -0.1708  0.8927
              Bcc     0.0125     0.482     0.172     0.161  0.7834  0.4304  0.4483
 
              Baa    -0.0195    -0.753    -0.269    -0.251  0.9041  0.4241  0.0519
     5 N(14)  Bbb     0.0078     0.300     0.107     0.100  0.1918 -0.5114  0.8377
              Bcc     0.0118     0.453     0.162     0.151 -0.3818  0.7474  0.5437
 
              Baa    -0.0065    -0.874    -0.312    -0.292  0.8047  0.5930  0.0278
     6 C(13)  Bbb     0.0007     0.088     0.031     0.029  0.1316 -0.2239  0.9657
              Bcc     0.0059     0.786     0.281     0.262 -0.5789  0.7734  0.2582
 
              Baa    -0.0029    -0.384    -0.137    -0.128  0.6410  0.7555 -0.1352
     7 C(13)  Bbb     0.0011     0.148     0.053     0.049  0.1671  0.0346  0.9853
              Bcc     0.0018     0.236     0.084     0.079  0.7491 -0.6542 -0.1040
 
              Baa    -0.0083    -1.117    -0.399    -0.373  0.9871  0.1209 -0.1046
     8 C(13)  Bbb    -0.0035    -0.473    -0.169    -0.158 -0.1219  0.9925 -0.0032
              Bcc     0.0119     1.591     0.568     0.531  0.1035  0.0159  0.9945
 
              Baa    -0.0064    -0.854    -0.305    -0.285  0.4225  0.1644  0.8913
     9 C(13)  Bbb    -0.0046    -0.618    -0.221    -0.206  0.9050 -0.0237 -0.4247
              Bcc     0.0110     1.473     0.526     0.491 -0.0487  0.9861 -0.1588
 
              Baa    -0.0071    -0.958    -0.342    -0.320 -0.1887  0.3712  0.9092
    10 C(13)  Bbb    -0.0045    -0.604    -0.216    -0.202  0.6525 -0.6446  0.3985
              Bcc     0.0116     1.563     0.558     0.521  0.7339  0.6684 -0.1206
 
              Baa    -0.0098    -1.316    -0.469    -0.439 -0.6396  0.7382 -0.2141
    11 C(13)  Bbb    -0.0048    -0.639    -0.228    -0.213  0.7559  0.6546 -0.0012
              Bcc     0.0146     1.954     0.697     0.652 -0.1393  0.1626  0.9768
 
              Baa    -0.0020    -0.262    -0.094    -0.088 -0.1340 -0.0305  0.9905
    12 C(13)  Bbb    -0.0012    -0.164    -0.059    -0.055  0.0791  0.9960  0.0414
              Bcc     0.0032     0.427     0.152     0.142  0.9878 -0.0839  0.1310
 
              Baa    -0.0108    -1.448    -0.517    -0.483 -0.1047  0.9895 -0.0999
    13 C(13)  Bbb     0.0016     0.215     0.077     0.072  0.9602  0.0745 -0.2692
              Bcc     0.0092     1.233     0.440     0.411  0.2590  0.1241  0.9579
 
              Baa    -0.0109    -1.462    -0.522    -0.488  0.7960  0.5201  0.3096
    14 C(13)  Bbb    -0.0001    -0.010    -0.004    -0.003 -0.3722  0.8240 -0.4272
              Bcc     0.0110     1.472     0.525     0.491 -0.4773  0.2248  0.8495
 
              Baa    -0.0034    -0.461    -0.165    -0.154 -0.1901 -0.1277  0.9734
    15 C(13)  Bbb     0.0000     0.004     0.001     0.001  0.5311  0.8205  0.2114
              Bcc     0.0034     0.457     0.163     0.153  0.8257 -0.5572  0.0881
 
              Baa    -0.0105    -1.406    -0.502    -0.469  0.9770  0.0847  0.1957
    16 C(13)  Bbb    -0.0063    -0.849    -0.303    -0.283 -0.0807  0.9963 -0.0281
              Bcc     0.0168     2.255     0.805     0.752 -0.1974  0.0116  0.9803
 
              Baa    -0.0077    -1.037    -0.370    -0.346 -0.1699  0.0486  0.9843
    17 C(13)  Bbb    -0.0032    -0.423    -0.151    -0.141  0.9822  0.0901  0.1650
              Bcc     0.0109     1.460     0.521     0.487 -0.0807  0.9947 -0.0630
 
[...]
              Bcc     0.0071     0.951     0.339     0.317  0.8499  0.0356  0.5257
 
              Baa    -0.0040    -0.543    -0.194    -0.181  0.3428  0.9191 -0.1944
    22 C(13)  Bbb    -0.0031    -0.413    -0.147    -0.138  0.1028  0.1690  0.9803
              Bcc     0.0071     0.956     0.341     0.319  0.9338 -0.3560 -0.0365
 
              Baa    -0.0016    -0.841    -0.300    -0.281  0.3931  0.9188  0.0362
    23 H(1)   Bbb    -0.0015    -0.808    -0.288    -0.270  0.0386 -0.0558  0.9977
              Bcc     0.0031     1.650     0.589     0.550  0.9187 -0.3908 -0.0574
 
              Baa    -0.0092    -1.238    -0.442    -0.413  0.0070  0.1550  0.9879
    24 C(13)  Bbb    -0.0011    -0.150    -0.053    -0.050  0.9250 -0.3763  0.0524
              Bcc     0.0103     1.388     0.495     0.463  0.3798  0.9135 -0.1460
 
              Baa    -0.0017    -0.898    -0.321    -0.300 -0.0250  0.1218  0.9922
    25 H(1)   Bbb    -0.0011    -0.602    -0.215    -0.201  0.9246 -0.3745  0.0692
              Bcc     0.0028     1.500     0.535     0.500  0.3801  0.9192 -0.1033
 
              Baa    -0.0040    -0.537    -0.192    -0.179 -0.3803 -0.5245  0.7617
    26 C(13)  Bbb    -0.0032    -0.428    -0.153    -0.143  0.2198  0.7488  0.6253
              Bcc     0.0072     0.965     0.344     0.322  0.8984 -0.4052  0.1695
 
              Baa    -0.0016    -0.872    -0.311    -0.291 -0.1921  0.0053  0.9814
    27 H(1)   Bbb    -0.0016    -0.828    -0.296    -0.276  0.3547  0.9328  0.0644
              Bcc     0.0032     1.701     0.607     0.567  0.9150 -0.3604  0.1811
 
              Baa    -0.0077    -1.040    -0.371    -0.347  0.9264 -0.3741  0.0430
    28 C(13)  Bbb     0.0025     0.329     0.118     0.110  0.1604  0.4953  0.8538
              Bcc     0.0053     0.710     0.253     0.237  0.3407  0.7840 -0.5188
 
              Baa    -0.0019    -1.008    -0.360    -0.336  0.9277 -0.3728 -0.0182
    29 H(1)   Bbb    -0.0016    -0.862    -0.308    -0.288 -0.0291 -0.1208  0.9922
              Bcc     0.0035     1.870     0.667     0.624  0.3721  0.9200  0.1229
 
              Baa    -0.0007    -0.093    -0.033    -0.031  0.6085  0.4518  0.6524
    30 C(13)  Bbb    -0.0006    -0.084    -0.030    -0.028 -0.5241 -0.3885  0.7579
              Bcc     0.0013     0.177     0.063     0.059 -0.5959  0.8031 -0.0004
 
              Baa    -0.0008    -0.447    -0.160    -0.149 -0.0104 -0.2389  0.9710
    31 H(1)   Bbb    -0.0008    -0.407    -0.145    -0.136  0.6897  0.7014  0.1799
              Bcc     0.0016     0.854     0.305     0.285  0.7240 -0.6716 -0.1575
 
              Baa    -0.0008    -0.450    -0.161    -0.150  0.0741  0.2993  0.9513
    32 H(1)   Bbb    -0.0008    -0.412    -0.147    -0.138  0.6616  0.6990 -0.2715
              Bcc     0.0016     0.863     0.308     0.288  0.7462 -0.6495  0.1462
 
              Baa    -0.0005    -0.274    -0.098    -0.091  0.7718  0.6353  0.0259
    33 H(1)   Bbb    -0.0005    -0.271    -0.097    -0.090 -0.0266 -0.0084  0.9996
              Bcc     0.0010     0.545     0.194     0.182 -0.6353  0.7722 -0.0105
 
              Baa    -0.0013    -0.169    -0.060    -0.056  0.9911  0.1319 -0.0171
    34 C(13)  Bbb    -0.0001    -0.011    -0.004    -0.004  0.0009  0.1216  0.9926
              Bcc     0.0013     0.180     0.064     0.060 -0.1330  0.9838 -0.1204
 
              Baa    -0.0009    -0.502    -0.179    -0.167  0.6513  0.1431  0.7452
    35 H(1)   Bbb    -0.0007    -0.389    -0.139    -0.130  0.7569 -0.1919 -0.6247
              Bcc     0.0017     0.891     0.318     0.297  0.0536  0.9709 -0.2333
 
              Baa    -0.0010    -0.513    -0.183    -0.171 -0.5201 -0.0532  0.8524
    36 H(1)   Bbb    -0.0007    -0.382    -0.136    -0.127  0.8502 -0.1277  0.5108
              Bcc     0.0017     0.895     0.319     0.298  0.0816  0.9904  0.1116
 
              Baa    -0.0006    -0.313    -0.112    -0.104  0.9844  0.1752  0.0154
    37 H(1)   Bbb    -0.0005    -0.284    -0.101    -0.095 -0.0228  0.0408  0.9989
              Bcc     0.0011     0.596     0.213     0.199 -0.1743  0.9837 -0.0441
 
              Baa    -0.0007    -0.093    -0.033    -0.031  0.0682  0.7709 -0.6333
    38 C(13)  Bbb    -0.0005    -0.062    -0.022    -0.021 -0.1597  0.6351  0.7558
              Bcc     0.0012     0.155     0.055     0.052  0.9848  0.0496  0.1664
 
              Baa    -0.0007    -0.361    -0.129    -0.120 -0.1471 -0.0442  0.9881
    39 H(1)   Bbb    -0.0006    -0.296    -0.106    -0.099 -0.1468  0.9889  0.0224
              Bcc     0.0012     0.657     0.234     0.219  0.9782  0.1418  0.1519
 
              Baa    -0.0006    -0.300    -0.107    -0.100  0.0256  0.8538 -0.5200
    40 H(1)   Bbb    -0.0005    -0.293    -0.105    -0.098  0.0190  0.5197  0.8542
              Bcc     0.0011     0.593     0.212     0.198  0.9995 -0.0318 -0.0029
 
              Baa    -0.0007    -0.382    -0.136    -0.127  0.1828 -0.3491  0.9191
    41 H(1)   Bbb    -0.0006    -0.298    -0.106    -0.099 -0.1219  0.9196  0.3736
              Bcc     0.0013     0.680     0.242     0.227  0.9756  0.1803 -0.1255
 
              Baa    -0.0016    -0.212    -0.076    -0.071  0.6720 -0.4735 -0.5693
    42 C(13)  Bbb    -0.0002    -0.021    -0.007    -0.007  0.3020 -0.5267  0.7946
              Bcc     0.0017     0.233     0.083     0.078  0.6761  0.7059  0.2109
 
              Baa    -0.0007    -0.358    -0.128    -0.119  0.3344 -0.3182  0.8871
    43 H(1)   Bbb    -0.0006    -0.339    -0.121    -0.113 -0.6016  0.6525  0.4609
              Bcc     0.0013     0.697     0.249     0.233  0.7255  0.6877 -0.0268
 
              Baa    -0.0013    -0.171    -0.061    -0.057  0.0072 -0.3398  0.9405
    44 C(13)  Bbb     0.0002     0.025     0.009     0.008  0.3011  0.8976  0.3220
              Bcc     0.0011     0.146     0.052     0.049  0.9536 -0.2809 -0.1088
 
              Baa    -0.0006    -0.340    -0.121    -0.114 -0.5932  0.5276  0.6081
    45 H(1)   Bbb    -0.0005    -0.257    -0.092    -0.086 -0.0589  0.7249 -0.6864
              Bcc     0.0011     0.597     0.213     0.199  0.8029  0.4430  0.3989
 
              Baa    -0.0004    -0.222    -0.079    -0.074  0.0307 -0.3256  0.9450
    46 H(1)   Bbb    -0.0004    -0.197    -0.070    -0.066 -0.5742  0.7681  0.2833
              Bcc     0.0008     0.419     0.149     0.140  0.8182  0.5513  0.1634
 
              Baa    -0.0012    -0.167    -0.060    -0.056  0.9755  0.1392  0.1702
    47 C(13)  Bbb    -0.0002    -0.031    -0.011    -0.010 -0.1708 -0.0077  0.9853
              Bcc     0.0015     0.198     0.071     0.066 -0.1384  0.9902 -0.0162
 
              Baa    -0.0009    -0.506    -0.181    -0.169 -0.6709 -0.1348  0.7292
    48 H(1)   Bbb    -0.0007    -0.394    -0.141    -0.131  0.7409 -0.1652  0.6510
              Bcc     0.0017     0.900     0.321     0.300  0.0327  0.9770  0.2107
 
              Baa    -0.0010    -0.512    -0.183    -0.171  0.2218  0.1213  0.9675
    49 H(1)   Bbb    -0.0008    -0.407    -0.145    -0.136  0.9694 -0.1349 -0.2053
              Bcc     0.0017     0.919     0.328     0.307  0.1056  0.9834 -0.1475
 
              Baa    -0.0006    -0.318    -0.113    -0.106  0.9824  0.1660  0.0851
    50 H(1)   Bbb    -0.0005    -0.277    -0.099    -0.092 -0.0869  0.0034  0.9962
              Bcc     0.0011     0.594     0.212     0.198 -0.1651  0.9861 -0.0177
 
              Baa    -0.0013    -0.180    -0.064    -0.060  0.5645  0.5725  0.5946
    51 C(13)  Bbb    -0.0001    -0.018    -0.006    -0.006  0.8198 -0.3051 -0.4846
              Bcc     0.0015     0.198     0.071     0.066 -0.0960  0.7610 -0.6416
 
              Baa    -0.0008    -0.419    -0.149    -0.140 -0.2480  0.0261  0.9684
    52 H(1)   Bbb    -0.0007    -0.384    -0.137    -0.128  0.6321  0.7618  0.1413
              Bcc     0.0015     0.802     0.286     0.268  0.7341 -0.6472  0.2055
 
              Baa    -0.0030    -0.397    -0.142    -0.133 -0.2401 -0.5090  0.8266
    53 C(13)  Bbb     0.0009     0.115     0.041     0.038  0.6464  0.5515  0.5273
              Bcc     0.0021     0.282     0.101     0.094  0.7242 -0.6609 -0.1966
 
              Baa    -0.0007    -0.359    -0.128    -0.120  0.7043  0.3493  0.6180
    54 H(1)   Bbb    -0.0005    -0.246    -0.088    -0.082 -0.4746 -0.4158  0.7758
              Bcc     0.0011     0.605     0.216     0.202 -0.5280  0.8397  0.1271
 
              Baa    -0.0003    -0.183    -0.065    -0.061  0.6449  0.4852 -0.5905
    55 H(1)   Bbb    -0.0003    -0.134    -0.048    -0.045  0.5411  0.2558  0.8011
              Bcc     0.0006     0.317     0.113     0.106 -0.5397  0.8361  0.0976
 
              Baa    -0.0007    -0.090    -0.032    -0.030 -0.1089 -0.6867  0.7187
    56 C(13)  Bbb    -0.0006    -0.086    -0.031    -0.029 -0.0935  0.7269  0.6804
              Bcc     0.0013     0.176     0.063     0.059  0.9896 -0.0069  0.1434
 
              Baa    -0.0008    -0.425    -0.152    -0.142  0.0861 -0.1174  0.9894
    57 H(1)   Bbb    -0.0006    -0.344    -0.123    -0.115 -0.1256  0.9838  0.1276
              Bcc     0.0014     0.769     0.274     0.257  0.9883  0.1352 -0.0699
 
              Baa    -0.0006    -0.323    -0.115    -0.108 -0.0974  0.0717  0.9927
    58 H(1)   Bbb    -0.0006    -0.311    -0.111    -0.104  0.0586  0.9961 -0.0662
              Bcc     0.0012     0.634     0.226     0.211  0.9935 -0.0518  0.1012
 
              Baa    -0.0008    -0.419    -0.150    -0.140 -0.2900  0.3601  0.8867
    59 H(1)   Bbb    -0.0006    -0.340    -0.121    -0.114 -0.0512  0.9193 -0.3901
              Bcc     0.0014     0.759     0.271     0.253  0.9556  0.1585  0.2482
 
              Baa    -0.0013    -0.170    -0.061    -0.057  0.7389 -0.6564  0.1521
    60 C(13)  Bbb     0.0001     0.016     0.006     0.005 -0.0046  0.2207  0.9753
              Bcc     0.0011     0.154     0.055     0.051  0.6738  0.7214 -0.1600
 
              Baa    -0.0009    -0.469    -0.167    -0.156  0.4508 -0.4245  0.7853
    61 H(1)   Bbb    -0.0007    -0.372    -0.133    -0.124 -0.3105  0.7502  0.5837
              Bcc     0.0016     0.841     0.300     0.280  0.8369  0.5069 -0.2064
 
              Baa    -0.0009    -0.468    -0.167    -0.156 -0.5268  0.5877  0.6141
    62 H(1)   Bbb    -0.0007    -0.397    -0.142    -0.132  0.2161 -0.6062  0.7654
              Bcc     0.0016     0.865     0.309     0.289  0.8221  0.5359  0.1923
 
              Baa    -0.0006    -0.336    -0.120    -0.112 -0.0752  0.1212  0.9898
    63 H(1)   Bbb    -0.0006    -0.318    -0.113    -0.106  0.7691 -0.6247  0.1349
              Bcc     0.0012     0.654     0.233     0.218  0.6347  0.7714 -0.0462
 
              Baa    -0.0006    -0.076    -0.027    -0.025  0.5816  0.7534  0.3067
    64 C(13)  Bbb    -0.0005    -0.071    -0.025    -0.024  0.7848 -0.6189  0.0321
              Bcc     0.0011     0.148     0.053     0.049 -0.2140 -0.2220  0.9513
 
              Baa    -0.0006    -0.333    -0.119    -0.111 -0.6525  0.7458 -0.1345
    65 H(1)   Bbb    -0.0006    -0.301    -0.108    -0.101  0.6908  0.6583  0.2992
              Bcc     0.0012     0.634     0.226     0.211 -0.3117 -0.1023  0.9447
 
              Baa    -0.0006    -0.326    -0.116    -0.109  0.9851 -0.1662  0.0438
    66 H(1)   Bbb    -0.0006    -0.294    -0.105    -0.098  0.1507  0.9578  0.2448
              Bcc     0.0012     0.620     0.221     0.207 -0.0826 -0.2345  0.9686
 
              Baa    -0.0007    -0.382    -0.136    -0.128  0.5200  0.7162  0.4654
    67 H(1)   Bbb    -0.0007    -0.361    -0.129    -0.120  0.7994 -0.6000  0.0302
              Bcc     0.0014     0.743     0.265     0.248 -0.3008 -0.3564  0.8846
 
              Baa    -0.0022    -0.084    -0.030    -0.028  0.9974 -0.0164 -0.0701
    68 N(14)  Bbb    -0.0016    -0.060    -0.022    -0.020  0.0189  0.9992  0.0346
              Bcc     0.0037     0.144     0.051     0.048  0.0695 -0.0359  0.9969
 
              Baa    -0.0012    -0.627    -0.224    -0.209  0.8739  0.4731 -0.1116
    69 H(1)   Bbb    -0.0011    -0.587    -0.209    -0.196 -0.4854  0.8613 -0.1499
              Bcc     0.0023     1.213     0.433     0.405  0.0252  0.1851  0.9824
 
              Baa    -0.0019    -0.256    -0.091    -0.085  0.5601  0.7278  0.3956
    70 C(13)  Bbb    -0.0010    -0.135    -0.048    -0.045  0.7942 -0.6077 -0.0065
              Bcc     0.0029     0.391     0.139     0.130 -0.2357 -0.3178  0.9184
 
              Baa    -0.0074    -0.991    -0.353    -0.330 -0.0329  0.9681 -0.2483
    71 C(13)  Bbb    -0.0051    -0.685    -0.244    -0.228  0.9798 -0.0177 -0.1990
              Bcc     0.0125     1.675     0.598     0.559  0.1970  0.2499  0.9480
 
              Baa    -0.0048    -2.555    -0.912    -0.852 -0.2892  0.8370 -0.4645
    72 H(1)   Bbb    -0.0046    -2.461    -0.878    -0.821  0.9209  0.1108 -0.3738
              Bcc     0.0094     5.016     1.790     1.673  0.2614  0.5358  0.8028
 
              Baa    -0.0074    -0.287    -0.102    -0.096  0.0650 -0.0452  0.9969
    73 N(14)  Bbb     0.0006     0.023     0.008     0.008  0.9473 -0.3113 -0.0759
              Bcc     0.0069     0.265     0.094     0.088  0.3138  0.9492  0.0226
 
              Baa    -0.0041    -0.549    -0.196    -0.183  0.4235  0.8304  0.3622
    74 C(13)  Bbb    -0.0039    -0.519    -0.185    -0.173  0.8759 -0.4773  0.0702
              Bcc     0.0080     1.068     0.381     0.356 -0.2311 -0.2875  0.9295
 
              Baa    -0.0041    -2.204    -0.786    -0.735  0.6266  0.4183  0.6576
    75 H(1)   Bbb    -0.0039    -2.070    -0.739    -0.690 -0.6733  0.7154  0.1864
              Bcc     0.0080     4.273     1.525     1.425 -0.3925 -0.5596  0.7299
 
              Baa    -0.0020    -0.275    -0.098    -0.092  0.6671  0.5247  0.5289
    76 C(13)  Bbb    -0.0018    -0.247    -0.088    -0.083 -0.3891  0.8508 -0.3533
              Bcc     0.0039     0.522     0.186     0.174 -0.6353  0.0298  0.7717
 
              Baa    -0.0023    -1.202    -0.429    -0.401 -0.0527  0.9644  0.2592
    77 H(1)   Bbb    -0.0021    -1.115    -0.398    -0.372  0.7686 -0.1266  0.6270
              Bcc     0.0043     2.316     0.826     0.773 -0.6375 -0.2323  0.7346
 
              Baa    -0.0011    -0.569    -0.203    -0.190  0.7841  0.1882  0.5915
    78 H(1)   Bbb    -0.0010    -0.523    -0.187    -0.175 -0.1132  0.9803 -0.1618
              Bcc     0.0020     1.092     0.390     0.364 -0.6103  0.0599  0.7899
 
              Baa    -0.0021    -1.118    -0.399    -0.373  0.4797 -0.4002  0.7809
    79 H(1)   Bbb    -0.0019    -1.029    -0.367    -0.343  0.3159  0.9090  0.2718
              Bcc     0.0040     2.147     0.766     0.716  0.8186 -0.1163 -0.5625
 
              Baa    -0.0034    -0.450    -0.160    -0.150  0.8825  0.4096  0.2310
    80 C(13)  Bbb    -0.0020    -0.264    -0.094    -0.088 -0.2495  0.8243 -0.5083
              Bcc     0.0053     0.713     0.255     0.238 -0.3986  0.3909  0.8296
 
              Baa    -0.0042    -2.260    -0.807    -0.754  0.4256 -0.5830  0.6921
    81 H(1)   Bbb    -0.0038    -2.036    -0.726    -0.679  0.7641  0.6413  0.0704
              Bcc     0.0081     4.296     1.533     1.433 -0.4849  0.4989  0.7183
 
              Baa    -0.0020    -1.057    -0.377    -0.353  0.9578  0.0236  0.2864
    82 H(1)   Bbb    -0.0017    -0.897    -0.320    -0.299  0.0506  0.9672 -0.2490
              Bcc     0.0037     1.954     0.697     0.652 -0.2829  0.2530  0.9252
 
              Baa    -0.1372    -5.626    -2.007    -1.877 -0.0581 -0.2511  0.9662
    83 S(33)  Bbb     0.0469     1.925     0.687     0.642  0.9840  0.1489  0.0978
              Bcc     0.0903     3.701     1.321     1.235 -0.1684  0.9564  0.2385
 
              Baa    -0.0064    -0.856    -0.305    -0.286 -0.6138  0.7894  0.0054
    84 C(13)  Bbb    -0.0035    -0.474    -0.169    -0.158 -0.5498 -0.4323  0.7147
              Bcc     0.0099     1.330     0.475     0.444  0.5666  0.4358  0.6994
 
              Baa    -0.0034    -1.788    -0.638    -0.596  0.5906  0.5701 -0.5711
    85 H(1)   Bbb    -0.0030    -1.587    -0.566    -0.529 -0.4702  0.8183  0.3306
              Bcc     0.0063     3.375     1.204     1.126  0.6558  0.0733  0.7513
 
              Baa    -0.0034    -1.829    -0.653    -0.610  0.8281  0.2492 -0.5021
    86 H(1)   Bbb    -0.0026    -1.363    -0.486    -0.455 -0.4313  0.8555 -0.2867
              Bcc     0.0060     3.191     1.139     1.065  0.3581  0.4539  0.8159
 
              Baa    -0.0020    -1.085    -0.387    -0.362  0.9611 -0.0200 -0.2753
    87 H(1)   Bbb    -0.0017    -0.919    -0.328    -0.307 -0.0076  0.9951 -0.0987
              Bcc     0.0038     2.005     0.715     0.669  0.2759  0.0970  0.9563
 

 ---------------------------------------------------------------------------------

 Unable to Open any file for archive entry.
 1\1\GINC-BGN1020\SP\UAPFD\Gen\C37H42Fe1N6S1(1+,2)\BECSLEIP\13-Oct-2024
 \0\\# apfd/gen scf=maxcycle=999 geom=check\\5ocb_III_D\\1,2\Fe,0,39.35
 1,59.715,17.637\N,0,40.711,61.199,17.847\N,0,37.887,60.949,17.914\N,0,
 37.962,58.169,17.379\N,0,40.914,58.393,17.322\C,0,42.046,61.115,17.633
 \C,0,42.638,62.39,17.893\C,0,41.63,63.23,18.282\C,0,40.41,62.469,18.26
 1\C,0,37.99,62.248,18.344\C,0,36.655,62.859,18.469\C,0,35.774,61.912,1
 8.106\C,0,36.555,60.726,17.756\C,0,36.628,58.35,17.284\C,0,36.012,57.0
 46,17.057\C,0,37.057,56.121,17.036\C,0,38.27,56.857,17.262\C,0,40.738,
 57.078,17.201\C,0,42.056,56.487,16.927\C,0,42.953,57.533,16.944\C,0,42
 .189,58.718,17.165\C,0,42.741,60.003,17.237\H,0,43.788,60.126,16.961\C
 ,0,39.158,62.961,18.58\H,0,39.085,63.948,19.035\C,0,35.942,59.53,17.38
 9\H,0,34.873,59.534,17.177\C,0,39.545,56.332,17.253\H,0,39.637,55.247,
 17.289\C,0,44.126,62.682,17.775\H,0,44.229,62.371,16.714\H,0,44.468,61
 .852,18.429\H,0,44.751,63.584,17.948\C,0,41.744,64.718,18.67\H,0,41.26
 3,64.617,19.667\H,0,40.992,65.093,17.944\H,0,42.587,65.437,18.748\C,0,
 44.454,57.492,16.722\H,0,44.605,56.775,17.557\H,0,45.349,58.145,16.642
 \H,0,44.314,56.922,15.779\C,0,42.263,55.031,16.967\H,0,42.199,54.489,1
 6.017\C,0,43.265,54.584,17.763\H,0,43.441,55.041,18.748\H,0,43.914,53.
 759,17.434\C,0,36.976,54.623,16.836\H,0,37.512,54.35,17.77\H,0,37.69,5
 4.579,15.986\H,0,36.146,53.902,16.673\C,0,34.528,56.864,17.028\H,0,34.
 073,57.784,16.682\C,0,33.912,55.775,17.582\H,0,34.5,54.899,17.892\H,0,
 32.821,55.763,17.724\C,0,34.262,62.079,18.085\H,0,34.263,62.51,19.109\
 H,0,33.341,61.472,17.951\H,0,34.282,62.908,17.346\C,0,36.258,64.266,18
 .916\H,0,35.642,63.935,19.78\H,0,35.596,64.407,18.035\H,0,36.755,65.22
 5,19.175\C,0,39.595,59.216,12.015\H,0,40.434,59.761,11.532\H,0,38.663,
 59.405,11.44\H,0,39.826,58.129,12.018\N,0,39.136,61.008,13.723\H,0,38.
 997,61.73,13.046\C,0,39.429,59.699,13.416\C,0,39.069,61.152,15.035\H,0
 ,38.874,62.094,15.546\N,0,39.277,59.97,15.591\C,0,39.516,59.047,14.598
 \H,0,39.726,58.011,14.83\C,0,37.017,59.875,21.037\H,0,37.504,60.873,21
 .062\H,0,36.637,59.64,22.054\H,0,36.169,59.912,20.32\C,0,38.02,58.813,
 20.6\H,0,37.511,58.145,19.874\H,0,38.291,58.215,21.495\S,0,39.532,59.4
 43,19.845\C,0,40.661,58.131,20.348\H,0,41.672,58.279,19.912\H,0,40.281
 ,57.145,20.005\H,0,40.763,58.116,21.454\\Version=ES64L-G16RevC.02\Stat
 e=2-A\HF=-3423.7724764\S2=0.796509\S2-1=0.\S2A=0.750944\RMSD=3.597e-09
 \Dipole=-0.0025524,0.8604994,-0.9202494\Quadrupole=1.8029666,3.4106658
 ,-5.2136324,-4.0769803,-2.8579162,-4.7313834\PG=C01 [X(C37H42Fe1N6S1)]
 \\@
 The archive entry for this job was punched.


 A CHEMICAL PHYSICIST MAKES PRECISE MEASUREMENTS ON IMPURE COMPOUNDS.
 A THEORETICAL PHYSICAL CHEMIST MAKES IMPRECISE
     MEASUREMENTS ON PURE COMPOUNDS.
 AN EXPERIMENTAL PHYSICAL CHEMIST MAKES IMPRECISE
     MEASUREMENTS ON IMPURE COMPOUNDS.
 Job cpu time:       0 days  4 hours 52 minutes 36.2 seconds.
 Elapsed time:       0 days  0 hours  4 minutes 58.2 seconds.
 File lengths (MBytes):  RWF=    505 Int=      0 D2E=      0 Chk=    227 Scr=      1
 Normal termination of Gaussian 16 at Sun Oct 13 00:34:12 2024.
