 Entering Gaussian System, Link 0=g16
 Input=5ych01.com
 Output=5ych01.log
 Initial command:
 /sw/chem/gaussian/g16_C02/a100/g16/l1.exe "/local/becsleip_8058440/Gau-932628.inp" -scrdir="/local/becsleip_8058440/"
 Entering Link 1 = /sw/chem/gaussian/g16_C02/a100/g16/l1.exe PID=    932629.
  
 Copyright (c) 1988-2021, Gaussian, Inc.  All Rights Reserved.
  
 This is part of the Gaussian(R) 16 program.  It is based on
 the Gaussian(R) 09 system (copyright 2009, Gaussian, Inc.),
 the Gaussian(R) 03 system (copyright 2003, Gaussian, Inc.),
 the Gaussian(R) 98 system (copyright 1998, Gaussian, Inc.),
 the Gaussian(R) 94 system (copyright 1995, Gaussian, Inc.),
 the Gaussian 92(TM) system (copyright 1992, Gaussian, Inc.),
 the Gaussian 90(TM) system (copyright 1990, Gaussian, Inc.),
 the Gaussian 88(TM) system (copyright 1988, Gaussian, Inc.),
 the Gaussian 86(TM) system (copyright 1986, Carnegie Mellon
 University), and the Gaussian 82(TM) system (copyright 1983,
 Carnegie Mellon University). Gaussian is a federally registered
 trademark of Gaussian, Inc.
  
 This software contains proprietary and confidential information,
 including trade secrets, belonging to Gaussian, Inc.
  
 This software is provided under written license and may be
 used, copied, transmitted, or stored only in accord with that
 written license.
  
 The following legend is applicable only to US Government
 contracts under FAR:
  
                    RESTRICTED RIGHTS LEGEND
  
 Use, reproduction and disclosure by the US Government is
 subject to restrictions as set forth in subparagraphs (a)
 and (c) of the Commercial Computer Software - Restricted
 Rights clause in FAR 52.227-19.
  
 Gaussian, Inc.
 340 Quinnipiac St., Bldg. 40, Wallingford CT 06492
  
  
 ---------------------------------------------------------------
 Warning -- This program may not be used in any manner that
 competes with the business of Gaussian, Inc. or will provide
 assistance to any competitor of Gaussian, Inc.  The licensee
 of this program is prohibited from giving any competitor of
 Gaussian, Inc. access to this program.  By using this program,
 the user acknowledges that Gaussian, Inc. is engaged in the
 business of creating and licensing software in the field of
 computational chemistry and represents and warrants to the
 licensee that it is not a competitor of Gaussian, Inc. and that
 it will not use this program in any manner prohibited above.
 ---------------------------------------------------------------
  

 Cite this work as:
 Gaussian 16, Revision C.02,
 M. J. Frisch, G. W. Trucks, H. B. Schlegel, G. E. Scuseria, 
 M. A. Robb, J. R. Cheeseman, G. Scalmani, V. Barone, 
 G. A. Petersson, H. Nakatsuji, X. Li, M. Caricato, A. V. Marenich, 
 J. Bloino, B. G. Janesko, R. Gomperts, B. Mennucci, H. P. Hratchian, 
 J. V. Ortiz, A. F. Izmaylov, J. L. Sonnenberg, D. Williams-Young, 
 F. Ding, F. Lipparini, F. Egidi, J. Goings, B. Peng, A. Petrone, 
 T. Henderson, D. Ranasinghe, V. G. Zakrzewski, J. Gao, N. Rega, 
 G. Zheng, W. Liang, M. Hada, M. Ehara, K. Toyota, R. Fukuda, 
 J. Hasegawa, M. Ishida, T. Nakajima, Y. Honda, O. Kitao, H. Nakai, 
 T. Vreven, K. Throssell, J. A. Montgomery, Jr., J. E. Peralta, 
 F. Ogliaro, M. J. Bearpark, J. J. Heyd, E. N. Brothers, K. N. Kudin, 
 V. N. Staroverov, T. A. Keith, R. Kobayashi, J. Normand, 
 K. Raghavachari, A. P. Rendell, J. C. Burant, S. S. Iyengar, 
 J. Tomasi, M. Cossi, J. M. Millam, M. Klene, C. Adamo, R. Cammi, 
 J. W. Ochterski, R. L. Martin, K. Morokuma, O. Farkas, 
 J. B. Foresman, and D. J. Fox, Gaussian, Inc., Wallingford CT, 2019.
 
 ******************************************
 Gaussian 16:  ES64L-G16RevC.02  7-Dec-2021
                24-Oct-2024 
 ******************************************
 %mem=16GB
 %CPU=0-71
 SetSPE:  set environment variable "OMP_PROC_BIND" = "true"
 SetSPE:  set environment variable "OMP_PLACES" = "{0},{1},{2},{3},{4},{5},{6},{7},{8},{9},{10},{11},{12},{13},{14},{15},{16},{17},{18},{19},{20},{21},{22},{23},{24},{25},{26},{27},{28},{29},{30},{31},{32},{33},{34},{35},{36},{37},{38},{39},{40},{41},{42},{43},{44},{45},{46},{47},{48},{49},{50},{51},{52},{53},{54},{55},{56},{57},{58},{59},{60},{61},{62},{63},{64},{65},{66},{67},{68},{69},{70},{71}"
 Will use up to   72 processors via shared memory.
 %gpucpu=0,1,2,3=0,1,2,3
 Will use    4 GPUs:
 Thread  CPU   GPU
      0    0     0
      1    1     1
      2    2     2
      3    3     3
      4    4    -1
      5    5    -1
      6    6    -1
      7    7    -1
      8    8    -1
      9    9    -1
     10   10    -1
     11   11    -1
     12   12    -1
     13   13    -1
     14   14    -1
     15   15    -1
     16   16    -1
     17   17    -1
     18   18    -1
     19   19    -1
     20   20    -1
     21   21    -1
     22   22    -1
     23   23    -1
     24   24    -1
     25   25    -1
     26   26    -1
     27   27    -1
     28   28    -1
     29   29    -1
     30   30    -1
     31   31    -1
     32   32    -1
     33   33    -1
     34   34    -1
     35   35    -1
     36   36    -1
     37   37    -1
     38   38    -1
     39   39    -1
     40   40    -1
     41   41    -1
     42   42    -1
     43   43    -1
     44   44    -1
     45   45    -1
     46   46    -1
     47   47    -1
     48   48    -1
     49   49    -1
     50   50    -1
     51   51    -1
     52   52    -1
     53   53    -1
     54   54    -1
     55   55    -1
     56   56    -1
     57   57    -1
     58   58    -1
     59   59    -1
     60   60    -1
     61   61    -1
     62   62    -1
     63   63    -1
     64   64    -1
     65   65    -1
     66   66    -1
     67   67    -1
     68   68    -1
     69   69    -1
     70   70    -1
     71   71    -1
 SetGPE:  set environment variable "OMP_PROC_BIND" = "true"
 SetGPE:  set environment variable "OMP_PLACES" = "{0},{1},{2},{3},{4},{5},{6},{7},{8},{9},{10},{11},{12},{13},{14},{15},{16},{17},{18},{19},{20},{21},{22},{23},{24},{25},{26},{27},{28},{29},{30},{31},{32},{33},{34},{35},{36},{37},{38},{39},{40},{41},{42},{43},{44},{45},{46},{47},{48},{49},{50},{51},{52},{53},{54},{55},{56},{57},{58},{59},{60},{61},{62},{63},{64},{65},{66},{67},{68},{69},{70},{71}"
 %chk=5ych_II_O.chk
 Properties for Device   0
 Minimum vector length:                              32
 Maximum vector length:                            1024
 Number of SMPs:                                    108
 Maximum number of threads per SMP:                2048
 Number of ASync Engines:                             5
 Memory:                                           9207742464
 Properties for Device   1
 Minimum vector length:                              32
 Maximum vector length:                            1024
 Number of SMPs:                                    108
 Maximum number of threads per SMP:                2048
 Number of ASync Engines:                             5
 Memory:                                           9207742464
 Properties for Device   2
 Minimum vector length:                              32
 Maximum vector length:                            1024
 Number of SMPs:                                    108
 Maximum number of threads per SMP:                2048
 Number of ASync Engines:                             5
 Memory:                                           9207742464
 Properties for Device   3
 Minimum vector length:                              32
 Maximum vector length:                            1024
 Number of SMPs:                                    108
 Maximum number of threads per SMP:                2048
 Number of ASync Engines:                             5
 Memory:                                           9207742464
   8286968217 words of memory will be used on each GPU.
 ------------------------------------------
 # polar def2tzvp apfd int=(grid=ultrafine)
 ------------------------------------------
 1/38=1,172=1/1;
 2/12=2,17=6,18=5,40=1/2;
 3/5=44,7=101,11=2,25=1,30=1,74=-44,75=-5/1,2,3;
 4//1;
 5/5=2,38=5,98=1/2;
 8/6=4,10=90,11=11/1;
 10/6=1,13=10/2;
 6/7=2,8=2,9=2,10=2,28=1/1;
 99/5=1,9=1/99;
 ---------
 5ych_II_S
 ---------
 Symbolic Z-matrix:
 Charge =  0 Multiplicity = 1
 Fe                   -0.50257  -5.49526  -15.21428 
 N                    -1.92633  -6.71824  -15.92232 
 N                    -1.92805  -4.1551   -14.72757 
 N                     0.90378  -4.22221  -14.55489 
 N                     0.89753  -6.79315  -15.77535 
 C                    -1.74028  -7.96556  -16.43052 
 C                    -3.00885  -8.59344  -16.72801 
 C                    -3.96869  -7.69692  -16.37614 
 C                    -3.27168  -6.53281  -15.87429 
 C                    -3.27274  -4.29563  -14.87321 
 C                    -3.97238  -3.15296  -14.34156 
 C                    -3.01139  -2.29634  -13.87655 
 C                    -1.74021  -2.94704  -14.13452 
 C                     0.71437  -2.95646  -14.08937 
 C                     1.97003  -2.27293  -13.92738 
 C                     2.93986  -3.14941  -14.3411 
 C                     2.24439  -4.36031  -14.72977 
 C                     2.24259  -6.61665  -15.69736 
 C                     2.94034  -7.72481  -16.3136 
 C                     1.98132  -8.59026  -16.73797 
 C                     0.71138  -7.98737  -16.39613 
 C                    -0.51504  -8.5588   -16.67827 
 H                    -0.51745  -9.53578  -17.13772 
 C                    -3.90849  -5.39641  -15.41894 
 H                    -4.98626  -5.37614  -15.47143 
 C                    -0.51834  -2.382    -13.8257 
 H                    -0.52186  -1.38605  -13.4094 
 C                     2.87898  -5.49925  -15.19203 
 H                     3.95729  -5.48524  -15.23641 
 C                    -5.45167  -7.81731  -16.46389 
 H                    -5.73858  -8.78524  -16.86776 
 H                    -5.86186  -7.04121  -17.11042 
 H                    -5.90397  -7.70896  -15.47775 
 C                    -3.15765  -9.96208  -17.30006 
 H                    -2.68997  -10.70376  -16.65181 
 H                    -2.68153  -10.02226  -18.27909 
 H                    -4.20729  -10.22138  -17.41462 
 C                    -5.45262  -3.00906  -14.27007 
 H                    -5.92127  -3.96129  -14.02608 
 H                    -5.85739  -2.66852  -15.22459 
 H                    -5.72034  -2.28314  -13.50497 
 C                    -3.16433  -1.01156  -13.23003 
 H                    -2.42659  -0.77778  -12.47072 
 C                    -4.11297  -0.1204   -13.49935 
 H                    -4.8422   -0.27687  -14.2749 
 H                    -4.17576   0.81437  -12.96705 
 C                     2.13602  -0.90313  -13.36772 
 H                     1.43427  -0.73219  -12.55262 
 H                     1.95594  -0.14373  -14.13074 
 H                     3.14783  -0.77556  -12.98829 
 C                     4.37368  -2.96833  -14.38866 
 H                     4.9644   -3.85693  -14.19827 
 C                     4.99978  -1.82556  -14.6512 
 H                     4.46784  -0.9225   -14.89495 
 H                     6.07528  -1.76089  -14.65625 
 C                     4.42314  -7.83421  -16.41563 
 H                     4.87882  -7.80593  -15.4256 
 H                     4.82916  -7.00652  -16.99782 
 H                     4.71055  -8.76497  -16.89873 
 C                     2.12941  -9.89519  -17.44328 
 H                     1.67301  -10.69885  -16.86445 
 H                     3.17869  -10.13648  -17.59443 
 H                     1.64119  -9.86246  -18.41755 
 O                    -0.28     -4.44     -17.211 
 H                     0.276    -3.676    -17.056 
 H                    -0.599    -4.708    -17.996 
 C                    -0.80402  -6.46459  -9.73312 
 H                     0.04449  -6.95359  -9.25478 
 H                    -1.71896  -6.90537  -9.33735 
 H                    -0.78742  -5.40989  -9.47739 
 N                    -0.72811  -7.84466  -11.82156 
 H                    -0.76122  -8.73604  -11.35475 
 C                    -0.73876  -6.61901  -11.20851 
 C                    -0.66292  -7.63477  -13.15613 
 H                    -0.63982  -8.41674  -13.88703 
 N                    -0.63239  -6.35191  -13.42459 
 C                    -0.67887  -5.70741  -12.22319 
 H                    -0.66592  -4.63873  -12.17032 
 
 Stoichiometry    C34H36FeN6O
 Framework group  C1[X(C34H36FeN6O)]
 Deg. of freedom   228
 Full point group                 C1      NOp   1
 Largest Abelian subgroup         C1      NOp   1
 Largest concise Abelian subgroup C1      NOp   1
                         Standard orientation:                         
 ---------------------------------------------------------------------
 Center     Atomic      Atomic             Coordinates (Angstroms)
 Number     Number       Type             X           Y           Z
 ---------------------------------------------------------------------
      1         26           0        0.216567   -0.029940   -0.316384
      2          7           0        1.349330   -1.671514   -0.531243
      3          7           0       -1.434296   -1.179403   -0.451561
      4          7           0       -0.945087    1.601432   -0.166625
      5          7           0        1.854358    1.099148   -0.267074
      6          6           0        2.707457   -1.726007   -0.496321
      7          6           0        3.168471   -3.095226   -0.565039
      8          6           0        2.052598   -3.869324   -0.631582
      9          6           0        0.927003   -2.960848   -0.608176
     10          6           0       -1.486016   -2.532457   -0.576892
     11          6           0       -2.849282   -3.000686   -0.566928
     12          6           0       -3.636824   -1.887712   -0.446085
     13          6           0       -2.725027   -0.760722   -0.379885
     14          6           0       -2.303499    1.654232   -0.248119
     15          6           0       -2.763244    3.015366   -0.326231
     16          6           0       -1.639163    3.800463   -0.324012
     17          6           0       -0.515983    2.889593   -0.224991
     18          6           0        1.900529    2.456305   -0.218056
     19          6           0        3.265889    2.925511   -0.319367
     20          6           0        4.045623    1.814470   -0.399354
     21          6           0        3.143899    0.683501   -0.369618
     22          6           0        3.555355   -0.633781   -0.445148
     23          1           0        4.617448   -0.824526   -0.479345
     24          6           0       -0.389352   -3.371245   -0.663502
     25          1           0       -0.576031   -4.430029   -0.757727
     26          6           0       -3.142098    0.551967   -0.277510
     27          1           0       -4.205222    0.738575   -0.290626
     28          6           0        0.805012    3.297094   -0.175075
     29          1           0        0.999281    4.358752   -0.183290
     30          6           0        1.935506   -5.352726   -0.716673
     31          1           0        2.917470   -5.819688   -0.713517
     32          1           0        1.420271   -5.644885   -1.631973
     33          1           0        1.367689   -5.741464    0.129051
     34          6           0        4.602452   -3.502810   -0.552407
     35          1           0        5.096070   -3.147995    0.352851
     36          1           0        5.128226   -3.081932   -1.409866
     37          1           0        4.697251   -4.585201   -0.591720
     38          6           0       -3.267161   -4.429110   -0.610634
     39          1           0       -2.587981   -5.047629   -0.025792
     40          1           0       -3.266874   -4.803823   -1.635580
     41          1           0       -4.271545   -4.536515   -0.206041
     42          6           0       -5.077700   -1.788862   -0.367805
     43          1           0       -5.459757   -0.993411    0.262091
     44          6           0       -5.940637   -2.576363   -1.001679
     45          1           0       -5.620328   -3.350512   -1.676829
     46          1           0       -7.004999   -2.454394   -0.886215
     47          6           0       -4.190335    3.439589   -0.350081
     48          1           0       -4.790574    2.809928    0.305120
     49          1           0       -4.603962    3.366498   -1.357502
     50          1           0       -4.278024    4.471728   -0.016883
     51          6           0       -1.531785    5.241010   -0.388850
     52          1           0       -0.702711    5.673843    0.158976
     53          6           0       -2.347685    6.047076   -1.060704
     54          1           0       -3.158325    5.672588   -1.661136
     55          1           0       -2.215151    7.116329   -1.053030
     56          6           0        3.665227    4.361341   -0.317267
     57          1           0        3.327427    4.852038    0.595812
     58          1           0        3.221301    4.883652   -1.165192
     59          1           0        4.745914    4.462922   -0.381257
     60          6           0        5.527109    1.705094   -0.523750
     61          1           0        5.941871    1.137285    0.309780
     62          1           0        5.988670    2.689459   -0.529717
     63          1           0        5.797968    1.193654   -1.447712
     64          8           0        0.095875    0.298245   -2.558644
     65          1           0       -0.556449    0.984844   -2.699757
     66          1           0        0.592458   -0.092187   -3.183766
     67          6           0       -1.134770   -0.288941    5.085498
     68          1           0       -0.734677    0.478346    5.748138
     69          1           0       -1.054993   -1.251287    5.591045
     70          1           0       -2.183683   -0.078341    4.902499
     71          7           0        0.949838   -0.534777    3.719519
     72          1           0        1.562350   -0.705724    4.500016
     73          6           0       -0.399508   -0.307549    3.795572
     74          6           0        1.300967   -0.484363    2.414327
     75          1           0        2.299363   -0.626143    2.054688
     76          7           0        0.256605   -0.239934    1.660484
     77          6           0       -0.808446   -0.127429    2.505411
     78          1           0       -1.790214    0.074358    2.130639
 ---------------------------------------------------------------------
 Rotational constants (GHZ):           0.0925360           0.0914991           0.0593371
 Standard basis: def2TZVP (5D, 7F)
 There are  1744 symmetry adapted cartesian basis functions of A   symmetry.
 There are  1532 symmetry adapted basis functions of A   symmetry.
  1532 basis functions,  2481 primitive gaussians,  1744 cartesian basis functions
   158 alpha electrons      158 beta electrons
       nuclear repulsion energy      5965.6316926551 Hartrees.
 NAtoms=   78 NActive=   78 NUniq=   78 SFac= 1.00D+00 NAtFMM=   60 NAOKFM=T Big=T
 Integral buffers will be    131072 words long.
 Raffenetti 2 integral format.
 Two-electron integral symmetry is turned on.
 R6APFD:  NTU= -4 IXU= 1 FactS= 1.050
 Nuclear repulsion after empirical dispersion term =     5965.4789700277 Hartrees.
 One-electron integrals computed using PRISM.
   1 Symmetry operations used in ECPInt.
 ECPInt:  NShTT=  186355 NPrTT=  576197 LenC2=  147144 LenP2D=  301069.
 LDataN:  DoStor=T MaxTD1= 6 Len=  172
 Number of processors reduced to  23 by ecpmxn.
 NBasis=  1532 RedAO= T EigKep=  3.16D-06  NBF=  1532
 NBsUse=  1532 1.00D-06 EigRej= -1.00D+00 NBFU=  1532
 ExpMin= 4.20D-02 ExpMax= 3.01D+05 ExpMxC= 2.91D+03 IAcc=3 IRadAn=         5 AccDes= 0.00D+00
 Harris functional with IExCor= 3731 and IRadAn=       5 diagonalized for initial guess.
 HarFok:  IExCor= 3731 AccDes= 0.00D+00 IRadAn=         5 IDoV= 1 UseB2=F ITyADJ=14
 ICtDFT=  3500011 ScaDFX=  1.000000  1.000000  1.000000  1.000000
 FoFCou: FMM=F IPFlag=           0 FMFlag=      100000 FMFlg1=        2001
         NFxFlg=           0 DoJE=T BraDBF=F KetDBF=T FulRan=T
         wScrn=  0.000000 ICntrl=       500 IOpCl=  0 I1Cent=   200000004 NGrid=           0
         NMat0=    1 NMatS0=      1 NMatT0=    0 NMatD0=    1 NMtDS0=    0 NMtDT0=    0
 Petite list used in FoFCou.
 Requested convergence on RMS density matrix=1.00D-08 within 128 cycles.
 Requested convergence on MAX density matrix=1.00D-06.
 Requested convergence on             energy=1.00D-06.
 No special actions if energy rises.
 EnCoef did     4 forward-backward iterations
 EnCoef did   100 forward-backward iterations
 EnCoef did   100 forward-backward iterations
 EnCoef did   100 forward-backward iterations
 EnCoef did     5 forward-backward iterations
 EnCoef did     6 forward-backward iterations
 EnCoef did   100 forward-backward iterations
 Restarting incremental Fock formation.
 SCF Done:  E(RAPFD) =  -2984.02512028     A.U. after   27 cycles
            NFock= 27  Conv=0.31D-08     -V/T= 2.0034
 DoSCS=F DFT=T ScalE2(SS,OS)=  1.000000  1.000000
 Range of M.O.s used for correlation:     1  1532
 NBasis=  1532 NAE=   158 NBE=   158 NFC=     0 NFV=     0
 NROrb=   1532 NOA=   158 NOB=   158 NVA=  1374 NVB=  1374

 **** Warning!!: The largest alpha MO coefficient is  0.50176596D+02

          Differentiating once with respect to electric field.
                with respect to dipole field.
          Electric field/nuclear overlap derivatives assumed to be zero.
          There are     3 degrees of freedom in the 1st order CPHF.  IDoFFX=0 NUNeed=     3.
      3 vectors produced by pass  0 Test12= 7.24D-12 3.33D-08 XBig12= 1.84D+03 2.92D+01.
 AX will form     3 AO Fock derivatives at one time.
      3 vectors produced by pass  1 Test12= 7.24D-12 3.33D-08 XBig12= 1.21D+03 9.77D+00.
      3 vectors produced by pass  2 Test12= 7.24D-12 3.33D-08 XBig12= 3.65D+02 5.66D+00.
      3 vectors produced by pass  3 Test12= 7.24D-12 3.33D-08 XBig12= 2.14D+02 3.62D+00.
      3 vectors produced by pass  4 Test12= 7.24D-12 3.33D-08 XBig12= 1.41D+02 1.93D+00.
      3 vectors produced by pass  5 Test12= 7.24D-12 3.33D-08 XBig12= 5.39D+01 1.90D+00.
      3 vectors produced by pass  6 Test12= 7.24D-12 3.33D-08 XBig12= 4.21D+01 1.95D+00.
      3 vectors produced by pass  7 Test12= 7.24D-12 3.33D-08 XBig12= 1.83D+01 9.68D-01.
      3 vectors produced by pass  8 Test12= 7.24D-12 3.33D-08 XBig12= 9.61D+00 6.67D-01.
      3 vectors produced by pass  9 Test12= 7.24D-12 3.33D-08 XBig12= 4.71D+00 4.99D-01.
      3 vectors produced by pass 10 Test12= 7.24D-12 3.33D-08 XBig12= 2.28D+00 4.06D-01.
      3 vectors produced by pass 11 Test12= 7.24D-12 3.33D-08 XBig12= 1.20D+00 2.27D-01.
      3 vectors produced by pass 12 Test12= 7.24D-12 3.33D-08 XBig12= 4.03D-01 1.20D-01.
      3 vectors produced by pass 13 Test12= 7.24D-12 3.33D-08 XBig12= 1.44D-01 6.89D-02.
      3 vectors produced by pass 14 Test12= 7.24D-12 3.33D-08 XBig12= 3.71D-02 3.06D-02.
      3 vectors produced by pass 15 Test12= 7.24D-12 3.33D-08 XBig12= 1.36D-02 3.44D-02.
      3 vectors produced by pass 16 Test12= 7.24D-12 3.33D-08 XBig12= 4.39D-03 1.56D-02.
      3 vectors produced by pass 17 Test12= 7.24D-12 3.33D-08 XBig12= 2.04D-03 1.16D-02.
      3 vectors produced by pass 18 Test12= 7.24D-12 3.33D-08 XBig12= 6.67D-04 5.47D-03.
      3 vectors produced by pass 19 Test12= 7.24D-12 3.33D-08 XBig12= 1.21D-04 1.85D-03.
      3 vectors produced by pass 20 Test12= 7.24D-12 3.33D-08 XBig12= 2.95D-05 1.11D-03.
      3 vectors produced by pass 21 Test12= 7.24D-12 3.33D-08 XBig12= 4.11D-06 3.92D-04.
      3 vectors produced by pass 22 Test12= 7.24D-12 3.33D-08 XBig12= 1.50D-06 2.96D-04.
      3 vectors produced by pass 23 Test12= 7.24D-12 3.33D-08 XBig12= 3.08D-07 1.55D-04.
      3 vectors produced by pass 24 Test12= 7.24D-12 3.33D-08 XBig12= 6.17D-08 8.24D-05.
      3 vectors produced by pass 25 Test12= 7.24D-12 3.33D-08 XBig12= 1.23D-08 2.97D-05.
      3 vectors produced by pass 26 Test12= 7.24D-12 3.33D-08 XBig12= 3.25D-09 1.27D-05.
      3 vectors produced by pass 27 Test12= 7.24D-12 3.33D-08 XBig12= 6.13D-10 4.19D-06.
      3 vectors produced by pass 28 Test12= 7.24D-12 3.33D-08 XBig12= 1.13D-10 1.26D-06.
      3 vectors produced by pass 29 Test12= 7.24D-12 3.33D-08 XBig12= 1.51D-11 6.38D-07.
      3 vectors produced by pass 30 Test12= 7.24D-12 3.33D-08 XBig12= 1.14D-12 1.65D-07.
      2 vectors produced by pass 31 Test12= 7.24D-12 3.33D-08 XBig12= 1.57D-13 4.84D-08.
 InvSVY:  IOpt=1 It=  1 EMax= 2.13D-14
 Solved reduced A of dimension    95 with     3 vectors.
 Isotropic polarizability for W=    0.000000      575.32 Bohr**3.
 End of Minotr F.D. properties file   721 does not exist.
 End of Minotr F.D. properties file   722 does not exist.
 End of Minotr F.D. properties file   788 does not exist.

 **********************************************************************

            Population analysis using the SCF Density.

 **********************************************************************

 Orbital symmetries:
       Occupied  (A) (A) (A) (A) (A) (A) (A) (A) (A) (A) (A) (A)
                 (A) (A) (A) (A) (A) (A) (A) (A) (A) (A) (A) (A)
                 (A) (A) (A) (A) (A) (A) (A) (A) (A) (A) (A) (A)
                 (A) (A) (A) (A) (A) (A) (A) (A) (A) (A) (A) (A)
                 (A) (A) (A) (A) (A) (A) (A) (A) (A) (A) (A) (A)
                 (A) (A) (A) (A) (A) (A) (A) (A) (A) (A) (A) (A)
                 (A) (A) (A) (A) (A) (A) (A) (A) (A) (A) (A) (A)
                 (A) (A) (A) (A) (A) (A) (A) (A) (A) (A) (A) (A)
                 (A) (A) (A) (A) (A) (A) (A) (A) (A) (A) (A) (A)
                 (A) (A) (A) (A) (A) (A) (A) (A) (A) (A) (A) (A)
                 (A) (A) (A) (A) (A) (A) (A) (A) (A) (A) (A) (A)
                 (A) (A) (A) (A) (A) (A) (A) (A) (A) (A) (A) (A)
                 (A) (A) (A) (A) (A) (A) (A) (A) (A) (A) (A) (A)
                 (A) (A)
       Virtual   (A) (A) (A) (A) (A) (A) (A) (A) (A) (A) (A) (A)
                 (A) (A) (A) (A) (A) (A) (A) (A) (A) (A) (A) (A)
                 (A) (A) (A) (A) (A) (A) (A) (A) (A) (A) (A) (A)
                 (A) (A) (A) (A) (A) (A) (A) (A) (A) (A) (A) (A)
                 (A) (A) (A) (A) (A) (A) (A) (A) (A) (A) (A) (A)
                 (A) (A) (A) (A) (A) (A) (A) (A) (A) (A) (A) (A)
                 (A) (A) (A) (A) (A) (A) (A) (A) (A) (A) (A) (A)
                 (A) (A) (A) (A) (A) (A) (A) (A) (A) (A) (A) (A)
                 (A) (A) (A) (A) (A) (A) (A) (A) (A) (A) (A) (A)
                 (A) (A) (A) (A) (A) (A) (A) (A) (A) (A) (A) (A)
                 (A) (A) (A) (A) (A) (A) (A) (A) (A) (A) (A) (A)
                 (A) (A) (A) (A) (A) (A) (A) (A) (A) (A) (A) (A)
                 (A) (A) (A) (A) (A) (A) (A) (A) (A) (A) (A) (A)
                 (A) (A) (A) (A) (A) (A) (A) (A) (A) (A) (A) (A)
                 (A) (A) (A) (A) (A) (A) (A) (A) (A) (A) (A) (A)
                 (A) (A) (A) (A) (A) (A) (A) (A) (A) (A) (A) (A)
                 (A) (A) (A) (A) (A) (A) (A) (A) (A) (A) (A) (A)
                 (A) (A) (A) (A) (A) (A) (A) (A) (A) (A) (A) (A)
                 (A) (A) (A) (A) (A) (A) (A) (A) (A) (A) (A) (A)
                 (A) (A) (A) (A) (A) (A) (A) (A) (A) (A) (A) (A)
                 (A) (A) (A) (A) (A) (A) (A) (A) (A) (A) (A) (A)
                 (A) (A) (A) (A) (A) (A) (A) (A) (A) (A) (A) (A)
                 (A) (A) (A) (A) (A) (A) (A) (A) (A) (A) (A) (A)
                 (A) (A) (A) (A) (A) (A) (A) (A) (A) (A) (A) (A)
                 (A) (A) (A) (A) (A) (A) (A) (A) (A) (A) (A) (A)
                 (A) (A) (A) (A) (A) (A) (A) (A) (A) (A) (A) (A)
                 (A) (A) (A) (A) (A) (A) (A) (A) (A) (A) (A) (A)
                 (A) (A) (A) (A) (A) (A) (A) (A) (A) (A) (A) (A)
                 (A) (A) (A) (A) (A) (A) (A) (A) (A) (A) (A) (A)
                 (A) (A) (A) (A) (A) (A) (A) (A) (A) (A) (A) (A)
                 (A) (A) (A) (A) (A) (A) (A) (A) (A) (A) (A) (A)
                 (A) (A) (A) (A) (A) (A) (A) (A) (A) (A) (A) (A)
                 (A) (A) (A) (A) (A) (A) (A) (A) (A) (A) (A) (A)
                 (A) (A) (A) (A) (A) (A) (A) (A) (A) (A) (A) (A)
                 (A) (A) (A) (A) (A) (A) (A) (A) (A) (A) (A) (A)
                 (A) (A) (A) (A) (A) (A) (A) (A) (A) (A) (A) (A)
                 (A) (A) (A) (A) (A) (A) (A) (A) (A) (A) (A) (A)
                 (A) (A) (A) (A) (A) (A) (A) (A) (A) (A) (A) (A)
                 (A) (A) (A) (A) (A) (A) (A) (A) (A) (A) (A) (A)
                 (A) (A) (A) (A) (A) (A) (A) (A) (A) (A) (A) (A)
                 (A) (A) (A) (A) (A) (A) (A) (A) (A) (A) (A) (A)
                 (A) (A) (A) (A) (A) (A) (A) (A) (A) (A) (A) (A)
                 (A) (A) (A) (A) (A) (A) (A) (A) (A) (A) (A) (A)
                 (A) (A) (A) (A) (A) (A) (A) (A) (A) (A) (A) (A)
                 (A) (A) (A) (A) (A) (A) (A) (A) (A) (A) (A) (A)
                 (A) (A) (A) (A) (A) (A) (A) (A) (A) (A) (A) (A)
                 (A) (A) (A) (A) (A) (A) (A) (A) (A) (A) (A) (A)
                 (A) (A) (A) (A) (A) (A) (A) (A) (A) (A) (A) (A)
                 (A) (A) (A) (A) (A) (A) (A) (A) (A) (A) (A) (A)
                 (A) (A) (A) (A) (A) (A) (A) (A) (A) (A) (A) (A)
                 (A) (A) (A) (A) (A) (A) (A) (A) (A) (A) (A) (A)
                 (A) (A) (A) (A) (A) (A) (A) (A) (A) (A) (A) (A)
                 (A) (A) (A) (A) (A) (A) (A) (A) (A) (A) (A) (A)
                 (A) (A) (A) (A) (A) (A) (A) (A) (A) (A) (A) (A)
                 (A) (A) (A) (A) (A) (A) (A) (A) (A) (A) (A) (A)
                 (A) (A) (A) (A) (A) (A) (A) (A) (A) (A) (A) (A)
                 (A) (A) (A) (A) (A) (A) (A) (A) (A) (A) (A) (A)
                 (A) (A) (A) (A) (A) (A) (A) (A) (A) (A) (A) (A)
                 (A) (A) (A) (A) (A) (A) (A) (A) (A) (A) (A) (A)
                 (A) (A) (A) (A) (A) (A) (A) (A) (A) (A) (A) (A)
                 (A) (A) (A) (A) (A) (A) (A) (A) (A) (A) (A) (A)
                 (A) (A) (A) (A) (A) (A) (A) (A) (A) (A) (A) (A)
                 (A) (A) (A) (A) (A) (A) (A) (A) (A) (A) (A) (A)
                 (A) (A) (A) (A) (A) (A) (A) (A) (A) (A) (A) (A)
                 (A) (A) (A) (A) (A) (A) (A) (A) (A) (A) (A) (A)
                 (A) (A) (A) (A) (A) (A) (A) (A) (A) (A) (A) (A)
                 (A) (A) (A) (A) (A) (A) (A) (A) (A) (A) (A) (A)
                 (A) (A) (A) (A) (A) (A) (A) (A) (A) (A) (A) (A)
                 (A) (A) (A) (A) (A) (A) (A) (A) (A) (A) (A) (A)
                 (A) (A) (A) (A) (A) (A) (A) (A) (A) (A) (A) (A)
                 (A) (A) (A) (A) (A) (A) (A) (A) (A) (A) (A) (A)
                 (A) (A) (A) (A) (A) (A) (A) (A) (A) (A) (A) (A)
                 (A) (A) (A) (A) (A) (A) (A) (A) (A) (A) (A) (A)
                 (A) (A) (A) (A) (A) (A) (A) (A) (A) (A) (A) (A)
                 (A) (A) (A) (A) (A) (A) (A) (A) (A) (A) (A) (A)
                 (A) (A) (A) (A) (A) (A) (A) (A) (A) (A) (A) (A)
                 (A) (A) (A) (A) (A) (A) (A) (A) (A) (A) (A) (A)
                 (A) (A) (A) (A) (A) (A) (A) (A) (A) (A) (A) (A)
                 (A) (A) (A) (A) (A) (A) (A) (A) (A) (A) (A) (A)
                 (A) (A) (A) (A) (A) (A) (A) (A) (A) (A) (A) (A)
                 (A) (A) (A) (A) (A) (A) (A) (A) (A) (A) (A) (A)
                 (A) (A) (A) (A) (A) (A) (A) (A) (A) (A) (A) (A)
                 (A) (A) (A) (A) (A) (A) (A) (A) (A) (A) (A) (A)
                 (A) (A) (A) (A) (A) (A) (A) (A) (A) (A) (A) (A)
                 (A) (A) (A) (A) (A) (A) (A) (A) (A) (A) (A) (A)
                 (A) (A) (A) (A) (A) (A) (A) (A) (A) (A) (A) (A)
                 (A) (A) (A) (A) (A) (A) (A) (A) (A) (A) (A) (A)
                 (A) (A) (A) (A) (A) (A) (A) (A) (A) (A) (A) (A)
                 (A) (A) (A) (A) (A) (A) (A) (A) (A) (A) (A) (A)
                 (A) (A) (A) (A) (A) (A) (A) (A) (A) (A) (A) (A)
                 (A) (A) (A) (A) (A) (A) (A) (A) (A) (A) (A) (A)
                 (A) (A) (A) (A) (A) (A) (A) (A) (A) (A) (A) (A)
                 (A) (A) (A) (A) (A) (A) (A) (A) (A) (A) (A) (A)
                 (A) (A) (A) (A) (A) (A) (A) (A) (A) (A) (A) (A)
                 (A) (A) (A) (A) (A) (A) (A) (A) (A) (A) (A) (A)
                 (A) (A) (A) (A) (A) (A) (A) (A) (A) (A) (A) (A)
                 (A) (A) (A) (A) (A) (A) (A) (A) (A) (A) (A) (A)
                 (A) (A) (A) (A) (A) (A) (A) (A) (A) (A) (A) (A)
                 (A) (A) (A) (A) (A) (A) (A) (A) (A) (A) (A) (A)
                 (A) (A) (A) (A) (A) (A) (A) (A) (A) (A) (A) (A)
                 (A) (A) (A) (A) (A) (A) (A) (A) (A) (A) (A) (A)
                 (A) (A) (A) (A) (A) (A) (A) (A) (A) (A) (A) (A)
                 (A) (A) (A) (A) (A) (A) (A) (A) (A) (A) (A) (A)
                 (A) (A) (A) (A) (A) (A) (A) (A) (A) (A) (A) (A)
                 (A) (A) (A) (A) (A) (A) (A) (A) (A) (A) (A) (A)
                 (A) (A) (A) (A) (A) (A) (A) (A) (A) (A) (A) (A)
                 (A) (A) (A) (A) (A) (A) (A) (A) (A) (A) (A) (A)
                 (A) (A) (A) (A) (A) (A) (A) (A) (A) (A) (A) (A)
                 (A) (A) (A) (A) (A) (A) (A) (A) (A) (A) (A) (A)
                 (A) (A) (A) (A) (A) (A) (A) (A) (A) (A) (A) (A)
                 (A) (A) (A) (A) (A) (A) (A) (A) (A) (A) (A) (A)
                 (A) (A) (A) (A) (A) (A) (A) (A) (A) (A) (A) (A)
                 (A) (A) (A) (A) (A) (A) (A) (A) (A) (A) (A) (A)
                 (A) (A) (A) (A) (A) (A) (A) (A) (A) (A) (A) (A)
                 (A) (A) (A) (A) (A) (A)
 The electronic state is 1-A.
 Alpha  occ. eigenvalues -- -256.17506 -30.02466 -25.86637 -25.86231 -25.86212
 Alpha  occ. eigenvalues --  -19.17192 -14.41561 -14.36238 -14.33227 -14.32955
 Alpha  occ. eigenvalues --  -14.32954 -14.32849 -10.25258 -10.23530 -10.20964
 Alpha  occ. eigenvalues --  -10.20813 -10.20741 -10.20726 -10.20616 -10.20606
 Alpha  occ. eigenvalues --  -10.20567 -10.20511 -10.20475 -10.20429 -10.19475
 Alpha  occ. eigenvalues --  -10.19423 -10.18875 -10.18714 -10.18681 -10.18577
 Alpha  occ. eigenvalues --  -10.18551 -10.18484 -10.18443 -10.18408 -10.18398
 Alpha  occ. eigenvalues --  -10.18393 -10.18323 -10.18288 -10.18283 -10.18243
 Alpha  occ. eigenvalues --  -10.18195 -10.18150 -10.18107 -10.18050 -10.18038
 Alpha  occ. eigenvalues --  -10.18006  -3.40053  -2.16692  -2.15906  -2.15852
 Alpha  occ. eigenvalues --   -1.05147  -1.04983  -0.96681  -0.95810  -0.95639
 Alpha  occ. eigenvalues --   -0.94757  -0.90740  -0.82044  -0.81687  -0.81364
 Alpha  occ. eigenvalues --   -0.80532  -0.80210  -0.80083  -0.79399  -0.79305
 Alpha  occ. eigenvalues --   -0.76565  -0.75530  -0.74128  -0.73738  -0.73023
 Alpha  occ. eigenvalues --   -0.71666  -0.70805  -0.69932  -0.68066  -0.67734
 Alpha  occ. eigenvalues --   -0.67640  -0.64408  -0.63950  -0.63867  -0.61134
 Alpha  occ. eigenvalues --   -0.60619  -0.60361  -0.59831  -0.57632  -0.56407
 Alpha  occ. eigenvalues --   -0.55775  -0.54254  -0.53441  -0.53159  -0.52397
 Alpha  occ. eigenvalues --   -0.50874  -0.50838  -0.50359  -0.48541  -0.47730
 Alpha  occ. eigenvalues --   -0.47612  -0.47353  -0.47121  -0.44832  -0.44629
 Alpha  occ. eigenvalues --   -0.44362  -0.44343  -0.43885  -0.43531  -0.43343
 Alpha  occ. eigenvalues --   -0.43171  -0.43087  -0.42864  -0.42637  -0.42434
 Alpha  occ. eigenvalues --   -0.42327  -0.42198  -0.41597  -0.41593  -0.41353
 Alpha  occ. eigenvalues --   -0.41242  -0.41141  -0.40048  -0.39998  -0.39809
 Alpha  occ. eigenvalues --   -0.39371  -0.39328  -0.39087  -0.38838  -0.38459
 Alpha  occ. eigenvalues --   -0.38152  -0.37662  -0.37328  -0.36968  -0.36799
 Alpha  occ. eigenvalues --   -0.36077  -0.35791  -0.35514  -0.35138  -0.34252
 Alpha  occ. eigenvalues --   -0.34121  -0.33772  -0.33509  -0.33190  -0.32123
 Alpha  occ. eigenvalues --   -0.31461  -0.30538  -0.30233  -0.29182  -0.28993
 Alpha  occ. eigenvalues --   -0.28427  -0.26617  -0.26419  -0.24225  -0.23862
 Alpha  occ. eigenvalues --   -0.22904  -0.22562  -0.21851  -0.19056  -0.18284
 Alpha  occ. eigenvalues --   -0.17822  -0.17661  -0.17578
 Alpha virt. eigenvalues --   -0.06385  -0.06218  -0.01779   0.00581   0.01231
 Alpha virt. eigenvalues --    0.01665   0.02371   0.03093   0.03731   0.04489
 Alpha virt. eigenvalues --    0.04980   0.05261   0.05682   0.05814   0.06071
 Alpha virt. eigenvalues --    0.06096   0.06646   0.07175   0.08112   0.08170
 Alpha virt. eigenvalues --    0.08411   0.09029   0.09144   0.09767   0.09810
 Alpha virt. eigenvalues --    0.10092   0.10426   0.10630   0.10897   0.11471
 Alpha virt. eigenvalues --    0.11697   0.11750   0.11858   0.12448   0.12484
 Alpha virt. eigenvalues --    0.12670   0.12848   0.13262   0.13468   0.13648
 Alpha virt. eigenvalues --    0.13932   0.14290   0.14510   0.14765   0.14879
 Alpha virt. eigenvalues --    0.14962   0.15213   0.15336   0.15615   0.15855
 Alpha virt. eigenvalues --    0.16017   0.16146   0.16281   0.16414   0.16690
 Alpha virt. eigenvalues --    0.17007   0.17333   0.17435   0.17871   0.18139
 Alpha virt. eigenvalues --    0.18305   0.18894   0.19416   0.19729   0.19807
 Alpha virt. eigenvalues --    0.19916   0.20193   0.20352   0.20655   0.21086
 Alpha virt. eigenvalues --    0.21243   0.21576   0.21755   0.22230   0.22557
 Alpha virt. eigenvalues --    0.22708   0.22742   0.23351   0.23364   0.23640
 Alpha virt. eigenvalues --    0.24359   0.24728   0.24782   0.25328   0.25581
 Alpha virt. eigenvalues --    0.25825   0.26023   0.26258   0.26398   0.26950
 Alpha virt. eigenvalues --    0.27215   0.27339   0.27725   0.27781   0.27912
 Alpha virt. eigenvalues --    0.28188   0.28926   0.29070   0.29282   0.29603
 Alpha virt. eigenvalues --    0.29922   0.30004   0.30112   0.30436   0.30868
 Alpha virt. eigenvalues --    0.30977   0.31343   0.31433   0.32035   0.32364
 Alpha virt. eigenvalues --    0.32506   0.32852   0.33140   0.33340   0.33581
 Alpha virt. eigenvalues --    0.33684   0.34172   0.34396   0.34640   0.34876
 Alpha virt. eigenvalues --    0.35142   0.35537   0.35870   0.36147   0.36439
 Alpha virt. eigenvalues --    0.36726   0.37018   0.37057   0.37502   0.37841
 Alpha virt. eigenvalues --    0.37998   0.38335   0.38494   0.38719   0.38880
 Alpha virt. eigenvalues --    0.39248   0.39561   0.39636   0.39893   0.40152
 Alpha virt. eigenvalues --    0.40512   0.40830   0.40967   0.41041   0.41446
 Alpha virt. eigenvalues --    0.41541   0.41708   0.41951   0.41990   0.42259
 Alpha virt. eigenvalues --    0.42496   0.42772   0.42881   0.43098   0.43254
 Alpha virt. eigenvalues --    0.43623   0.43845   0.44059   0.44296   0.44542
 Alpha virt. eigenvalues --    0.44874   0.44994   0.45201   0.45271   0.45702
 Alpha virt. eigenvalues --    0.45909   0.46259   0.46337   0.46642   0.46856
 Alpha virt. eigenvalues --    0.47189   0.47393   0.47457   0.47603   0.47719
 Alpha virt. eigenvalues --    0.48058   0.48150   0.48323   0.48505   0.48751
 Alpha virt. eigenvalues --    0.49222   0.49294   0.49544   0.49780   0.49828
 Alpha virt. eigenvalues --    0.50073   0.50378   0.50526   0.50919   0.51331
 Alpha virt. eigenvalues --    0.51556   0.51654   0.51748   0.51917   0.52173
 Alpha virt. eigenvalues --    0.52575   0.52728   0.52958   0.53005   0.53514
 Alpha virt. eigenvalues --    0.53582   0.53875   0.54528   0.54649   0.54720
 Alpha virt. eigenvalues --    0.54970   0.55264   0.55675   0.55925   0.56033
 Alpha virt. eigenvalues --    0.56221   0.56550   0.56817   0.56948   0.57255
 Alpha virt. eigenvalues --    0.57454   0.57626   0.57906   0.58433   0.58718
 Alpha virt. eigenvalues --    0.58934   0.59369   0.59760   0.60093   0.60379
 Alpha virt. eigenvalues --    0.60737   0.60865   0.61100   0.61461   0.61665
 Alpha virt. eigenvalues --    0.62293   0.62666   0.62818   0.63073   0.63420
 Alpha virt. eigenvalues --    0.63699   0.64011   0.64243   0.64481   0.64689
 Alpha virt. eigenvalues --    0.65158   0.65401   0.65625   0.66179   0.66238
 Alpha virt. eigenvalues --    0.66531   0.66754   0.67074   0.67268   0.67331
 Alpha virt. eigenvalues --    0.68134   0.68255   0.68700   0.69065   0.69425
 Alpha virt. eigenvalues --    0.69601   0.70097   0.70687   0.70788   0.71295
 Alpha virt. eigenvalues --    0.71978   0.72283   0.72367   0.72655   0.72838
 Alpha virt. eigenvalues --    0.73174   0.73377   0.73753   0.74047   0.74210
 Alpha virt. eigenvalues --    0.74373   0.74740   0.75235   0.75699   0.75749
 Alpha virt. eigenvalues --    0.76273   0.76730   0.77066   0.77539   0.77920
 Alpha virt. eigenvalues --    0.78305   0.78449   0.78621   0.78971   0.79226
 Alpha virt. eigenvalues --    0.79678   0.80221   0.80283   0.80760   0.80856
 Alpha virt. eigenvalues --    0.81187   0.81759   0.81988   0.82167   0.82643
 Alpha virt. eigenvalues --    0.83262   0.83588   0.83866   0.84629   0.84725
 Alpha virt. eigenvalues --    0.84890   0.85294   0.86020   0.86099   0.86691
 Alpha virt. eigenvalues --    0.87057   0.87419   0.88000   0.88877   0.89088
 Alpha virt. eigenvalues --    0.89351   0.89432   0.89861   0.90246   0.90590
 Alpha virt. eigenvalues --    0.90847   0.91360   0.91709   0.91999   0.92215
 Alpha virt. eigenvalues --    0.92774   0.92971   0.93216   0.94077   0.94421
 Alpha virt. eigenvalues --    0.94910   0.94974   0.95657   0.95809   0.96249
 Alpha virt. eigenvalues --    0.96539   0.96978   0.97070   0.97501   0.98082
 Alpha virt. eigenvalues --    0.98530   0.98787   0.98964   0.99348   0.99691
 Alpha virt. eigenvalues --    1.00233   1.00330   1.00960   1.01427   1.01710
 Alpha virt. eigenvalues --    1.02074   1.02214   1.02495   1.02681   1.03098
 Alpha virt. eigenvalues --    1.03190   1.03457   1.03664   1.03992   1.04351
 Alpha virt. eigenvalues --    1.04477   1.04634   1.04973   1.05246   1.05989
 Alpha virt. eigenvalues --    1.06297   1.06464   1.07185   1.07518   1.08427
 Alpha virt. eigenvalues --    1.08576   1.08653   1.09035   1.09487   1.10128
 Alpha virt. eigenvalues --    1.10869   1.10910   1.11447   1.11765   1.11953
 Alpha virt. eigenvalues --    1.12581   1.13281   1.13391   1.13596   1.13992
 Alpha virt. eigenvalues --    1.14427   1.15316   1.16194   1.16246   1.16782
 Alpha virt. eigenvalues --    1.17336   1.17654   1.18199   1.18702   1.18929
 Alpha virt. eigenvalues --    1.18975   1.19447   1.19887   1.20155   1.20335
 Alpha virt. eigenvalues --    1.20659   1.21190   1.21536   1.21677   1.22483
 Alpha virt. eigenvalues --    1.22976   1.23256   1.23909   1.24316   1.24745
 Alpha virt. eigenvalues --    1.25281   1.25618   1.26330   1.26845   1.27342
 Alpha virt. eigenvalues --    1.27472   1.27831   1.27947   1.28529   1.28676
 Alpha virt. eigenvalues --    1.29540   1.29649   1.30092   1.30371   1.30633
 Alpha virt. eigenvalues --    1.31076   1.31378   1.31898   1.32231   1.32381
 Alpha virt. eigenvalues --    1.32762   1.32857   1.33485   1.34518   1.34705
 Alpha virt. eigenvalues --    1.35712   1.36345   1.36906   1.37370   1.37866
 Alpha virt. eigenvalues --    1.38351   1.38822   1.39809   1.40102   1.40246
 Alpha virt. eigenvalues --    1.40574   1.41392   1.41935   1.42231   1.43422
 Alpha virt. eigenvalues --    1.43831   1.44082   1.44759   1.44927   1.45702
 Alpha virt. eigenvalues --    1.46195   1.46804   1.47179   1.47730   1.47858
 Alpha virt. eigenvalues --    1.48093   1.48456   1.48885   1.49061   1.49469
 Alpha virt. eigenvalues --    1.49695   1.50045   1.50459   1.50540   1.50962
 Alpha virt. eigenvalues --    1.51320   1.51598   1.51758   1.52081   1.52360
 Alpha virt. eigenvalues --    1.52432   1.52911   1.53121   1.53290   1.53624
 Alpha virt. eigenvalues --    1.53766   1.54153   1.54687   1.54776   1.54928
 Alpha virt. eigenvalues --    1.55111   1.55397   1.55524   1.55813   1.55968
 Alpha virt. eigenvalues --    1.56498   1.56802   1.56908   1.57482   1.57752
 Alpha virt. eigenvalues --    1.57990   1.58090   1.58440   1.58629   1.58772
 Alpha virt. eigenvalues --    1.59049   1.59314   1.59704   1.59845   1.60140
 Alpha virt. eigenvalues --    1.60525   1.61288   1.61360   1.61733   1.62122
 Alpha virt. eigenvalues --    1.62377   1.62669   1.62800   1.63325   1.63899
 Alpha virt. eigenvalues --    1.64020   1.64110   1.64571   1.65049   1.65126
 Alpha virt. eigenvalues --    1.65662   1.66048   1.66226   1.66481   1.66910
 Alpha virt. eigenvalues --    1.66934   1.67589   1.67630   1.68113   1.68401
 Alpha virt. eigenvalues --    1.68767   1.69100   1.69896   1.70262   1.70425
 Alpha virt. eigenvalues --    1.71016   1.71202   1.71414   1.71729   1.72020
 Alpha virt. eigenvalues --    1.72443   1.72762   1.73195   1.73657   1.73954
 Alpha virt. eigenvalues --    1.74178   1.75110   1.75529   1.76070   1.76514
 Alpha virt. eigenvalues --    1.77159   1.77538   1.78516   1.79218   1.79551
 Alpha virt. eigenvalues --    1.79889   1.80521   1.81151   1.81756   1.82918
 Alpha virt. eigenvalues --    1.82988   1.83406   1.83731   1.84375   1.84845
 Alpha virt. eigenvalues --    1.85235   1.85642   1.85991   1.86329   1.86725
 Alpha virt. eigenvalues --    1.86770   1.87317   1.87483   1.87850   1.88262
 Alpha virt. eigenvalues --    1.88732   1.88793   1.89363   1.89466   1.90043
 Alpha virt. eigenvalues --    1.90591   1.91721   1.92330   1.92767   1.93623
 Alpha virt. eigenvalues --    1.93719   1.94748   1.95002   1.95233   1.96022
 Alpha virt. eigenvalues --    1.96242   1.96751   1.97453   1.97854   1.98509
 Alpha virt. eigenvalues --    1.98735   1.99146   1.99204   1.99300   1.99909
 Alpha virt. eigenvalues --    2.00252   2.00313   2.00859   2.01231   2.01850
 Alpha virt. eigenvalues --    2.02624   2.03164   2.03686   2.04286   2.04758
 Alpha virt. eigenvalues --    2.05410   2.05901   2.06085   2.06934   2.07354
 Alpha virt. eigenvalues --    2.07675   2.08079   2.08947   2.09277   2.09427
 Alpha virt. eigenvalues --    2.09550   2.10385   2.10655   2.11105   2.11501
 Alpha virt. eigenvalues --    2.12293   2.12730   2.13397   2.13611   2.13823
 Alpha virt. eigenvalues --    2.14004   2.14870   2.15354   2.15672   2.15953
 Alpha virt. eigenvalues --    2.16145   2.16583   2.17329   2.18252   2.18663
 Alpha virt. eigenvalues --    2.18798   2.19184   2.19956   2.20543   2.20628
 Alpha virt. eigenvalues --    2.20791   2.21151   2.21310   2.21978   2.22940
 Alpha virt. eigenvalues --    2.23073   2.24001   2.24488   2.24815   2.25477
 Alpha virt. eigenvalues --    2.25770   2.26285   2.26892   2.27252   2.27718
 Alpha virt. eigenvalues --    2.28063   2.28498   2.28588   2.28848   2.29360
 Alpha virt. eigenvalues --    2.29729   2.30781   2.31343   2.31863   2.32113
 Alpha virt. eigenvalues --    2.32343   2.32574   2.33486   2.33973   2.34211
 Alpha virt. eigenvalues --    2.34906   2.35186   2.35659   2.35815   2.35992
 Alpha virt. eigenvalues --    2.36782   2.37213   2.37608   2.37676   2.38058
 Alpha virt. eigenvalues --    2.38649   2.39032   2.39437   2.39791   2.40398
 Alpha virt. eigenvalues --    2.40587   2.40924   2.41382   2.41862   2.42685
 Alpha virt. eigenvalues --    2.43191   2.43421   2.44224   2.44705   2.45180
 Alpha virt. eigenvalues --    2.45246   2.45431   2.46091   2.46329   2.46825
 Alpha virt. eigenvalues --    2.47143   2.47594   2.48006   2.48307   2.48999
 Alpha virt. eigenvalues --    2.49598   2.49871   2.50027   2.50983   2.51357
 Alpha virt. eigenvalues --    2.52155   2.52597   2.52978   2.53136   2.53332
 Alpha virt. eigenvalues --    2.53647   2.54236   2.54432   2.55214   2.55850
 Alpha virt. eigenvalues --    2.56184   2.56450   2.56553   2.56820   2.57106
 Alpha virt. eigenvalues --    2.57528   2.57697   2.58020   2.58755   2.59433
 Alpha virt. eigenvalues --    2.60054   2.60236   2.60342   2.60418   2.61149
 Alpha virt. eigenvalues --    2.61352   2.61697   2.61978   2.62469   2.62693
 Alpha virt. eigenvalues --    2.63212   2.63814   2.64613   2.65201   2.65746
 Alpha virt. eigenvalues --    2.65967   2.66077   2.66362   2.66979   2.67158
 Alpha virt. eigenvalues --    2.67860   2.68008   2.68302   2.68834   2.69118
 Alpha virt. eigenvalues --    2.69397   2.69967   2.70473   2.70764   2.71018
 Alpha virt. eigenvalues --    2.71144   2.71599   2.72091   2.72518   2.72767
 Alpha virt. eigenvalues --    2.73589   2.74310   2.74958   2.75256   2.75725
 Alpha virt. eigenvalues --    2.76090   2.76524   2.76826   2.77218   2.77692
 Alpha virt. eigenvalues --    2.77792   2.78510   2.79047   2.79196   2.79543
 Alpha virt. eigenvalues --    2.79982   2.80235   2.80759   2.81808   2.82111
 Alpha virt. eigenvalues --    2.82500   2.82637   2.83204   2.83413   2.83923
 Alpha virt. eigenvalues --    2.84257   2.84664   2.85079   2.85394   2.86095
 Alpha virt. eigenvalues --    2.86390   2.86619   2.87265   2.87777   2.88018
 Alpha virt. eigenvalues --    2.88335   2.89130   2.89277   2.89920   2.90075
 Alpha virt. eigenvalues --    2.90683   2.90942   2.91105   2.91557   2.91728
 Alpha virt. eigenvalues --    2.91875   2.92351   2.92908   2.93550   2.93910
 Alpha virt. eigenvalues --    2.94281   2.94585   2.94935   2.95380   2.95724
 Alpha virt. eigenvalues --    2.95968   2.96086   2.96471   2.96979   2.97207
 Alpha virt. eigenvalues --    2.97635   2.97929   2.98138   2.98944   2.99193
 Alpha virt. eigenvalues --    2.99509   2.99690   3.00402   3.00622   3.00805
 Alpha virt. eigenvalues --    3.01374   3.01511   3.01948   3.02028   3.03003
 Alpha virt. eigenvalues --    3.03068   3.03862   3.04349   3.04676   3.05095
 Alpha virt. eigenvalues --    3.05689   3.05999   3.06198   3.06576   3.06710
 Alpha virt. eigenvalues --    3.07258   3.07812   3.08082   3.08451   3.08674
 Alpha virt. eigenvalues --    3.08875   3.08928   3.09311   3.09862   3.10090
 Alpha virt. eigenvalues --    3.10710   3.11058   3.11304   3.11792   3.12405
 Alpha virt. eigenvalues --    3.12600   3.12752   3.12870   3.13252   3.13558
 Alpha virt. eigenvalues --    3.14118   3.14346   3.14573   3.14778   3.15304
 Alpha virt. eigenvalues --    3.15919   3.16092   3.16333   3.16537   3.17184
 Alpha virt. eigenvalues --    3.17489   3.17707   3.18195   3.18507   3.18879
 Alpha virt. eigenvalues --    3.19357   3.19502   3.20072   3.20247   3.20530
 Alpha virt. eigenvalues --    3.20843   3.21321   3.21499   3.21924   3.22269
 Alpha virt. eigenvalues --    3.23001   3.23127   3.23383   3.23515   3.24204
 Alpha virt. eigenvalues --    3.24307   3.24660   3.24881   3.25211   3.25368
 Alpha virt. eigenvalues --    3.25673   3.26119   3.26414   3.26747   3.26797
 Alpha virt. eigenvalues --    3.27128   3.27184   3.27524   3.27919   3.28135
 Alpha virt. eigenvalues --    3.28599   3.28683   3.29014   3.29520   3.29664
 Alpha virt. eigenvalues --    3.29958   3.30236   3.30443   3.30673   3.30737
 Alpha virt. eigenvalues --    3.31069   3.31201   3.31700   3.31945   3.32446
 Alpha virt. eigenvalues --    3.32652   3.32827   3.33200   3.33438   3.33653
 Alpha virt. eigenvalues --    3.34187   3.34648   3.34819   3.35117   3.35356
 Alpha virt. eigenvalues --    3.35753   3.36063   3.36130   3.36178   3.36673
 Alpha virt. eigenvalues --    3.36795   3.37202   3.37558   3.38210   3.38381
 Alpha virt. eigenvalues --    3.38553   3.38851   3.39028   3.39340   3.39660
 Alpha virt. eigenvalues --    3.39927   3.40064   3.40617   3.40734   3.41149
 Alpha virt. eigenvalues --    3.41542   3.41931   3.42369   3.42804   3.43040
 Alpha virt. eigenvalues --    3.43550   3.43931   3.43954   3.44660   3.45167
 Alpha virt. eigenvalues --    3.45659   3.46262   3.46352   3.46814   3.47049
 Alpha virt. eigenvalues --    3.47269   3.47841   3.48335   3.48665   3.49581
 Alpha virt. eigenvalues --    3.49697   3.50340   3.50773   3.50911   3.51409
 Alpha virt. eigenvalues --    3.51726   3.52808   3.53248   3.54010   3.54463
 Alpha virt. eigenvalues --    3.54842   3.55199   3.55464   3.55660   3.56289
 Alpha virt. eigenvalues --    3.56674   3.56877   3.57498   3.58005   3.58236
 Alpha virt. eigenvalues --    3.58621   3.59599   3.59608   3.60009   3.60468
 Alpha virt. eigenvalues --    3.61286   3.61466   3.62018   3.62413   3.62896
 Alpha virt. eigenvalues --    3.63621   3.64338   3.64523   3.65494   3.65667
 Alpha virt. eigenvalues --    3.66219   3.66632   3.67295   3.67493   3.68181
 Alpha virt. eigenvalues --    3.68627   3.69308   3.69686   3.70004   3.70464
 Alpha virt. eigenvalues --    3.70529   3.71419   3.71635   3.71844   3.72032
 Alpha virt. eigenvalues --    3.72481   3.73102   3.73781   3.74032   3.74600
 Alpha virt. eigenvalues --    3.74939   3.75070   3.75537   3.75753   3.75780
 Alpha virt. eigenvalues --    3.76499   3.77247   3.77464   3.78039   3.78919
 Alpha virt. eigenvalues --    3.79511   3.79868   3.80243   3.80803   3.81946
 Alpha virt. eigenvalues --    3.82065   3.82391   3.83300   3.83895   3.84049
 Alpha virt. eigenvalues --    3.85006   3.85531   3.85848   3.86740   3.87135
 Alpha virt. eigenvalues --    3.87348   3.88544   3.89031   3.89594   3.90690
 Alpha virt. eigenvalues --    3.91262   3.91432   3.91559   3.91746   3.91962
 Alpha virt. eigenvalues --    3.92873   3.93615   3.94632   3.94956   3.95857
 Alpha virt. eigenvalues --    3.96663   3.97264   3.97712   3.98407   3.99671
 Alpha virt. eigenvalues --    4.00083   4.00240   4.00994   4.01369   4.01480
 Alpha virt. eigenvalues --    4.01692   4.02415   4.03025   4.03367   4.04361
 Alpha virt. eigenvalues --    4.05393   4.05617   4.06021   4.06682   4.07387
 Alpha virt. eigenvalues --    4.07709   4.08400   4.09705   4.10256   4.10663
 Alpha virt. eigenvalues --    4.11185   4.11570   4.12502   4.14127   4.14592
 Alpha virt. eigenvalues --    4.14786   4.16030   4.16868   4.17489   4.17641
 Alpha virt. eigenvalues --    4.17790   4.18422   4.18890   4.19469   4.19815
 Alpha virt. eigenvalues --    4.19932   4.20162   4.20594   4.21290   4.21906
 Alpha virt. eigenvalues --    4.22560   4.22840   4.23725   4.24067   4.24488
 Alpha virt. eigenvalues --    4.26332   4.26743   4.27194   4.27439   4.28015
 Alpha virt. eigenvalues --    4.29157   4.29670   4.30054   4.30491   4.30865
 Alpha virt. eigenvalues --    4.31508   4.32353   4.33217   4.33541   4.34048
 Alpha virt. eigenvalues --    4.34606   4.35053   4.35309   4.35525   4.36997
 Alpha virt. eigenvalues --    4.37337   4.38344   4.38990   4.39296   4.40497
 Alpha virt. eigenvalues --    4.40932   4.41118   4.41568   4.42093   4.42328
 Alpha virt. eigenvalues --    4.42412   4.43736   4.44445   4.44877   4.45030
 Alpha virt. eigenvalues --    4.45364   4.45797   4.46463   4.46717   4.47279
 Alpha virt. eigenvalues --    4.48174   4.48852   4.49025   4.49988   4.50419
 Alpha virt. eigenvalues --    4.50949   4.51626   4.52583   4.52956   4.54214
 Alpha virt. eigenvalues --    4.55416   4.56083   4.56544   4.57090   4.57892
 Alpha virt. eigenvalues --    4.58816   4.59419   4.59907   4.61814   4.63747
 Alpha virt. eigenvalues --    4.64745   4.65754   4.65951   4.67297   4.68524
 Alpha virt. eigenvalues --    4.69012   4.69518   4.70261   4.70750   4.72091
 Alpha virt. eigenvalues --    4.72514   4.73014   4.73889   4.73909   4.75022
 Alpha virt. eigenvalues --    4.75727   4.76228   4.76683   4.78104   4.80300
 Alpha virt. eigenvalues --    4.80971   4.81798   4.83235   4.83496   4.83852
 Alpha virt. eigenvalues --    4.84329   4.84487   4.84818   4.86142   4.86275
 Alpha virt. eigenvalues --    4.86461   4.87929   4.88482   4.89648   4.90432
 Alpha virt. eigenvalues --    4.91219   4.92021   4.93006   4.93693   4.94713
 Alpha virt. eigenvalues --    4.95100   4.95804   4.96162   4.97471   4.98448
 Alpha virt. eigenvalues --    4.98942   5.00630   5.01058   5.02245   5.02342
 Alpha virt. eigenvalues --    5.03665   5.04218   5.04789   5.05873   5.07237
 Alpha virt. eigenvalues --    5.07464   5.07969   5.08426   5.09848   5.10209
 Alpha virt. eigenvalues --    5.10651   5.11696   5.14239   5.15376   5.16865
 Alpha virt. eigenvalues --    5.18996   5.19744   5.20417   5.20884   5.21359
 Alpha virt. eigenvalues --    5.21992   5.23174   5.23497   5.24876   5.26286
 Alpha virt. eigenvalues --    5.26851   5.28788   5.29466   5.30602   5.31868
 Alpha virt. eigenvalues --    5.33754   5.36391   5.37038   5.37599   5.39052
 Alpha virt. eigenvalues --    5.39285   5.39817   5.40840   5.41510   5.41645
 Alpha virt. eigenvalues --    5.41968   5.43145   5.43966   5.45123   5.47544
 Alpha virt. eigenvalues --    5.49369   5.50421   5.50617   5.51320   5.52666
 Alpha virt. eigenvalues --    5.53179   5.53525   5.57307   5.57381   5.60962
 Alpha virt. eigenvalues --    5.61891   5.62722   5.63364   5.63885   5.64781
 Alpha virt. eigenvalues --    5.65888   5.66733   5.67999   5.68767   5.69961
 Alpha virt. eigenvalues --    5.71316   5.75261   5.77383   5.77953   5.78841
 Alpha virt. eigenvalues --    5.81748   5.82917   5.90705   5.92906   5.93768
 Alpha virt. eigenvalues --    5.95733   5.98018   6.02550   6.03734   6.03837
 Alpha virt. eigenvalues --    6.09312   6.12796   6.13850   6.14159   6.14987
 Alpha virt. eigenvalues --    6.18431   6.19797   6.24652   6.28327   6.34998
 Alpha virt. eigenvalues --    6.36145   6.42157   6.47562   6.51650   6.54099
 Alpha virt. eigenvalues --    6.68053   6.97219   7.28280  22.36459  22.37152
 Alpha virt. eigenvalues --   22.44249  22.46227  22.47115  22.53145  22.53643
 Alpha virt. eigenvalues --   22.62832  22.63280  22.78510  22.85929  22.88045
 Alpha virt. eigenvalues --   22.91965  22.95071  22.95906  22.96769  22.98548
 Alpha virt. eigenvalues --   23.04798  23.04840  23.09334  23.16472  23.28043
 Alpha virt. eigenvalues --   23.29056  23.31793  23.32397  23.42377  23.43012
 Alpha virt. eigenvalues --   23.51580  23.52311  23.56599  23.75299  23.80554
 Alpha virt. eigenvalues --   23.81374  23.90758  32.41247  32.76439  32.91085
 Alpha virt. eigenvalues --   32.97386  33.04587  33.13359  44.07744
          Condensed to atoms (all electrons):
 Mulliken charges:
               1
     1  Fe  -0.260090
     2  N   -0.039396
     3  N   -0.006985
     4  N   -0.068108
     5  N    0.005741
     6  C    0.240000
     7  C   -0.053472
     8  C   -0.045302
     9  C    0.251872
    10  C    0.272262
    11  C   -0.055532
    12  C    0.045927
    13  C    0.212159
    14  C    0.246481
    15  C   -0.046893
    16  C    0.039841
    17  C    0.226756
    18  C    0.206621
    19  C   -0.037752
    20  C   -0.061450
    21  C    0.259326
    22  C   -0.518459
    23  H    0.134511
    24  C   -0.460991
    25  H    0.129559
    26  C   -0.498301
    27  H    0.105365
    28  C   -0.431825
    29  H    0.113378
    30  C   -0.415404
    31  H    0.118482
    32  H    0.134995
    33  H    0.135185
    34  C   -0.414010
    35  H    0.129480
    36  H    0.135353
    37  H    0.120185
    38  C   -0.447501
    39  H    0.125583
    40  H    0.140952
    41  H    0.155229
    42  C   -0.216140
    43  H    0.109039
    44  C   -0.285727
    45  H    0.139008
    46  H    0.120890
    47  C   -0.451170
    48  H    0.127064
    49  H    0.142756
    50  H    0.156320
    51  C   -0.202891
    52  H    0.110279
    53  C   -0.287276
    54  H    0.138104
    55  H    0.121453
    56  C   -0.416648
    57  H    0.133149
    58  H    0.139282
    59  H    0.118463
    60  C   -0.414387
    61  H    0.128881
    62  H    0.119829
    63  H    0.136066
    64  O   -0.577091
    65  H    0.360901
    66  H    0.324743
    67  C   -0.392270
    68  H    0.134459
    69  H    0.134796
    70  H    0.146361
    71  N   -0.233425
    72  H    0.234452
    73  C    0.175799
    74  C    0.008654
    75  H    0.178630
    76  N    0.074210
    77  C   -0.222690
    78  H    0.162356
 Sum of Mulliken charges =  -0.00000
 Mulliken charges with hydrogens summed into heavy atoms:
               1
     1  Fe  -0.260090
     2  N   -0.039396
     3  N   -0.006985
     4  N   -0.068108
     5  N    0.005741
     6  C    0.240000
     7  C   -0.053472
     8  C   -0.045302
     9  C    0.251872
    10  C    0.272262
    11  C   -0.055532
    12  C    0.045927
    13  C    0.212159
    14  C    0.246481
    15  C   -0.046893
    16  C    0.039841
    17  C    0.226756
    18  C    0.206621
    19  C   -0.037752
    20  C   -0.061450
    21  C    0.259326
    22  C   -0.383948
    24  C   -0.331432
    26  C   -0.392936
    28  C   -0.318447
    30  C   -0.026742
    34  C   -0.028992
    38  C   -0.025736
    42  C   -0.107100
    44  C   -0.025829
    47  C   -0.025030
    51  C   -0.092612
    53  C   -0.027719
    56  C   -0.025754
    60  C   -0.029612
    64  O    0.108552
    67  C    0.023345
    71  N    0.001027
    73  C    0.175799
    74  C    0.187283
    76  N    0.074210
    77  C   -0.060334
 Electronic spatial extent (au):  <R**2>=          20021.9359
 Charge=              0.0000 electrons
 Dipole moment (field-independent basis, Debye):
    X=              2.0624    Y=             -0.9270    Z=              3.1437  Tot=              3.8724
 Quadrupole moment (field-independent basis, Debye-Ang):
   XX=           -239.8736   YY=           -246.1370   ZZ=           -222.8837
   XY=             -2.7980   XZ=              4.5246   YZ=             -3.0927
 Traceless Quadrupole moment (field-independent basis, Debye-Ang):
   XX=             -3.5755   YY=             -9.8389   ZZ=             13.4144
   XY=             -2.7980   XZ=              4.5246   YZ=             -3.0927
 Octapole moment (field-independent basis, Debye-Ang**2):
  XXX=             43.5917  YYY=            -24.7335  ZZZ=             93.0177  XYY=             26.4569
  XXY=              4.9254  XXZ=              9.7568  XZZ=             32.5060  YZZ=            -20.8287
  YYZ=            -18.7395  XYZ=             -3.1850
 Hexadecapole moment (field-independent basis, Debye-Ang**3):
 XXXX=         -11899.1857 YYYY=         -11728.2450 ZZZZ=          -2779.5773 XXXY=            -45.6660
 XXXZ=             -5.6581 YYYX=             47.8138 YYYZ=             41.0911 ZZZX=             88.5165
 ZZZY=            -92.5784 XXYY=          -3988.6291 XXZZ=          -2601.1337 YYZZ=          -2658.4496
 XXYZ=             -9.4903 YYXZ=             74.9040 ZZXY=            -39.3661
 N-N= 5.965478970028D+03 E-N=-1.894527875275D+04  KE= 2.973863142015D+03
  Exact polarizability:     709.970      -1.303     701.922       9.044       5.873     314.066
 Approx polarizability:    1324.270      -9.941    1288.445      15.600      34.418     499.492

 ----------------------------------------------------------------------

 Electric dipole moment (input orientation):
 (Debye = 10**-18 statcoulomb cm , SI units = C m)
                  (au)            (Debye)         (10**-30 SI)
   Tot        0.152353D+01      0.387244D+01      0.129171D+02
   x         -0.172713D+00     -0.438993D+00     -0.146432D+01
   y         -0.128547D+01     -0.326735D+01     -0.108987D+02
   z          0.799300D+00      0.203162D+01      0.677675D+01

 Dipole polarizability, Alpha (input orientation).
 (esu units = cm**3 , SI units = C**2 m**2 J**-1)
 Alpha(0;0):
               (au)            (10**-24 esu)      (10**-40 SI)
   iso        0.575319D+03      0.852535D+02      0.948573D+02
   aniso      0.392394D+03      0.581467D+02      0.646970D+02
   xx         0.701757D+03      0.103990D+03      0.115704D+03
   yx         0.209618D+01      0.310621D+00      0.345613D+00
   yy         0.653543D+03      0.968451D+02      0.107755D+03
   zx        -0.597701D+01     -0.885702D+00     -0.985476D+00
   zy         0.138882D+03      0.205802D+02      0.228986D+02
   zz         0.370658D+03      0.549258D+02      0.611132D+02

 First dipole hyperpolarizability, Beta (input orientation).
 ||, _|_  parallel and perpendicular components, (z) with respect to z axis,
 vector components x,y,z.  Values do not include the 1/n! factor of 1/2.
 (esu units = statvolt**-1 cm**4 , SI units = C**3 m**3 J**-2)
 Beta(0;0,0):
               (au)            (10**-30 esu)      (10**-50 SI)
   || (z)     0.384729D+03      0.332376D+01      0.123358D+01
   _|_(z)     0.128243D+03      0.110792D+01      0.411194D+00
   x          0.608732D+03      0.525897D+01      0.195182D+01
   y          0.504967D+04      0.436252D+02      0.161911D+02
   z          0.192365D+04      0.166188D+02      0.616791D+01
   ||         0.108757D+04      0.939575D+01      0.348714D+01
   xxx        0.454752D+03      0.392870D+01      0.145810D+01
   xxy        0.112678D+04      0.973452D+01      0.361287D+01
   yxy       -0.164037D+03     -0.141715D+01     -0.525962D+00
   yyy        0.669591D+03      0.578475D+01      0.214695D+01
   xxz        0.250600D+03      0.216499D+01      0.803513D+00
   yxz       -0.124743D+03     -0.107768D+01     -0.399971D+00
   yyz        0.169275D+03      0.146240D+01      0.542756D+00
   zxz       -0.878038D+02     -0.758556D+00     -0.281531D+00
   zyz       -0.113150D+03     -0.977527D+00     -0.362800D+00
   zzz        0.221341D+03      0.191222D+01      0.709700D+00

 ----------------------------------------------------------------------

 Dipole orientation:
    26         -3.54952828        -29.73441115         -6.21415076
     7         -6.22404747        -31.92651858         -4.66112957
     7         -6.27519885        -27.43938136         -7.56304853
     7         -0.92398448        -27.56739178         -7.89150192
     7         -0.89233687        -32.10242824         -5.00092017
     6         -5.83641861        -34.01535925         -3.21603410
     6         -8.20276792        -34.97178651         -2.23809220
     6        -10.03221113        -33.39386132         -3.11306483
     6         -8.75665839        -31.50365156         -4.62095774
     6         -8.80940848        -27.65373097         -7.19530644
     6        -10.14197227        -25.57203969         -8.34025638
     6         -8.34321469        -24.08161758         -9.45094754
     6         -5.93939395        -25.29912100         -8.94152472
     6         -1.32923356        -25.52763167         -9.40756698
     6          0.97729315        -24.72966117        -10.60582706
     6          2.80983598        -26.38720021         -9.82625097
     6          1.56696150        -28.14426826         -8.13188837
     6          1.62380612        -31.95974862         -5.49317490
     6          2.93060880        -34.14133404         -4.48669744
     6          1.14529943        -35.57607047         -3.32206182
     6         -1.23256355        -34.27315820         -3.67236869
     6         -3.52332344        -35.15323724         -2.77824904
     1         -3.51043662        -36.86968069         -1.67549416
     6         -9.98709399        -29.55737381         -5.84501709
     1        -12.02026430        -29.49288079         -5.69850021
     6         -3.65070106        -24.38240100         -9.79803552
     1         -3.68617415        -22.71495365        -10.97253871
     6          2.79205044        -30.10386275         -6.91014786
     1          4.80142342        -30.28834860         -7.20748286
     6        -12.81554868        -33.47922066         -2.69041870
     1        -13.32492821        -35.06420467         -1.48605660
     1        -13.81467259        -33.67965586         -4.48098827
     1        -13.46465079        -31.74410986         -1.78860317
     6         -8.44188312        -37.24496055         -0.59112608
     1         -7.33873927        -37.01391405          1.13393968
     1         -7.75232221        -38.92303821         -1.56779810
     1        -10.40249444        -37.56437475         -0.06639773
     6        -12.91738623        -25.13761001         -8.18171607
     1        -13.63038100        -25.65223845         -6.32115318
     1        -13.92070484        -26.26851836         -9.58430903
     1        -13.34120083        -23.15470356         -8.52328749
     6         -8.64361655        -21.73843847        -10.82572467
     1         -7.12628148        -20.37971465        -10.60373830
     6        -10.58451235        -21.15766802        -12.31042248
     1        -12.09852777        -22.46540915        -12.67361632
     1        -10.69895103        -19.35986634        -13.25967702
     6          1.24581410        -22.47712308        -12.27059770
     1          0.08524356        -20.92210304        -11.58471227
     1          0.65490371        -22.90739460        -14.19932704
     1          3.20791873        -21.86358328        -12.31458433
     6          5.46487753        -26.45061128        -10.46929479
     1          6.71789879        -27.11221819         -8.99025022
     6          6.44632401        -25.79229211        -12.68578498
     1          5.29030253        -25.20816444        -14.25337258
     1          8.45285856        -25.86270449        -13.02431054
     6          5.70019272        -34.59000828         -4.73107691
     1          6.76278271        -33.03698968         -3.89225390
     1          6.23813517        -34.73265123         -6.71495150
     1          6.24558662        -36.33195137         -3.78755212
     6          1.42640149        -38.03272324         -1.97239705
     1          0.79046948        -37.86527488         -0.01937838
     1          3.38875585        -38.64119666         -1.96230544
     1          0.29897339        -39.49529806         -2.88590539
     8         -3.68532845        -31.88145675         -9.92396725
     1         -2.70086759        -30.93062074        -11.10756493
     1         -4.41946480        -33.36524795        -10.20658041
     6         -2.82525149        -21.93571944          0.83009479
     1         -1.07487447        -21.76620299          1.90224153
     1         -4.40263419        -21.64023598          2.12128098
     1         -2.86441300        -20.46748960         -0.60158027
     7         -2.96679534        -26.66483061          0.94375984
     1         -2.82315826        -26.81451802          2.83491868
     6         -3.00072670        -24.45143681         -0.40038988
     6         -3.15542813        -28.58901569         -0.72797246
     1         -3.17601792        -30.54485975         -0.21074136
     7         -3.30781734        -27.72840301         -3.04611427
     6         -3.21394828        -25.15809522         -2.87269749
     1         -3.30506771        -23.99880359         -4.52701046

 Electric dipole moment (dipole orientation):
 (Debye = 10**-18 statcoulomb cm , SI units = C m)
                  (au)            (Debye)         (10**-30 SI)
   Tot        0.152353D+01      0.387244D+01      0.129171D+02
   x          0.000000D+00      0.000000D+00      0.000000D+00
   y          0.000000D+00      0.000000D+00      0.000000D+00
   z          0.152353D+01      0.387244D+01      0.129171D+02

 Dipole polarizability, Alpha (dipole orientation).
 (esu units = cm**3 , SI units = C**2 m**2 J**-1)
 Alpha(0;0):
               (au)            (10**-24 esu)      (10**-40 SI)
   iso        0.575319D+03      0.852535D+02      0.948573D+02
   aniso      0.392394D+03      0.581467D+02      0.646970D+02
   xx         0.693732D+03      0.102800D+03      0.114381D+03
   yx        -0.328579D+02     -0.486904D+01     -0.541754D+01
   yy         0.577768D+03      0.856164D+02      0.952611D+02
   zx        -0.448706D+02     -0.664914D+01     -0.739816D+01
   zy        -0.184157D+03     -0.272892D+02     -0.303634D+02
   zz         0.454458D+03      0.673437D+02      0.749300D+02

 First dipole hyperpolarizability, Beta (dipole orientation).
 ||, _|_  parallel and perpendicular components, (z) with respect to z axis,
 vector components x,y,z.  Values do not include the 1/n! factor of 1/2.
 (esu units = statvolt**-1 cm**4 , SI units = C**3 m**3 J**-2)
 Beta(0;0,0):
               (au)            (10**-30 esu)      (10**-50 SI)
   || (z)    -0.664086D+03     -0.573718D+01     -0.212930D+01
   _|_(z)    -0.221362D+03     -0.191239D+01     -0.709766D+00
   x          0.504875D+03      0.436173D+01      0.161881D+01
   y          0.427668D+04      0.369472D+02      0.137126D+02
   z         -0.332043D+04     -0.286859D+02     -0.106465D+02
   ||         0.108757D+04      0.939575D+01      0.348714D+01
   xxx        0.319293D+03      0.275844D+01      0.102377D+01
   xxy        0.771703D+03      0.666692D+01      0.247436D+01
   yxy       -0.323070D+03     -0.279107D+01     -0.103588D+01
   yyy        0.278448D+03      0.240557D+01      0.892804D+00
   xxz       -0.838722D+03     -0.724591D+01     -0.268925D+01
   yxz        0.856154D+02      0.739650D+00      0.274514D+00
   yyz       -0.144476D+03     -0.124816D+01     -0.463243D+00
   zxz        0.172069D+03      0.148654D+01      0.551716D+00
   zyz        0.375409D+03      0.324324D+01      0.120370D+01
   zzz       -0.123611D+03     -0.106790D+01     -0.396342D+00

 ----------------------------------------------------------------------
 Unable to Open any file for archive entry.
 1\1\GINC-BGN1021\SP\RAPFD\def2TZVP\C34H36Fe1N6O1\BECSLEIP\24-Oct-2024\
 0\\# polar def2tzvp apfd int=(grid=ultrafine)\\5ych_II_S\\0,1\Fe,0,-0.
 5025721342,-5.4952558686,-15.214278439\N,0,-1.9263270173,-6.7182375095
 ,-15.922318933\N,0,-1.928049256,-4.1551016747,-14.727568597\N,0,0.9037
 759179,-4.2222131213,-14.5548946919\N,0,0.8975345025,-6.7931511957,-15
 .7753491137\C,0,-1.7402755225,-7.9655603078,-16.430518141\C,0,-3.00885
 27039,-8.5934373366,-16.7280085558\C,0,-3.9686879635,-7.6969248692,-16
 .3761414537\C,0,-3.2716788047,-6.5328098895,-15.8742899261\C,0,-3.2727
 359591,-4.2956278389,-14.8732050008\C,0,-3.9723788295,-3.1529634412,-1
 4.3415560428\C,0,-3.0113908575,-2.2963394636,-13.8765459547\C,0,-1.740
 2064767,-2.9470359991,-14.1345173846\C,0,0.7143656273,-2.9564630222,-1
 4.0893694796\C,0,1.9700302006,-2.2729283476,-13.9273831733\C,0,2.93985
 77389,-3.1494079876,-14.3410956723\C,0,2.2443890777,-4.3603074373,-14.
 7297716003\C,0,2.2425901273,-6.6166485933,-15.6973643637\C,0,2.9403389
 436,-7.7248097976,-16.3136039949\C,0,1.9813226879,-8.5902578028,-16.73
 7967839\C,0,0.7113780457,-7.987374195,-16.3961303382\C,0,-0.5150423072
 ,-8.5587980827,-16.6782685935\H,0,-0.517450482,-9.5357800934,-17.13771
 88903\C,0,-3.9084920341,-5.3964126295,-15.4189380099\H,0,-4.9862610414
 ,-5.3761400508,-15.4714344288\C,0,-0.5183432751,-2.3819995972,-13.8257
 021109\H,0,-0.5218557552,-1.3860539052,-13.4094022086\C,0,2.8789780295
 ,-5.4992483189,-15.192033825\H,0,3.9572912724,-5.4852402503,-15.236411
 6178\C,0,-5.451672216,-7.81730815,-16.4638871884\H,0,-5.7385819031,-8.
 7852354729,-16.8677637949\H,0,-5.861859804,-7.0412058552,-17.110424010
 5\H,0,-5.9039696309,-7.7089609559,-15.477748759\C,0,-3.1576547875,-9.9
 620842989,-17.3000645198\H,0,-2.6899729176,-10.7037580532,-16.65180546
 01\H,0,-2.6815307848,-10.022263702,-18.2790931451\H,0,-4.2072943892,-1
 0.2213832732,-17.4146180856\C,0,-5.4526181542,-3.0090638613,-14.270067
 9452\H,0,-5.9212676069,-3.9612868675,-14.0260775164\H,0,-5.8573908518,
 -2.6685235532,-15.2245918889\H,0,-5.7203398373,-2.2831355331,-13.50497
 19005\C,0,-3.1643349274,-1.0115636937,-13.2300321389\H,0,-2.4265884332
 ,-0.7777752422,-12.4707214456\C,0,-4.1129699977,-0.1203977415,-13.4993
 465074\H,0,-4.8421962196,-0.2768670827,-14.2748975312\H,0,-4.175757168
 1,0.8143691723,-12.967046974\C,0,2.1360151473,-0.9031291691,-13.367719
 9205\H,0,1.4342739781,-0.7321922,-12.5526207088\H,0,1.9559423908,-0.14
 37255157,-14.130744675\H,0,3.1478343166,-0.7755578237,-12.9882863422\C
 ,0,4.3736834386,-2.9683259594,-14.3886589346\H,0,4.9644020265,-3.85693
 41318,-14.1982719851\C,0,4.9997755407,-1.8255638283,-14.6512029475\H,0
 ,4.4678382066,-0.9224980668,-14.8949464821\H,0,6.0752833255,-1.7608918
 105,-14.6562538146\C,0,4.4231414958,-7.8342076308,-16.4156330245\H,0,4
 .8788216396,-7.8059262984,-15.4256019379\H,0,4.8291559698,-7.006522543
 7,-16.997824766\H,0,4.7105473685,-8.7649664667,-16.8987301757\C,0,2.12
 94134793,-9.8951897177,-17.4432762035\H,0,1.6730097651,-10.6988475469,
 -16.8644538014\H,0,3.1786887121,-10.136484703,-17.5944317133\H,0,1.641
 189411,-9.8624592973,-18.4175491224\O,0,-0.28,-4.44,-17.211\H,0,0.276,
 -3.676,-17.056\H,0,-0.599,-4.708,-17.996\C,0,-0.8040181009,-6.46459070
 48,-9.7331249878\H,0,0.0444887986,-6.953586178,-9.2547782298\H,0,-1.71
 89643646,-6.9053747331,-9.3373546682\H,0,-0.7874246175,-5.409894147,-9
 .4773925425\N,0,-0.728107288,-7.844657265,-11.8215640563\H,0,-0.761218
 654,-8.7360353764,-11.354747775\C,0,-0.7387584618,-6.6190133989,-11.20
 85098172\C,0,-0.6629195018,-7.634767301,-13.1561260505\H,0,-0.63982039
 74,-8.4167385201,-13.8870309788\N,0,-0.632387791,-6.3519127541,-13.424
 5871243\C,0,-0.6788669588,-5.7074106658,-12.2231925173\H,0,-0.66592441
 62,-4.6387305096,-12.1703249674\\Version=ES64L-G16RevC.02\State=1-A\HF
 =-2984.0251203\RMSD=3.092e-09\Dipole=-0.1727132,-1.2854739,0.7993002\P
 olar=701.7565246,2.0961777,653.543422,-5.9770132,138.8821335,370.65773
 45\HyperPolar=454.7515519,1126.7822412,-164.0369213,669.5913019,250.59
 97522,-124.742914,169.2746317,-87.8038051,-113.1499135,221.3413165\Qua
 drupole=-7.9864862,2.5642362,5.4222499,1.3434837,-0.5507386,-6.9973304
 \PG=C01 [X(C34H36Fe1N6O1)]\\@
 The archive entry for this job was punched.


 DEMOCRATS BUY MOST OF THE BOOKS THAT HAVE BEEN
 BANNED; REPUBLICANS FORM CENSORSHIP COMMITTEES AND
 READ THEM AS A GROUP.
 Job cpu time:       2 days  5 hours 59 minutes  4.8 seconds.
 Elapsed time:       0 days  0 hours 46 minutes 45.9 seconds.
 File lengths (MBytes):  RWF=   1208 Int=      0 D2E=      0 Chk=    155 Scr=      1
 Normal termination of Gaussian 16 at Thu Oct 24 01:00:58 2024.
 Initial command:
 /sw/chem/gaussian/g16_C02/a100/g16/l1.exe "/local/becsleip_8058440/Gau-932628.inp" -scrdir="/local/becsleip_8058440/"
 Entering Link 1 = /sw/chem/gaussian/g16_C02/a100/g16/l1.exe PID=    934388.
  
 Copyright (c) 1988-2021, Gaussian, Inc.  All Rights Reserved.
  
 This is part of the Gaussian(R) 16 program.  It is based on
 the Gaussian(R) 09 system (copyright 2009, Gaussian, Inc.),
 the Gaussian(R) 03 system (copyright 2003, Gaussian, Inc.),
 the Gaussian(R) 98 system (copyright 1998, Gaussian, Inc.),
 the Gaussian(R) 94 system (copyright 1995, Gaussian, Inc.),
 the Gaussian 92(TM) system (copyright 1992, Gaussian, Inc.),
 the Gaussian 90(TM) system (copyright 1990, Gaussian, Inc.),
 the Gaussian 88(TM) system (copyright 1988, Gaussian, Inc.),
 the Gaussian 86(TM) system (copyright 1986, Carnegie Mellon
 University), and the Gaussian 82(TM) system (copyright 1983,
 Carnegie Mellon University). Gaussian is a federally registered
 trademark of Gaussian, Inc.
  
 This software contains proprietary and confidential information,
 including trade secrets, belonging to Gaussian, Inc.
  
 This software is provided under written license and may be
 used, copied, transmitted, or stored only in accord with that
 written license.
  
 The following legend is applicable only to US Government
 contracts under FAR:
  
                    RESTRICTED RIGHTS LEGEND
  
 Use, reproduction and disclosure by the US Government is
 subject to restrictions as set forth in subparagraphs (a)
 and (c) of the Commercial Computer Software - Restricted
 Rights clause in FAR 52.227-19.
  
 Gaussian, Inc.
 340 Quinnipiac St., Bldg. 40, Wallingford CT 06492
  
  
 ---------------------------------------------------------------
 Warning -- This program may not be used in any manner that
 competes with the business of Gaussian, Inc. or will provide
 assistance to any competitor of Gaussian, Inc.  The licensee
 of this program is prohibited from giving any competitor of
 Gaussian, Inc. access to this program.  By using this program,
 the user acknowledges that Gaussian, Inc. is engaged in the
 business of creating and licensing software in the field of
 computational chemistry and represents and warrants to the
 licensee that it is not a competitor of Gaussian, Inc. and that
 it will not use this program in any manner prohibited above.
 ---------------------------------------------------------------
  

 Cite this work as:
 Gaussian 16, Revision C.02,
 M. J. Frisch, G. W. Trucks, H. B. Schlegel, G. E. Scuseria, 
 M. A. Robb, J. R. Cheeseman, G. Scalmani, V. Barone, 
 G. A. Petersson, H. Nakatsuji, X. Li, M. Caricato, A. V. Marenich, 
 J. Bloino, B. G. Janesko, R. Gomperts, B. Mennucci, H. P. Hratchian, 
[...]
                                                    1327(v),1522(v)
   142. CR (   1) C  73                  1.99915   -10.08774  1409(v),1526(g),1532(v)
                                                    1254(v)
   143. CR (   1) C  74                  1.99935   -10.11998  1382(v),1523(v),1531(v)
                                                    151(r),150(r),154(r)
   144. CR (   1) N  76                  1.99932   -14.15119  150(r),151(r),154(r),1350(v)
                                                    1407(v),1528(v),172(r)
                                                    168(r),175(r)
   145. CR (   1) C  77                  1.99898   -10.05751  1522(v),1324(v),1526(g)
                                                    1383(v),1327(v),1434(v)
                                                    150(r),151(r)
   163. LP (   1) N  71                  1.57996    -0.28305  1530(v),1527(v),1353(v)
                                                    1325(v),1319(v),1351(v)
   164. LP (   1) N  76                  1.61177    -0.36344  150(r),151(r),154(r),1525(v)
                                                    1526(v),1350(v),1528(v)
                                                    1532(v),1529(g),1407(v)
                                                    1384(g),1531(g),170(r)
                                                    1383(g),157(r),273(r),195(r)
                                                    221(r),247(r),272(r),244(r)
                                                    194(r),246(r),220(r),183(r)
                                                    184(r),1447(r),1443(r)
                                                    1438(r),1442(r),270(r)
                                                    1439(r),1446(r),1441(r)
                                                    1444(r),218(r),177(r),192(r)
                                                    1440(r)
  1252. RY*(   1) C  67                  0.00118     1.16175   
  1253. RY*(   2) C  67                  0.00079     2.01012   
  1254. RY*(   3) C  67                  0.00051     1.33480   
  1255. RY*(   4) C  67                  0.00012     1.26008   
  1256. RY*(   5) C  67                  0.00007     1.17282   
  1257. RY*(   6) C  67                  0.00008     2.34284   
  1258. RY*(   7) C  67                  0.00003     2.17637   
  1259. RY*(   8) C  67                  0.00001     1.79608   
  1260. RY*(   9) C  67                  0.00000     1.43710   
  1261. RY*(  10) C  67                  0.00001     1.48378   
  1262. RY*(  11) C  67                  0.00000     3.00321   
  1263. RY*(  12) C  67                  0.00000     3.13846   
  1264. RY*(  13) C  67                  0.00000     2.53803   
  1265. RY*(  14) C  67                  0.00000     2.80766   
  1266. RY*(  15) C  67                  0.00000     2.28415   
  1267. RY*(  16) C  67                  0.00000     3.01423   
  1268. RY*(  17) C  67                  0.00000     2.49373   
  1269. RY*(  18) C  67                  0.00000    21.55813   
  1270. RY*(  19) C  67                  0.00000     2.63279   
  1271. RY*(  20) C  67                  0.00000     3.71040   
  1272. RY*(  21) C  67                  0.00001     2.98575   
  1273. RY*(  22) C  67                  0.00000     2.94106   
  1274. RY*(  23) C  67                  0.00000     3.65336   
  1275. RY*(  24) C  67                  0.00000     3.42322   
  1276. RY*(  25) C  67                  0.00000     3.33891   
  1277. RY*(  26) C  67                  0.00000     3.32000   
  1278. RY*(   1) H  68                  0.00074     0.99378   
  1279. RY*(   2) H  68                  0.00015     1.69554   
  1280. RY*(   3) H  68                  0.00008     1.96613   
  1281. RY*(   4) H  68                  0.00006     2.01526   
  1282. RY*(   5) H  68                  0.00000     2.88202   
  1283. RY*(   1) H  69                  0.00075     0.99980   
  1284. RY*(   2) H  69                  0.00015     1.69564   
  1285. RY*(   3) H  69                  0.00008     1.96123   
  1286. RY*(   4) H  69                  0.00006     2.01355   
  1287. RY*(   5) H  69                  0.00000     2.88285   
  1288. RY*(   1) H  70                  0.00024     1.38677   
  1289. RY*(   2) H  70                  0.00012     1.74402   
  1290. RY*(   3) H  70                  0.00008     2.05864   
  1291. RY*(   4) H  70                  0.00002     1.59673   
  1292. RY*(   5) H  70                  0.00001     2.86653   
  1293. RY*(   1) N  71                  0.00282     0.66861   
  1294. RY*(   2) N  71                  0.00225     1.77865   
  1295. RY*(   3) N  71                  0.00100     2.08803   
  1296. RY*(   4) N  71                  0.00077     2.16278   
  1297. RY*(   5) N  71                  0.00053     1.15990   
  1298. RY*(   6) N  71                  0.00027     2.04165   
  1299. RY*(   7) N  71                  0.00020     1.71425   
  1300. RY*(   8) N  71                  0.00007     2.21436   
  1301. RY*(   9) N  71                  0.00007     2.36388   
  1302. RY*(  10) N  71                  0.00006     3.88754   
  1303. RY*(  11) N  71                  0.00004     2.90656   
  1304. RY*(  12) N  71                  0.00001     3.81868   
  1305. RY*(  13) N  71                  0.00001     4.25796   
  1306. RY*(  14) N  71                  0.00000     2.60328   
  1307. RY*(  15) N  71                  0.00000     3.50019   
  1308. RY*(  16) N  71                  0.00000     2.11513   
  1309. RY*(  17) N  71                  0.00000     4.52027   
  1310. RY*(  18) N  71                  0.00001     3.88656   
  1311. RY*(  19) N  71                  0.00000    30.72110   
  1312. RY*(  20) N  71                  0.00000     4.62030   
  1313. RY*(  21) N  71                  0.00000     4.65064   
  1314. RY*(  22) N  71                  0.00000     4.39748   
  1315. RY*(  23) N  71                  0.00000     4.54329   
  1316. RY*(  24) N  71                  0.00000     4.35164   
  1317. RY*(  25) N  71                  0.00000     4.47865   
  1318. RY*(  26) N  71                  0.00000     4.44128   
  1319. RY*(   1) H  72                  0.00058     2.15185   
  1320. RY*(   2) H  72                  0.00039     2.13466   
  1321. RY*(   3) H  72                  0.00030     1.03467   
  1322. RY*(   4) H  72                  0.00021     2.53362   
  1323. RY*(   5) H  72                  0.00001     3.07989   
  1324. RY*(   1) C  73                  0.00406     1.69462   
  1325. RY*(   2) C  73                  0.00261     0.98313   
  1326. RY*(   3) C  73                  0.00191     1.49985   
  1327. RY*(   4) C  73                  0.00162     2.02495   
  1328. RY*(   5) C  73                  0.00122     1.76461   
  1329. RY*(   6) C  73                  0.00110     1.73072   
  1330. RY*(   7) C  73                  0.00037     2.85611   
  1331. RY*(   8) C  73                  0.00019     2.75328   
  1332. RY*(   9) C  73                  0.00016     2.52961   
  1333. RY*(  10) C  73                  0.00007     3.64733   
  1334. RY*(  11) C  73                  0.00003     2.68676   
  1335. RY*(  12) C  73                  0.00002     2.10025   
  1336. RY*(  13) C  73                  0.00001     1.34654   
  1337. RY*(  14) C  73                  0.00001     1.61135   
  1338. RY*(  15) C  73                  0.00001     2.84916   
  1339. RY*(  16) C  73                  0.00001     1.92959   
  1340. RY*(  17) C  73                  0.00000     3.28906   
  1341. RY*(  18) C  73                  0.00000    21.17023   
  1342. RY*(  19) C  73                  0.00000     1.15728   
  1343. RY*(  20) C  73                  0.00000     4.06059   
  1344. RY*(  21) C  73                  0.00000     3.75429   
  1345. RY*(  22) C  73                  0.00000     3.55606   
  1346. RY*(  23) C  73                  0.00000     3.72346   
  1347. RY*(  24) C  73                  0.00000     3.43552   
  1348. RY*(  25) C  73                  0.00000     3.54929   
  1349. RY*(  26) C  73                  0.00000     3.53345   
  1350. RY*(   1) C  74                  0.00410     1.60241   
  1351. RY*(   2) C  74                  0.00330     0.67178   
  1352. RY*(   3) C  74                  0.00201     1.33530   
  1353. RY*(   4) C  74                  0.00128     2.56194   
  1354. RY*(   5) C  74                  0.00080     1.65001   
  1355. RY*(   6) C  74                  0.00039     1.67454   
  1356. RY*(   7) C  74                  0.00027     1.86553   
  1357. RY*(   8) C  74                  0.00009     2.67625   
  1358. RY*(   9) C  74                  0.00005     2.07558   
  1359. RY*(  10) C  74                  0.00006     2.63747   
  1360. RY*(  11) C  74                  0.00004     3.45313   
  1361. RY*(  12) C  74                  0.00003     1.54162   
  1362. RY*(  13) C  74                  0.00002     2.92672   
  1363. RY*(  14) C  74                  0.00001     2.18272   
  1364. RY*(  15) C  74                  0.00001     2.55726   
  1365. RY*(  16) C  74                  0.00001     3.69752   
  1366. RY*(  17) C  74                  0.00001     2.72127   
  1367. RY*(  18) C  74                  0.00001     3.97499   
  1368. RY*(  19) C  74                  0.00000     3.25489   
  1369. RY*(  20) C  74                  0.00000    21.40090   
  1370. RY*(  21) C  74                  0.00001     4.04663   
  1371. RY*(  22) C  74                  0.00000     3.57433   
  1372. RY*(  23) C  74                  0.00000     3.84614   
  1373. RY*(  24) C  74                  0.00000     3.52549   
  1374. RY*(  25) C  74                  0.00000     3.51069   
  1375. RY*(  26) C  74                  0.00000     3.36795   
  1376. RY*(   1) H  75                  0.00058     0.86497   
  1377. RY*(   2) H  75                  0.00030     2.36682   
  1378. RY*(   3) H  75                  0.00021     2.12466   
  1379. RY*(   4) H  75                  0.00012     2.40274   
  1380. RY*(   5) H  75                  0.00002     3.14205   
  1381. RY*(   1) N  76                  0.00764     0.87343   
  1382. RY*(   2) N  76                  0.00734     1.28836   
  1383. RY*(   3) N  76                  0.00594     1.42801   
  1384. RY*(   4) N  76                  0.00077     1.58887   
  1385. RY*(   5) N  76                  0.00074     1.67568   
  1386. RY*(   6) N  76                  0.00057     1.93191   
  1387. RY*(   7) N  76                  0.00037     3.52082   
  1388. RY*(   8) N  76                  0.00033     3.17651   
  1389. RY*(   9) N  76                  0.00011     2.83616   
  1390. RY*(  10) N  76                  0.00010     3.26866   
  1391. RY*(  11) N  76                  0.00008     3.41369   
  1392. RY*(  12) N  76                  0.00009     2.42808   
  1393. RY*(  13) N  76                  0.00006     3.04996   
  1394. RY*(  14) N  76                  0.00004     3.70177   
  1395. RY*(  15) N  76                  0.00002     4.87202   
  1396. RY*(  16) N  76                  0.00001     3.98732   
  1397. RY*(  17) N  76                  0.00002     4.77300   
  1398. RY*(  18) N  76                  0.00000    31.60919   
  1399. RY*(  19) N  76                  0.00001     4.25800   
  1400. RY*(  20) N  76                  0.00000     4.39626   
  1401. RY*(  21) N  76                  0.00000     4.82827   
  1402. RY*(  22) N  76                  0.00000     4.16363   
  1403. RY*(  23) N  76                  0.00000     4.70489   
  1404. RY*(  24) N  76                  0.00000     4.68383   
  1405. RY*(  25) N  76                  0.00000     4.71674   
  1406. RY*(  26) N  76                  0.00000     4.57139   
  1407. RY*(   1) C  77                  0.00400     1.49143   
  1408. RY*(   2) C  77                  0.00259     0.72114   
  1409. RY*(   3) C  77                  0.00169     1.83846   
  1410. RY*(   4) C  77                  0.00069     2.04104   
  1411. RY*(   5) C  77                  0.00056     1.59129   
  1412. RY*(   6) C  77                  0.00044     2.25338   
  1413. RY*(   7) C  77                  0.00044     1.72110   
  1414. RY*(   8) C  77                  0.00023     1.47628   
  1415. RY*(   9) C  77                  0.00022     1.62363   
  1416. RY*(  10) C  77                  0.00015     1.76429   
  1417. RY*(  11) C  77                  0.00010     1.33965   
  1418. RY*(  12) C  77                  0.00006     2.37667   
  1419. RY*(  13) C  77                  0.00005     1.82448   
  1420. RY*(  14) C  77                  0.00005     2.89201   
  1421. RY*(  15) C  77                  0.00002     3.35242   
  1422. RY*(  16) C  77                  0.00002     1.42851   
  1423. RY*(  17) C  77                  0.00000     3.64693   
  1424. RY*(  18) C  77                  0.00000     3.29323   
  1425. RY*(  19) C  77                  0.00000    21.59960   
  1426. RY*(  20) C  77                  0.00001     3.97211   
  1427. RY*(  21) C  77                  0.00001     4.08646   
  1428. RY*(  22) C  77                  0.00000     3.49613   
  1429. RY*(  23) C  77                  0.00000     3.72505   
  1430. RY*(  24) C  77                  0.00001     3.47244   
  1431. RY*(  25) C  77                  0.00000     3.61966   
  1432. RY*(  26) C  77                  0.00000     3.48017   
  1433. RY*(   1) H  78                  0.00051     0.81135   
  1434. RY*(   2) H  78                  0.00033     2.25105   
  1435. RY*(   3) H  78                  0.00025     2.31064   
  1436. RY*(   4) H  78                  0.00008     2.74542   
  1437. RY*(   5) H  78                  0.00001     3.13241   
  1519. BD*(   1) C  67 - H  68          0.01181     0.36006   
  1520. BD*(   1) C  67 - H  69          0.01202     0.36005   
  1521. BD*(   1) C  67 - H  70          0.00344     0.37375   
  1522. BD*(   1) C  67 - C  73          0.01373     0.38998   
  1523. BD*(   1) N  71 - H  72          0.01424     0.36750   
  1524. BD*(   1) N  71 - C  73          0.02723     0.43064   
  1525. BD*(   1) N  71 - C  74          0.02245     0.44804   
  1526. BD*(   1) C  73 - C  77          0.02113     0.56765   
  1527. BD*(   2) C  73 - C  77          0.29919     0.03613  1530(v),1520(v),1519(v)
                                                    1412(g),1328(g),1445(r)
                                                    1467(r)
  1528. BD*(   1) C  74 - H  75          0.01846     0.39289   
  1529. BD*(   1) C  74 - N  76          0.01630     0.53854   
  1530. BD*(   2) C  74 - N  76          0.41882    -0.00448  1527(v),1351(g),1381(g)
                                                    1408(v),153(r),1445(r)
                                                    1448(r),179(r),157(r)
                                                    1451(r)
  1531. BD*(   1) N  76 - C  77          0.01649     0.48253   
  1532. BD*(   1) C  77 - H  78          0.01482     0.43488   
       -------------------------------
              Total Lewis   42.69121  ( 97.7357%)
        Valence non-Lewis    0.91015  (  2.0837%)
        Rydberg non-Lewis    0.07890  (  0.1806%)
       -------------------------------
            Total unit  4   43.68026  (100.0000%)
           Charge unit  4    0.31974
 Unable to Open any file for archive entry.
 1\1\GINC-BGN1021\SP\RAPFD\def2TZVP\C34H36Fe1N6O1\BECSLEIP\24-Oct-2024\
 0\\# apfd/def2TZVP int=(grid=ultrafine) geom=check guess=read pop=nbo 
 scf=qc\\5ych_II_S_nbo\\0,1\Fe,0,-0.5025721342,-5.4952558686,-15.214278
 439\N,0,-1.9263270173,-6.7182375095,-15.922318933\N,0,-1.928049256,-4.
 1551016747,-14.727568597\N,0,0.9037759179,-4.2222131213,-14.5548946919
 \N,0,0.8975345025,-6.7931511957,-15.7753491137\C,0,-1.7402755225,-7.96
 55603078,-16.430518141\C,0,-3.0088527039,-8.5934373366,-16.7280085558\
 C,0,-3.9686879635,-7.6969248692,-16.3761414537\C,0,-3.2716788047,-6.53
 28098895,-15.8742899261\C,0,-3.2727359591,-4.2956278389,-14.8732050008
 \C,0,-3.9723788295,-3.1529634412,-14.3415560428\C,0,-3.0113908575,-2.2
 963394636,-13.8765459547\C,0,-1.7402064767,-2.9470359991,-14.134517384
 6\C,0,0.7143656273,-2.9564630222,-14.0893694796\C,0,1.9700302006,-2.27
 29283476,-13.9273831733\C,0,2.9398577389,-3.1494079876,-14.3410956723\
 C,0,2.2443890777,-4.3603074373,-14.7297716003\C,0,2.2425901273,-6.6166
 485933,-15.6973643637\C,0,2.9403389436,-7.7248097976,-16.3136039949\C,
 0,1.9813226879,-8.5902578028,-16.737967839\C,0,0.7113780457,-7.9873741
 95,-16.3961303382\C,0,-0.5150423072,-8.5587980827,-16.6782685935\H,0,-
 0.517450482,-9.5357800934,-17.1377188903\C,0,-3.9084920341,-5.39641262
 95,-15.4189380099\H,0,-4.9862610414,-5.3761400508,-15.4714344288\C,0,-
 0.5183432751,-2.3819995972,-13.8257021109\H,0,-0.5218557552,-1.3860539
 052,-13.4094022086\C,0,2.8789780295,-5.4992483189,-15.192033825\H,0,3.
 9572912724,-5.4852402503,-15.2364116178\C,0,-5.451672216,-7.81730815,-
 16.4638871884\H,0,-5.7385819031,-8.7852354729,-16.8677637949\H,0,-5.86
 1859804,-7.0412058552,-17.1104240105\H,0,-5.9039696309,-7.7089609559,-
 15.477748759\C,0,-3.1576547875,-9.9620842989,-17.3000645198\H,0,-2.689
 9729176,-10.7037580532,-16.6518054601\H,0,-2.6815307848,-10.022263702,
 -18.2790931451\H,0,-4.2072943892,-10.2213832732,-17.4146180856\C,0,-5.
 4526181542,-3.0090638613,-14.2700679452\H,0,-5.9212676069,-3.961286867
 5,-14.0260775164\H,0,-5.8573908518,-2.6685235532,-15.2245918889\H,0,-5
 .7203398373,-2.2831355331,-13.5049719005\C,0,-3.1643349274,-1.01156369
 37,-13.2300321389\H,0,-2.4265884332,-0.7777752422,-12.4707214456\C,0,-
 4.1129699977,-0.1203977415,-13.4993465074\H,0,-4.8421962196,-0.2768670
 827,-14.2748975312\H,0,-4.1757571681,0.8143691723,-12.967046974\C,0,2.
 1360151473,-0.9031291691,-13.3677199205\H,0,1.4342739781,-0.7321922,-1
 2.5526207088\H,0,1.9559423908,-0.1437255157,-14.130744675\H,0,3.147834
 3166,-0.7755578237,-12.9882863422\C,0,4.3736834386,-2.9683259594,-14.3
 886589346\H,0,4.9644020265,-3.8569341318,-14.1982719851\C,0,4.99977554
 07,-1.8255638283,-14.6512029475\H,0,4.4678382066,-0.9224980668,-14.894
 9464821\H,0,6.0752833255,-1.7608918105,-14.6562538146\C,0,4.4231414958
 ,-7.8342076308,-16.4156330245\H,0,4.8788216396,-7.8059262984,-15.42560
 19379\H,0,4.8291559698,-7.0065225437,-16.997824766\H,0,4.7105473685,-8
 .7649664667,-16.8987301757\C,0,2.1294134793,-9.8951897177,-17.44327620
 35\H,0,1.6730097651,-10.6988475469,-16.8644538014\H,0,3.1786887121,-10
 .136484703,-17.5944317133\H,0,1.641189411,-9.8624592973,-18.4175491224
 \O,0,-0.28,-4.44,-17.211\H,0,0.276,-3.676,-17.056\H,0,-0.599,-4.708,-1
 7.996\C,0,-0.8040181009,-6.4645907048,-9.7331249878\H,0,0.0444887986,-
 6.953586178,-9.2547782298\H,0,-1.7189643646,-6.9053747331,-9.337354668
 2\H,0,-0.7874246175,-5.409894147,-9.4773925425\N,0,-0.728107288,-7.844
 657265,-11.8215640563\H,0,-0.761218654,-8.7360353764,-11.354747775\C,0
 ,-0.7387584618,-6.6190133989,-11.2085098172\C,0,-0.6629195018,-7.63476
 7301,-13.1561260505\H,0,-0.6398203974,-8.4167385201,-13.8870309788\N,0
 ,-0.632387791,-6.3519127541,-13.4245871243\C,0,-0.6788669588,-5.707410
 6658,-12.2231925173\H,0,-0.6659244162,-4.6387305096,-12.1703249674\\Ve
 rsion=ES64L-G16RevC.02\State=1-A\HF=-2984.0251203\RMSD=1.720e-09\Dipol
 e=-0.1727132,-1.2854739,0.7993002\Quadrupole=-7.9864862,2.5642362,5.42
 22499,1.3434837,-0.5507386,-6.9973304\PG=C01 [X(C34H36Fe1N6O1)]\\@
 The archive entry for this job was punched.


 THE ... SCIENTISTS WERE WRONG ... THE MOST PERSISTENT PRINCIPLES 
 OF THE UNIVERSE WERE ACCIDENT AND ERROR.

                          -- FRANK HERBERT IN DUNE
 Job cpu time:       0 days  0 hours 45 minutes 35.5 seconds.
 Elapsed time:       0 days  0 hours  0 minutes 54.5 seconds.
 File lengths (MBytes):  RWF=    792 Int=      0 D2E=      0 Chk=    155 Scr=      1
 Normal termination of Gaussian 16 at Thu Oct 24 01:01:54 2024.
