 Entering Gaussian System, Link 0=g16
 Input=5ysm01.com
 Output=5ysm01.log
 Initial command:
 /sw/chem/gaussian/g16_C02/a100/g16/l1.exe "/local/becsleip_8058445/Gau-935500.inp" -scrdir="/local/becsleip_8058445/"
 Entering Link 1 = /sw/chem/gaussian/g16_C02/a100/g16/l1.exe PID=    935501.
  
 Copyright (c) 1988-2021, Gaussian, Inc.  All Rights Reserved.
  
 This is part of the Gaussian(R) 16 program.  It is based on
 the Gaussian(R) 09 system (copyright 2009, Gaussian, Inc.),
 the Gaussian(R) 03 system (copyright 2003, Gaussian, Inc.),
 the Gaussian(R) 98 system (copyright 1998, Gaussian, Inc.),
 the Gaussian(R) 94 system (copyright 1995, Gaussian, Inc.),
 the Gaussian 92(TM) system (copyright 1992, Gaussian, Inc.),
 the Gaussian 90(TM) system (copyright 1990, Gaussian, Inc.),
 the Gaussian 88(TM) system (copyright 1988, Gaussian, Inc.),
 the Gaussian 86(TM) system (copyright 1986, Carnegie Mellon
 University), and the Gaussian 82(TM) system (copyright 1983,
 Carnegie Mellon University). Gaussian is a federally registered
 trademark of Gaussian, Inc.
  
 This software contains proprietary and confidential information,
 including trade secrets, belonging to Gaussian, Inc.
  
 This software is provided under written license and may be
 used, copied, transmitted, or stored only in accord with that
 written license.
  
 The following legend is applicable only to US Government
 contracts under FAR:
  
                    RESTRICTED RIGHTS LEGEND
  
 Use, reproduction and disclosure by the US Government is
 subject to restrictions as set forth in subparagraphs (a)
 and (c) of the Commercial Computer Software - Restricted
 Rights clause in FAR 52.227-19.
  
 Gaussian, Inc.
 340 Quinnipiac St., Bldg. 40, Wallingford CT 06492
  
  
 ---------------------------------------------------------------
 Warning -- This program may not be used in any manner that
 competes with the business of Gaussian, Inc. or will provide
 assistance to any competitor of Gaussian, Inc.  The licensee
 of this program is prohibited from giving any competitor of
 Gaussian, Inc. access to this program.  By using this program,
 the user acknowledges that Gaussian, Inc. is engaged in the
 business of creating and licensing software in the field of
 computational chemistry and represents and warrants to the
 licensee that it is not a competitor of Gaussian, Inc. and that
 it will not use this program in any manner prohibited above.
 ---------------------------------------------------------------
  

 Cite this work as:
 Gaussian 16, Revision C.02,
 M. J. Frisch, G. W. Trucks, H. B. Schlegel, G. E. Scuseria, 
 M. A. Robb, J. R. Cheeseman, G. Scalmani, V. Barone, 
 G. A. Petersson, H. Nakatsuji, X. Li, M. Caricato, A. V. Marenich, 
 J. Bloino, B. G. Janesko, R. Gomperts, B. Mennucci, H. P. Hratchian, 
 J. V. Ortiz, A. F. Izmaylov, J. L. Sonnenberg, D. Williams-Young, 
 F. Ding, F. Lipparini, F. Egidi, J. Goings, B. Peng, A. Petrone, 
 T. Henderson, D. Ranasinghe, V. G. Zakrzewski, J. Gao, N. Rega, 
 G. Zheng, W. Liang, M. Hada, M. Ehara, K. Toyota, R. Fukuda, 
 J. Hasegawa, M. Ishida, T. Nakajima, Y. Honda, O. Kitao, H. Nakai, 
 T. Vreven, K. Throssell, J. A. Montgomery, Jr., J. E. Peralta, 
 F. Ogliaro, M. J. Bearpark, J. J. Heyd, E. N. Brothers, K. N. Kudin, 
 V. N. Staroverov, T. A. Keith, R. Kobayashi, J. Normand, 
 K. Raghavachari, A. P. Rendell, J. C. Burant, S. S. Iyengar, 
 J. Tomasi, M. Cossi, J. M. Millam, M. Klene, C. Adamo, R. Cammi, 
 J. W. Ochterski, R. L. Martin, K. Morokuma, O. Farkas, 
 J. B. Foresman, and D. J. Fox, Gaussian, Inc., Wallingford CT, 2019.
 
 ******************************************
 Gaussian 16:  ES64L-G16RevC.02  7-Dec-2021
                24-Oct-2024 
 ******************************************
 %mem=16GB
 %CPU=0-71
 SetSPE:  set environment variable "OMP_PROC_BIND" = "true"
 SetSPE:  set environment variable "OMP_PLACES" = "{0},{1},{2},{3},{4},{5},{6},{7},{8},{9},{10},{11},{12},{13},{14},{15},{16},{17},{18},{19},{20},{21},{22},{23},{24},{25},{26},{27},{28},{29},{30},{31},{32},{33},{34},{35},{36},{37},{38},{39},{40},{41},{42},{43},{44},{45},{46},{47},{48},{49},{50},{51},{52},{53},{54},{55},{56},{57},{58},{59},{60},{61},{62},{63},{64},{65},{66},{67},{68},{69},{70},{71}"
 Will use up to   72 processors via shared memory.
 %gpucpu=0,1,2,3=0,1,2,3
 Will use    4 GPUs:
 Thread  CPU   GPU
      0    0     0
      1    1     1
      2    2     2
      3    3     3
      4    4    -1
      5    5    -1
      6    6    -1
      7    7    -1
      8    8    -1
      9    9    -1
     10   10    -1
     11   11    -1
     12   12    -1
     13   13    -1
     14   14    -1
     15   15    -1
     16   16    -1
     17   17    -1
     18   18    -1
     19   19    -1
     20   20    -1
     21   21    -1
     22   22    -1
     23   23    -1
     24   24    -1
     25   25    -1
     26   26    -1
     27   27    -1
     28   28    -1
     29   29    -1
     30   30    -1
     31   31    -1
     32   32    -1
     33   33    -1
     34   34    -1
     35   35    -1
     36   36    -1
     37   37    -1
     38   38    -1
     39   39    -1
     40   40    -1
     41   41    -1
     42   42    -1
     43   43    -1
     44   44    -1
     45   45    -1
     46   46    -1
     47   47    -1
     48   48    -1
     49   49    -1
     50   50    -1
     51   51    -1
     52   52    -1
     53   53    -1
     54   54    -1
     55   55    -1
     56   56    -1
     57   57    -1
     58   58    -1
     59   59    -1
     60   60    -1
     61   61    -1
     62   62    -1
     63   63    -1
     64   64    -1
     65   65    -1
     66   66    -1
     67   67    -1
     68   68    -1
     69   69    -1
     70   70    -1
     71   71    -1
 SetGPE:  set environment variable "OMP_PROC_BIND" = "true"
 SetGPE:  set environment variable "OMP_PLACES" = "{0},{1},{2},{3},{4},{5},{6},{7},{8},{9},{10},{11},{12},{13},{14},{15},{16},{17},{18},{19},{20},{21},{22},{23},{24},{25},{26},{27},{28},{29},{30},{31},{32},{33},{34},{35},{36},{37},{38},{39},{40},{41},{42},{43},{44},{45},{46},{47},{48},{49},{50},{51},{52},{53},{54},{55},{56},{57},{58},{59},{60},{61},{62},{63},{64},{65},{66},{67},{68},{69},{70},{71}"
 %chk=5ysm_II_O.chk
 Properties for Device   0
 Minimum vector length:                              32
 Maximum vector length:                            1024
 Number of SMPs:                                    108
 Maximum number of threads per SMP:                2048
 Number of ASync Engines:                             5
 Memory:                                           9207742464
 Properties for Device   1
 Minimum vector length:                              32
 Maximum vector length:                            1024
 Number of SMPs:                                    108
 Maximum number of threads per SMP:                2048
 Number of ASync Engines:                             5
 Memory:                                           9207742464
 Properties for Device   2
 Minimum vector length:                              32
 Maximum vector length:                            1024
 Number of SMPs:                                    108
 Maximum number of threads per SMP:                2048
 Number of ASync Engines:                             5
 Memory:                                           9207742464
 Properties for Device   3
 Minimum vector length:                              32
 Maximum vector length:                            1024
 Number of SMPs:                                    108
 Maximum number of threads per SMP:                2048
 Number of ASync Engines:                             5
 Memory:                                           9207742464
   8286968217 words of memory will be used on each GPU.
 ------------------------------------------
 # polar def2tzvp apfd int=(grid=ultrafine)
 ------------------------------------------
 1/38=1,172=1/1;
 2/12=2,17=6,18=5,40=1/2;
 3/5=44,7=101,11=2,25=1,30=1,74=-44,75=-5/1,2,3;
 4//1;
 5/5=2,38=5,98=1/2;
 8/6=4,10=90,11=11/1;
 10/6=1,13=10/2;
 6/7=2,8=2,9=2,10=2,28=1/1;
 99/5=1,9=1/99;
 ---------
 5ysm_II_S
 ---------
 Symbolic Z-matrix:
 Charge =  0 Multiplicity = 1
 Fe                   -11.23222   66.49977   181.25087 
 N                    -11.78999   65.17473   182.65562 
 N                    -10.91536   64.97864   179.97301 
 N                    -10.61736   67.80453   179.86526 
 N                    -11.4462   67.98652   182.55335 
 C                    -12.17755   65.45637   183.928 
 C                    -12.60365   64.25417   184.60739 
 C                    -12.37026   63.22559   183.74706 
 C                    -11.8424   63.81845   182.53968 
 C                    -10.97974   63.6448   180.24832 
 C                    -10.64839   62.86572   179.08355 
 C                    -10.28401   63.76152   178.11377 
 C                    -10.41509   65.07489   178.71289 
 C                    -10.29164   67.5209   178.57548 
 C                    -10.09088   68.73338   177.82484 
 C                    -10.16965   69.75932   178.72546 
 C                    -10.49093   69.1485   180.00079 
 C                    -11.12081   69.29067   182.36276 
 C                    -11.2615   70.04075   183.59242 
 C                    -11.7049   69.15901   184.52609 
 C                    -11.76787   67.87077   183.86829 
 C                    -12.19935   66.71688   184.49389 
 H                    -12.50546   66.79272   185.52564 
 C                    -11.44919   63.09604   181.43046 
 H                    -11.51331   62.0208   181.49091 
 C                    -10.19499   66.25437   178.02902 
 H                    -9.88753   66.18491   176.99706 
 C                    -10.71927   69.85232   181.16724 
 H                    -10.50959   70.91022   181.15614 
 C                    -12.5966   61.76507   183.93542 
 H                    -13.02474   61.56361   184.91409 
 H                    -11.65658   61.21829   183.85457 
 H                    -13.27731   61.38005   183.17587 
 C                    -13.14075   64.22058   185.99643 
 H                    -14.01169   64.86971   186.08496 
 H                    -12.38905   64.56561   186.70719 
 H                    -13.43474   63.21119   186.27332 
 C                    -10.62063   61.37834   179.02731 
 H                    -11.61966   60.9761   178.85024 
 H                    -10.25176   60.96342   179.96413 
 H                    -9.97034   61.04804   178.21989 
 C                    -9.82695   63.51304   176.76454 
 H                    -9.08718   64.20865   176.38591 
 C                    -10.24549   62.52511   175.98046 
 H                    -11.01182   61.83491   176.28784 
 H                    -9.85172   62.38907   174.98701 
 C                    -9.81524   68.80268   176.363 
 H                    -10.60879   68.31155   175.79976 
 H                    -8.87487   68.30445   176.12319 
 H                    -9.75333   69.83779   176.03716 
 C                    -10.0287   71.17647   178.44456 
 H                    -9.21652   71.43521   177.77326 
 C                    -10.82062   72.13705   178.904 
 H                    -11.67261   71.92444   179.52719 
 H                    -10.65898   73.17134   178.64861 
 C                    -10.99097   71.49992   183.71989 
 H                    -11.65699   72.07078   183.07264 
 H                    -9.96468   71.7249   183.43001 
 H                    -11.13976   71.83313   184.74399 
 C                    -12.02305   69.38443   185.96414 
 H                    -11.88107   70.42849   186.23146 
 H                    -11.38038   68.77588   186.60088 
 H                    -13.05866   69.11544   186.17265 
 O                    -9.173     66.167    182.072 
 H                    -9.389     65.515    182.739 
 H                    -8.359     66.458    181.865 
 C                    -14.27884   65.15645   180.5787 
 H                    -13.59618   64.37786   180.25719 
 H                    -15.17915   65.17006   179.97236 
 H                    -14.53286   65.0137   181.6236 
 S                    -13.4521   66.78199   180.46074 
 H                    -13.18732   66.68736   179.15272 
 
 Stoichiometry    C31H34FeN4OS
 Framework group  C1[X(C31H34FeN4OS)]
 Deg. of freedom   210
 Full point group                 C1      NOp   1
 Largest Abelian subgroup         C1      NOp   1
 Largest concise Abelian subgroup C1      NOp   1
                         Standard orientation:                         
 ---------------------------------------------------------------------
 Center     Atomic      Atomic             Coordinates (Angstroms)
 Number     Number       Type             X           Y           Z
 ---------------------------------------------------------------------
      1         26           0       -0.084668    0.132743   -0.104197
      2          7           0        0.676329    1.993109   -0.094662
      3          7           0        1.783266   -0.607314   -0.205684
      4          7           0       -0.833159   -1.720640   -0.175627
      5          7           0       -1.928708    0.875812   -0.111299
      6          6           0       -0.025819    3.156463   -0.049064
      7          6           0        0.869263    4.286840    0.048326
      8          6           0        2.131076    3.784137   -0.039614
      9          6           0        1.989770    2.350289   -0.149144
     10          6           0        2.941138    0.097028   -0.355029
     11          6           0        4.073377   -0.789714   -0.426941
     12          6           0        3.565793   -2.061703   -0.415661
     13          6           0        2.126417   -1.917129   -0.324275
     14          6           0       -0.123216   -2.880694   -0.157516
     15          6           0       -1.003629   -4.011841   -0.018804
     16          6           0       -2.276692   -3.517773   -0.090037
     17          6           0       -2.141720   -2.078053   -0.198545
     18          6           0       -3.087627    0.180178   -0.237826
     19          6           0       -4.214793    1.078373   -0.369016
     20          6           0       -3.708070    2.336671   -0.293346
     21          6           0       -2.272259    2.188485   -0.180514
     22          6           0       -1.404055    3.256321   -0.058189
     23          1           0       -1.830171    4.247388   -0.044381
     24          6           0        3.049749    1.476491   -0.289852
     25          1           0        4.038634    1.903013   -0.353761
     26          6           0        1.254048   -2.983243   -0.225898
     27          1           0        1.674241   -3.976993   -0.240302
     28          6           0       -3.203790   -1.195485   -0.233105
     29          1           0       -4.193252   -1.615001   -0.323712
     30          6           0        3.437678    4.499912   -0.022863
     31          1           0        3.290123    5.570518    0.094310
     32          1           0        3.979633    4.329541   -0.953672
     33          1           0        4.059815    4.145998    0.799460
     34          6           0        0.422917    5.702593    0.172656
     35          1           0       -0.217738    5.825820    1.045649
     36          1           0       -0.144840    6.004919   -0.707979
     37          1           0        1.275399    6.369513    0.274949
     38          6           0        5.489469   -0.359567   -0.587794
     39          1           0        5.927311   -0.091285    0.375292
     40          1           0        5.557359    0.508337   -1.242007
     41          1           0        6.077684   -1.167363   -1.018347
     42          6           0        4.263274   -3.325411   -0.503005
     43          1           0        3.740757   -4.112096   -1.034610
     44          6           0        5.460211   -3.580600    0.014864
     45          1           0        6.002112   -2.851771    0.592158
     46          1           0        5.929747   -4.543397   -0.099398
     47          6           0       -0.565992   -5.427448    0.130471
     48          1           0        0.088225   -5.537060    0.995435
     49          1           0       -0.014981   -5.756481   -0.751659
     50          1           0       -1.425973   -6.078225    0.266093
     51          6           0       -3.510824   -4.277111   -0.003897
     52          1           0       -3.522425   -5.204163   -0.567507
     53          6           0       -4.571387   -3.946812    0.722077
     54          1           0       -4.586602   -3.066328    1.341730
     55          1           0       -5.454742   -4.563554    0.742773
     56          6           0       -5.628659    0.633334   -0.515755
     57          1           0       -5.942746    0.061695    0.357726
     58          1           0       -5.739513   -0.003662   -1.393183
     59          1           0       -6.293705    1.486505   -0.624189
     60          6           0       -4.414319    3.646634   -0.365698
     61          1           0       -5.486536    3.501422   -0.470272
     62          1           0       -4.061237    4.228124   -1.217759
     63          1           0       -4.234174    4.227838    0.538773
     64          8           0       -0.052889    0.370812   -2.333025
     65          1           0        0.329938    1.247235   -2.377466
     66          1           0       -0.254387   -0.150845   -3.023966
     67          6           0        1.405551    0.870644    2.857720
     68          1           0        2.247723    0.636534    2.216221
     69          1           0        1.600520    0.588007    3.887531
     70          1           0        1.180227    1.929959    2.796081
     71         16           0       -0.079765   -0.013474    2.264436
     72          1           0        0.458922   -1.234005    2.364883
 ---------------------------------------------------------------------
 Rotational constants (GHZ):           0.1124761           0.1054952           0.0602687
 Standard basis: def2TZVP (5D, 7F)
 There are  1594 symmetry adapted cartesian basis functions of A   symmetry.
 There are  1402 symmetry adapted basis functions of A   symmetry.
  1402 basis functions,  2279 primitive gaussians,  1594 cartesian basis functions
   149 alpha electrons      149 beta electrons
       nuclear repulsion energy      5419.9929690086 Hartrees.
 NAtoms=   72 NActive=   72 NUniq=   72 SFac= 1.00D+00 NAtFMM=   60 NAOKFM=T Big=T
 Integral buffers will be    131072 words long.
 Raffenetti 2 integral format.
 Two-electron integral symmetry is turned on.
 R6APFD:  NTU= -4 IXU= 1 FactS= 1.050
 Nuclear repulsion after empirical dispersion term =     5419.8400615040 Hartrees.
 One-electron integrals computed using PRISM.
   1 Symmetry operations used in ECPInt.
 ECPInt:  NShTT=  157080 NPrTT=  488567 LenC2=  125075 LenP2D=  259447.
 LDataN:  DoStor=T MaxTD1= 6 Len=  172
 Number of processors reduced to  25 by ecpmxn.
 NBasis=  1402 RedAO= T EigKep=  3.33D-06  NBF=  1402
 NBsUse=  1402 1.00D-06 EigRej= -1.00D+00 NBFU=  1402
 ExpMin= 4.20D-02 ExpMax= 3.01D+05 ExpMxC= 2.91D+03 IAcc=3 IRadAn=         5 AccDes= 0.00D+00
 Harris functional with IExCor= 3731 and IRadAn=       5 diagonalized for initial guess.
 HarFok:  IExCor= 3731 AccDes= 0.00D+00 IRadAn=         5 IDoV= 1 UseB2=F ITyADJ=14
 ICtDFT=  3500011 ScaDFX=  1.000000  1.000000  1.000000  1.000000
 FoFCou: FMM=F IPFlag=           0 FMFlag=      100000 FMFlg1=        2001
         NFxFlg=           0 DoJE=T BraDBF=F KetDBF=T FulRan=T
         wScrn=  0.000000 ICntrl=       500 IOpCl=  0 I1Cent=   200000004 NGrid=           0
         NMat0=    1 NMatS0=      1 NMatT0=    0 NMatD0=    1 NMtDS0=    0 NMtDT0=    0
 Petite list used in FoFCou.
 Requested convergence on RMS density matrix=1.00D-08 within 128 cycles.
 Requested convergence on MAX density matrix=1.00D-06.
 Requested convergence on             energy=1.00D-06.
 No special actions if energy rises.
 EnCoef did     3 forward-backward iterations
 EnCoef did   100 forward-backward iterations
 EnCoef did   100 forward-backward iterations
 EnCoef did   100 forward-backward iterations
 EnCoef did     3 forward-backward iterations
 Restarting incremental Fock formation.
 SCF Done:  E(RAPFD) =  -3157.19143363     A.U. after   27 cycles
            NFock= 27  Conv=0.23D-08     -V/T= 2.0031
 DoSCS=F DFT=T ScalE2(SS,OS)=  1.000000  1.000000
 Range of M.O.s used for correlation:     1  1402
 NBasis=  1402 NAE=   149 NBE=   149 NFC=     0 NFV=     0
 NROrb=   1402 NOA=   149 NOB=   149 NVA=  1253 NVB=  1253

 **** Warning!!: The largest alpha MO coefficient is  0.49008589D+02

          Differentiating once with respect to electric field.
                with respect to dipole field.
          Electric field/nuclear overlap derivatives assumed to be zero.
          There are     3 degrees of freedom in the 1st order CPHF.  IDoFFX=0 NUNeed=     3.
      3 vectors produced by pass  0 Test12= 6.22D-12 3.33D-08 XBig12= 1.84D+03 2.90D+01.
 AX will form     3 AO Fock derivatives at one time.
      3 vectors produced by pass  1 Test12= 6.22D-12 3.33D-08 XBig12= 1.17D+03 8.24D+00.
      3 vectors produced by pass  2 Test12= 6.22D-12 3.33D-08 XBig12= 3.93D+02 4.01D+00.
      3 vectors produced by pass  3 Test12= 6.22D-12 3.33D-08 XBig12= 1.86D+02 3.19D+00.
      3 vectors produced by pass  4 Test12= 6.22D-12 3.33D-08 XBig12= 7.86D+01 2.05D+00.
      3 vectors produced by pass  5 Test12= 6.22D-12 3.33D-08 XBig12= 4.45D+01 1.56D+00.
      3 vectors produced by pass  6 Test12= 6.22D-12 3.33D-08 XBig12= 3.83D+01 2.14D+00.
      3 vectors produced by pass  7 Test12= 6.22D-12 3.33D-08 XBig12= 2.80D+01 1.97D+00.
      3 vectors produced by pass  8 Test12= 6.22D-12 3.33D-08 XBig12= 1.38D+01 1.15D+00.
      3 vectors produced by pass  9 Test12= 6.22D-12 3.33D-08 XBig12= 9.28D+00 8.82D-01.
      3 vectors produced by pass 10 Test12= 6.22D-12 3.33D-08 XBig12= 3.72D+00 4.01D-01.
      3 vectors produced by pass 11 Test12= 6.22D-12 3.33D-08 XBig12= 2.36D+00 3.02D-01.
      3 vectors produced by pass 12 Test12= 6.22D-12 3.33D-08 XBig12= 9.77D-01 1.73D-01.
      3 vectors produced by pass 13 Test12= 6.22D-12 3.33D-08 XBig12= 3.24D-01 9.41D-02.
      3 vectors produced by pass 14 Test12= 6.22D-12 3.33D-08 XBig12= 1.12D-01 1.05D-01.
      3 vectors produced by pass 15 Test12= 6.22D-12 3.33D-08 XBig12= 2.24D-02 6.84D-02.
      3 vectors produced by pass 16 Test12= 6.22D-12 3.33D-08 XBig12= 7.57D-03 2.54D-02.
      3 vectors produced by pass 17 Test12= 6.22D-12 3.33D-08 XBig12= 1.56D-03 6.46D-03.
      3 vectors produced by pass 18 Test12= 6.22D-12 3.33D-08 XBig12= 3.97D-04 3.37D-03.
      3 vectors produced by pass 19 Test12= 6.22D-12 3.33D-08 XBig12= 6.31D-05 1.43D-03.
      3 vectors produced by pass 20 Test12= 6.22D-12 3.33D-08 XBig12= 8.93D-06 4.89D-04.
      3 vectors produced by pass 21 Test12= 6.22D-12 3.33D-08 XBig12= 1.55D-06 2.10D-04.
      3 vectors produced by pass 22 Test12= 6.22D-12 3.33D-08 XBig12= 3.16D-07 9.90D-05.
      3 vectors produced by pass 23 Test12= 6.22D-12 3.33D-08 XBig12= 7.72D-08 5.59D-05.
      3 vectors produced by pass 24 Test12= 6.22D-12 3.33D-08 XBig12= 1.23D-08 2.33D-05.
      3 vectors produced by pass 25 Test12= 6.22D-12 3.33D-08 XBig12= 3.42D-09 1.45D-05.
      3 vectors produced by pass 26 Test12= 6.22D-12 3.33D-08 XBig12= 6.54D-10 5.81D-06.
      3 vectors produced by pass 27 Test12= 6.22D-12 3.33D-08 XBig12= 8.20D-11 1.74D-06.
      3 vectors produced by pass 28 Test12= 6.22D-12 3.33D-08 XBig12= 7.18D-12 3.83D-07.
      3 vectors produced by pass 29 Test12= 6.22D-12 3.33D-08 XBig12= 1.28D-12 1.77D-07.
      1 vectors produced by pass 30 Test12= 6.22D-12 3.33D-08 XBig12= 2.07D-13 5.61D-08.
 InvSVY:  IOpt=1 It=  1 EMax= 2.84D-14
 Solved reduced A of dimension    91 with     3 vectors.
 Isotropic polarizability for W=    0.000000      542.73 Bohr**3.
 End of Minotr F.D. properties file   721 does not exist.
 End of Minotr F.D. properties file   722 does not exist.
 End of Minotr F.D. properties file   788 does not exist.

 **********************************************************************

            Population analysis using the SCF Density.

 **********************************************************************

 Orbital symmetries:
       Occupied  (A) (A) (A) (A) (A) (A) (A) (A) (A) (A) (A) (A)
                 (A) (A) (A) (A) (A) (A) (A) (A) (A) (A) (A) (A)
                 (A) (A) (A) (A) (A) (A) (A) (A) (A) (A) (A) (A)
                 (A) (A) (A) (A) (A) (A) (A) (A) (A) (A) (A) (A)
                 (A) (A) (A) (A) (A) (A) (A) (A) (A) (A) (A) (A)
                 (A) (A) (A) (A) (A) (A) (A) (A) (A) (A) (A) (A)
                 (A) (A) (A) (A) (A) (A) (A) (A) (A) (A) (A) (A)
                 (A) (A) (A) (A) (A) (A) (A) (A) (A) (A) (A) (A)
                 (A) (A) (A) (A) (A) (A) (A) (A) (A) (A) (A) (A)
                 (A) (A) (A) (A) (A) (A) (A) (A) (A) (A) (A) (A)
                 (A) (A) (A) (A) (A) (A) (A) (A) (A) (A) (A) (A)
                 (A) (A) (A) (A) (A) (A) (A) (A) (A) (A) (A) (A)
                 (A) (A) (A) (A) (A)
       Virtual   (A) (A) (A) (A) (A) (A) (A) (A) (A) (A) (A) (A)
                 (A) (A) (A) (A) (A) (A) (A) (A) (A) (A) (A) (A)
                 (A) (A) (A) (A) (A) (A) (A) (A) (A) (A) (A) (A)
                 (A) (A) (A) (A) (A) (A) (A) (A) (A) (A) (A) (A)
                 (A) (A) (A) (A) (A) (A) (A) (A) (A) (A) (A) (A)
                 (A) (A) (A) (A) (A) (A) (A) (A) (A) (A) (A) (A)
                 (A) (A) (A) (A) (A) (A) (A) (A) (A) (A) (A) (A)
                 (A) (A) (A) (A) (A) (A) (A) (A) (A) (A) (A) (A)
                 (A) (A) (A) (A) (A) (A) (A) (A) (A) (A) (A) (A)
                 (A) (A) (A) (A) (A) (A) (A) (A) (A) (A) (A) (A)
                 (A) (A) (A) (A) (A) (A) (A) (A) (A) (A) (A) (A)
                 (A) (A) (A) (A) (A) (A) (A) (A) (A) (A) (A) (A)
                 (A) (A) (A) (A) (A) (A) (A) (A) (A) (A) (A) (A)
                 (A) (A) (A) (A) (A) (A) (A) (A) (A) (A) (A) (A)
                 (A) (A) (A) (A) (A) (A) (A) (A) (A) (A) (A) (A)
                 (A) (A) (A) (A) (A) (A) (A) (A) (A) (A) (A) (A)
                 (A) (A) (A) (A) (A) (A) (A) (A) (A) (A) (A) (A)
                 (A) (A) (A) (A) (A) (A) (A) (A) (A) (A) (A) (A)
                 (A) (A) (A) (A) (A) (A) (A) (A) (A) (A) (A) (A)
                 (A) (A) (A) (A) (A) (A) (A) (A) (A) (A) (A) (A)
                 (A) (A) (A) (A) (A) (A) (A) (A) (A) (A) (A) (A)
                 (A) (A) (A) (A) (A) (A) (A) (A) (A) (A) (A) (A)
                 (A) (A) (A) (A) (A) (A) (A) (A) (A) (A) (A) (A)
                 (A) (A) (A) (A) (A) (A) (A) (A) (A) (A) (A) (A)
                 (A) (A) (A) (A) (A) (A) (A) (A) (A) (A) (A) (A)
                 (A) (A) (A) (A) (A) (A) (A) (A) (A) (A) (A) (A)
                 (A) (A) (A) (A) (A) (A) (A) (A) (A) (A) (A) (A)
                 (A) (A) (A) (A) (A) (A) (A) (A) (A) (A) (A) (A)
                 (A) (A) (A) (A) (A) (A) (A) (A) (A) (A) (A) (A)
                 (A) (A) (A) (A) (A) (A) (A) (A) (A) (A) (A) (A)
                 (A) (A) (A) (A) (A) (A) (A) (A) (A) (A) (A) (A)
                 (A) (A) (A) (A) (A) (A) (A) (A) (A) (A) (A) (A)
                 (A) (A) (A) (A) (A) (A) (A) (A) (A) (A) (A) (A)
                 (A) (A) (A) (A) (A) (A) (A) (A) (A) (A) (A) (A)
                 (A) (A) (A) (A) (A) (A) (A) (A) (A) (A) (A) (A)
                 (A) (A) (A) (A) (A) (A) (A) (A) (A) (A) (A) (A)
                 (A) (A) (A) (A) (A) (A) (A) (A) (A) (A) (A) (A)
                 (A) (A) (A) (A) (A) (A) (A) (A) (A) (A) (A) (A)
                 (A) (A) (A) (A) (A) (A) (A) (A) (A) (A) (A) (A)
                 (A) (A) (A) (A) (A) (A) (A) (A) (A) (A) (A) (A)
                 (A) (A) (A) (A) (A) (A) (A) (A) (A) (A) (A) (A)
                 (A) (A) (A) (A) (A) (A) (A) (A) (A) (A) (A) (A)
                 (A) (A) (A) (A) (A) (A) (A) (A) (A) (A) (A) (A)
                 (A) (A) (A) (A) (A) (A) (A) (A) (A) (A) (A) (A)
                 (A) (A) (A) (A) (A) (A) (A) (A) (A) (A) (A) (A)
                 (A) (A) (A) (A) (A) (A) (A) (A) (A) (A) (A) (A)
                 (A) (A) (A) (A) (A) (A) (A) (A) (A) (A) (A) (A)
                 (A) (A) (A) (A) (A) (A) (A) (A) (A) (A) (A) (A)
                 (A) (A) (A) (A) (A) (A) (A) (A) (A) (A) (A) (A)
                 (A) (A) (A) (A) (A) (A) (A) (A) (A) (A) (A) (A)
                 (A) (A) (A) (A) (A) (A) (A) (A) (A) (A) (A) (A)
                 (A) (A) (A) (A) (A) (A) (A) (A) (A) (A) (A) (A)
                 (A) (A) (A) (A) (A) (A) (A) (A) (A) (A) (A) (A)
                 (A) (A) (A) (A) (A) (A) (A) (A) (A) (A) (A) (A)
                 (A) (A) (A) (A) (A) (A) (A) (A) (A) (A) (A) (A)
                 (A) (A) (A) (A) (A) (A) (A) (A) (A) (A) (A) (A)
                 (A) (A) (A) (A) (A) (A) (A) (A) (A) (A) (A) (A)
                 (A) (A) (A) (A) (A) (A) (A) (A) (A) (A) (A) (A)
                 (A) (A) (A) (A) (A) (A) (A) (A) (A) (A) (A) (A)
                 (A) (A) (A) (A) (A) (A) (A) (A) (A) (A) (A) (A)
                 (A) (A) (A) (A) (A) (A) (A) (A) (A) (A) (A) (A)
                 (A) (A) (A) (A) (A) (A) (A) (A) (A) (A) (A) (A)
                 (A) (A) (A) (A) (A) (A) (A) (A) (A) (A) (A) (A)
                 (A) (A) (A) (A) (A) (A) (A) (A) (A) (A) (A) (A)
                 (A) (A) (A) (A) (A) (A) (A) (A) (A) (A) (A) (A)
                 (A) (A) (A) (A) (A) (A) (A) (A) (A) (A) (A) (A)
                 (A) (A) (A) (A) (A) (A) (A) (A) (A) (A) (A) (A)
                 (A) (A) (A) (A) (A) (A) (A) (A) (A) (A) (A) (A)
                 (A) (A) (A) (A) (A) (A) (A) (A) (A) (A) (A) (A)
                 (A) (A) (A) (A) (A) (A) (A) (A) (A) (A) (A) (A)
                 (A) (A) (A) (A) (A) (A) (A) (A) (A) (A) (A) (A)
                 (A) (A) (A) (A) (A) (A) (A) (A) (A) (A) (A) (A)
                 (A) (A) (A) (A) (A) (A) (A) (A) (A) (A) (A) (A)
                 (A) (A) (A) (A) (A) (A) (A) (A) (A) (A) (A) (A)
                 (A) (A) (A) (A) (A) (A) (A) (A) (A) (A) (A) (A)
                 (A) (A) (A) (A) (A) (A) (A) (A) (A) (A) (A) (A)
                 (A) (A) (A) (A) (A) (A) (A) (A) (A) (A) (A) (A)
                 (A) (A) (A) (A) (A) (A) (A) (A) (A) (A) (A) (A)
                 (A) (A) (A) (A) (A) (A) (A) (A) (A) (A) (A) (A)
                 (A) (A) (A) (A) (A) (A) (A) (A) (A) (A) (A) (A)
                 (A) (A) (A) (A) (A) (A) (A) (A) (A) (A) (A) (A)
                 (A) (A) (A) (A) (A) (A) (A) (A) (A) (A) (A) (A)
                 (A) (A) (A) (A) (A) (A) (A) (A) (A) (A) (A) (A)
                 (A) (A) (A) (A) (A) (A) (A) (A) (A) (A) (A) (A)
                 (A) (A) (A) (A) (A) (A) (A) (A) (A) (A) (A) (A)
                 (A) (A) (A) (A) (A) (A) (A) (A) (A) (A) (A) (A)
                 (A) (A) (A) (A) (A) (A) (A) (A) (A) (A) (A) (A)
                 (A) (A) (A) (A) (A) (A) (A) (A) (A) (A) (A) (A)
                 (A) (A) (A) (A) (A) (A) (A) (A) (A) (A) (A) (A)
                 (A) (A) (A) (A) (A) (A) (A) (A) (A) (A) (A) (A)
                 (A) (A) (A) (A) (A) (A) (A) (A) (A) (A) (A) (A)
                 (A) (A) (A) (A) (A) (A) (A) (A) (A) (A) (A) (A)
                 (A) (A) (A) (A) (A) (A) (A) (A) (A) (A) (A) (A)
                 (A) (A) (A) (A) (A) (A) (A) (A) (A) (A) (A) (A)
                 (A) (A) (A) (A) (A) (A) (A) (A) (A) (A) (A) (A)
                 (A) (A) (A) (A) (A) (A) (A) (A) (A) (A) (A) (A)
                 (A) (A) (A) (A) (A) (A) (A) (A) (A) (A) (A) (A)
                 (A) (A) (A) (A) (A) (A) (A) (A) (A) (A) (A) (A)
                 (A) (A) (A) (A) (A) (A) (A) (A) (A) (A) (A) (A)
                 (A) (A) (A) (A) (A) (A) (A) (A) (A) (A) (A) (A)
                 (A) (A) (A) (A) (A) (A) (A) (A) (A) (A) (A) (A)
                 (A) (A) (A) (A) (A) (A) (A) (A) (A) (A) (A) (A)
                 (A) (A) (A) (A) (A) (A) (A) (A) (A) (A) (A) (A)
                 (A) (A) (A) (A) (A) (A) (A) (A) (A) (A) (A) (A)
                 (A) (A) (A) (A) (A)
 The electronic state is 1-A.
 Alpha  occ. eigenvalues -- -256.18841 -88.96218 -30.03743 -25.87931 -25.87545
 Alpha  occ. eigenvalues --  -25.87451 -19.17843 -14.34108 -14.33964 -14.33898
 Alpha  occ. eigenvalues --  -14.33557 -10.21885 -10.21488 -10.21467 -10.21458
 Alpha  occ. eigenvalues --  -10.21427 -10.21424 -10.21266 -10.21121 -10.20945
 Alpha  occ. eigenvalues --  -10.19966 -10.19935 -10.19449 -10.19344 -10.19271
 Alpha  occ. eigenvalues --  -10.19268 -10.19219 -10.19162 -10.18978 -10.18966
 Alpha  occ. eigenvalues --  -10.18962 -10.18897 -10.18884 -10.18788 -10.18784
 Alpha  occ. eigenvalues --  -10.18768 -10.18747 -10.18704 -10.18637 -10.18537
 Alpha  occ. eigenvalues --  -10.18507 -10.18443  -7.98980  -5.93548  -5.93261
 Alpha  occ. eigenvalues --   -5.92769  -3.41396  -2.18131  -2.17267  -2.17098
 Alpha  occ. eigenvalues --   -1.05689  -0.97501  -0.96691  -0.96363  -0.95531
 Alpha  occ. eigenvalues --   -0.82749  -0.82274  -0.81901  -0.81278  -0.80724
 Alpha  occ. eigenvalues --   -0.80213  -0.80083  -0.79994  -0.77265  -0.76225
 Alpha  occ. eigenvalues --   -0.74645  -0.74414  -0.73482  -0.71315  -0.70355
 Alpha  occ. eigenvalues --   -0.68758  -0.68316  -0.68155  -0.66310  -0.64705
 Alpha  occ. eigenvalues --   -0.64477  -0.61390  -0.61236  -0.60365  -0.58049
 Alpha  occ. eigenvalues --   -0.57096  -0.54972  -0.54605  -0.53748  -0.52497
 Alpha  occ. eigenvalues --   -0.51544  -0.51213  -0.50871  -0.49045  -0.48203
 Alpha  occ. eigenvalues --   -0.47769  -0.46612  -0.46488  -0.45642  -0.45145
 Alpha  occ. eigenvalues --   -0.44991  -0.44479  -0.44243  -0.43956  -0.43721
 Alpha  occ. eigenvalues --   -0.43545  -0.43095  -0.43087  -0.42480  -0.41964
 Alpha  occ. eigenvalues --   -0.41941  -0.41801  -0.41479  -0.40978  -0.40602
 Alpha  occ. eigenvalues --   -0.40511  -0.40145  -0.39890  -0.39789  -0.39715
 Alpha  occ. eigenvalues --   -0.39496  -0.39025  -0.38814  -0.38220  -0.37936
 Alpha  occ. eigenvalues --   -0.37655  -0.37582  -0.36737  -0.36441  -0.36345
 Alpha  occ. eigenvalues --   -0.35717  -0.35049  -0.34857  -0.34520  -0.34320
 Alpha  occ. eigenvalues --   -0.34177  -0.32207  -0.31817  -0.30655  -0.30232
 Alpha  occ. eigenvalues --   -0.29816  -0.29020  -0.28160  -0.27296  -0.26904
 Alpha  occ. eigenvalues --   -0.24995  -0.24202  -0.23178  -0.22596  -0.20319
 Alpha  occ. eigenvalues --   -0.19106  -0.18973  -0.18748  -0.18337
 Alpha virt. eigenvalues --   -0.07025  -0.06855  -0.02237  -0.01043   0.00125
 Alpha virt. eigenvalues --    0.01269   0.01657   0.03113   0.04009   0.04338
 Alpha virt. eigenvalues --    0.04792   0.05037   0.05152   0.05864   0.06048
 Alpha virt. eigenvalues --    0.06891   0.07289   0.07770   0.08025   0.08378
 Alpha virt. eigenvalues --    0.08662   0.08970   0.09653   0.10034   0.10198
 Alpha virt. eigenvalues --    0.10453   0.10591   0.11030   0.11109   0.11396
 Alpha virt. eigenvalues --    0.11576   0.11845   0.12484   0.12708   0.12841
 Alpha virt. eigenvalues --    0.13081   0.13425   0.13499   0.13809   0.14189
 Alpha virt. eigenvalues --    0.14218   0.14540   0.14668   0.14927   0.15063
 Alpha virt. eigenvalues --    0.15156   0.15587   0.15865   0.16114   0.16385
 Alpha virt. eigenvalues --    0.16553   0.16847   0.17070   0.17248   0.17485
 Alpha virt. eigenvalues --    0.17637   0.18156   0.18749   0.18948   0.19365
 Alpha virt. eigenvalues --    0.19500   0.19616   0.19817   0.20252   0.20375
 Alpha virt. eigenvalues --    0.20773   0.21088   0.21229   0.21961   0.22165
 Alpha virt. eigenvalues --    0.22316   0.22412   0.22897   0.23254   0.23707
 Alpha virt. eigenvalues --    0.23761   0.24392   0.24768   0.25145   0.25272
 Alpha virt. eigenvalues --    0.25449   0.25775   0.25977   0.26186   0.26864
 Alpha virt. eigenvalues --    0.27116   0.27138   0.27718   0.27781   0.28439
 Alpha virt. eigenvalues --    0.28660   0.28686   0.28991   0.29187   0.29367
 Alpha virt. eigenvalues --    0.29541   0.29737   0.30140   0.30349   0.30588
 Alpha virt. eigenvalues --    0.30777   0.31226   0.31388   0.32049   0.32296
 Alpha virt. eigenvalues --    0.32578   0.32701   0.32986   0.33052   0.33463
 Alpha virt. eigenvalues --    0.33859   0.34054   0.34928   0.35028   0.35205
 Alpha virt. eigenvalues --    0.35845   0.36327   0.36498   0.36585   0.36808
 Alpha virt. eigenvalues --    0.37274   0.37365   0.37919   0.38078   0.38260
 Alpha virt. eigenvalues --    0.38555   0.38881   0.39145   0.39414   0.39710
 Alpha virt. eigenvalues --    0.39892   0.40219   0.40515   0.40605   0.40723
 Alpha virt. eigenvalues --    0.40935   0.41033   0.41173   0.41556   0.41667
 Alpha virt. eigenvalues --    0.42410   0.42619   0.42765   0.42801   0.43020
 Alpha virt. eigenvalues --    0.43420   0.43491   0.44043   0.44116   0.44348
 Alpha virt. eigenvalues --    0.44467   0.44992   0.45075   0.45295   0.45449
 Alpha virt. eigenvalues --    0.45815   0.45894   0.46405   0.46521   0.46698
 Alpha virt. eigenvalues --    0.46994   0.47271   0.47463   0.47863   0.48012
 Alpha virt. eigenvalues --    0.48237   0.48449   0.48569   0.48755   0.48895
 Alpha virt. eigenvalues --    0.49172   0.49517   0.49866   0.50257   0.50515
 Alpha virt. eigenvalues --    0.50768   0.50944   0.50970   0.51319   0.51737
 Alpha virt. eigenvalues --    0.51900   0.52040   0.52226   0.52416   0.52732
 Alpha virt. eigenvalues --    0.52852   0.53220   0.53486   0.53790   0.53851
 Alpha virt. eigenvalues --    0.54171   0.54341   0.54663   0.55619   0.55651
 Alpha virt. eigenvalues --    0.55884   0.56276   0.56355   0.56671   0.57002
 Alpha virt. eigenvalues --    0.57159   0.57688   0.58081   0.58617   0.58710
 Alpha virt. eigenvalues --    0.59103   0.59571   0.59728   0.59768   0.60410
 Alpha virt. eigenvalues --    0.60604   0.61247   0.61324   0.62066   0.62227
 Alpha virt. eigenvalues --    0.62386   0.62961   0.63307   0.63557   0.63926
 Alpha virt. eigenvalues --    0.64074   0.64247   0.64828   0.65350   0.65565
 Alpha virt. eigenvalues --    0.65920   0.65978   0.66264   0.66563   0.66897
 Alpha virt. eigenvalues --    0.67181   0.67365   0.67556   0.68178   0.68421
 Alpha virt. eigenvalues --    0.68735   0.69350   0.69701   0.69889   0.70794
 Alpha virt. eigenvalues --    0.70914   0.71419   0.71521   0.71565   0.71930
 Alpha virt. eigenvalues --    0.72303   0.72533   0.73008   0.73142   0.73595
 Alpha virt. eigenvalues --    0.73931   0.74121   0.74665   0.74709   0.75439
 Alpha virt. eigenvalues --    0.75603   0.76024   0.76223   0.76644   0.77342
 Alpha virt. eigenvalues --    0.77420   0.77942   0.78382   0.78825   0.79224
 Alpha virt. eigenvalues --    0.79467   0.79549   0.80019   0.80387   0.80764
 Alpha virt. eigenvalues --    0.81043   0.81536   0.81846   0.82285   0.83322
 Alpha virt. eigenvalues --    0.83336   0.83756   0.84014   0.84365   0.85500
 Alpha virt. eigenvalues --    0.85621   0.85857   0.86074   0.86498   0.87059
 Alpha virt. eigenvalues --    0.87135   0.87836   0.88193   0.88816   0.89371
 Alpha virt. eigenvalues --    0.89611   0.90305   0.90768   0.90945   0.91250
 Alpha virt. eigenvalues --    0.91494   0.92239   0.92368   0.92639   0.93157
 Alpha virt. eigenvalues --    0.93365   0.93849   0.94142   0.94559   0.95034
 Alpha virt. eigenvalues --    0.95516   0.95905   0.96335   0.96701   0.97190
 Alpha virt. eigenvalues --    0.97384   0.98085   0.98289   0.98878   0.99009
 Alpha virt. eigenvalues --    0.99424   0.99829   1.00013   1.00594   1.00972
 Alpha virt. eigenvalues --    1.01423   1.01553   1.01719   1.02003   1.02161
 Alpha virt. eigenvalues --    1.02487   1.02713   1.03360   1.03603   1.03830
 Alpha virt. eigenvalues --    1.04020   1.04542   1.04715   1.04903   1.05044
 Alpha virt. eigenvalues --    1.05652   1.06615   1.07115   1.07404   1.07966
 Alpha virt. eigenvalues --    1.08448   1.08608   1.08710   1.09064   1.09569
 Alpha virt. eigenvalues --    1.09903   1.10081   1.10743   1.11556   1.12410
 Alpha virt. eigenvalues --    1.12902   1.13342   1.14171   1.14416   1.15490
 Alpha virt. eigenvalues --    1.16089   1.16573   1.17140   1.17287   1.17500
 Alpha virt. eigenvalues --    1.18469   1.18556   1.19329   1.19628   1.20054
 Alpha virt. eigenvalues --    1.20076   1.20546   1.21113   1.21448   1.21725
 Alpha virt. eigenvalues --    1.22489   1.22983   1.23948   1.24716   1.24873
 Alpha virt. eigenvalues --    1.25168   1.25447   1.25852   1.26242   1.26559
 Alpha virt. eigenvalues --    1.27344   1.27492   1.27561   1.28253   1.28501
 Alpha virt. eigenvalues --    1.28604   1.29056   1.29332   1.29969   1.30509
 Alpha virt. eigenvalues --    1.31099   1.31278   1.31668   1.31990   1.32517
 Alpha virt. eigenvalues --    1.33714   1.34111   1.35079   1.35503   1.36662
 Alpha virt. eigenvalues --    1.37074   1.37542   1.38378   1.38973   1.39227
 Alpha virt. eigenvalues --    1.39580   1.41007   1.41261   1.41992   1.42606
 Alpha virt. eigenvalues --    1.42810   1.43541   1.44135   1.44869   1.45208
 Alpha virt. eigenvalues --    1.45512   1.46217   1.46478   1.46823   1.47081
 Alpha virt. eigenvalues --    1.47468   1.48430   1.48919   1.49003   1.49236
 Alpha virt. eigenvalues --    1.49728   1.50247   1.50535   1.50883   1.51096
 Alpha virt. eigenvalues --    1.51302   1.51554   1.51903   1.52201   1.52685
 Alpha virt. eigenvalues --    1.52857   1.53081   1.53497   1.53742   1.53972
 Alpha virt. eigenvalues --    1.54181   1.54539   1.54709   1.54852   1.54956
 Alpha virt. eigenvalues --    1.55267   1.55463   1.55738   1.55986   1.56193
 Alpha virt. eigenvalues --    1.56475   1.56727   1.57183   1.57253   1.57645
 Alpha virt. eigenvalues --    1.58161   1.58432   1.58614   1.59045   1.59296
 Alpha virt. eigenvalues --    1.59547   1.59930   1.60778   1.60977   1.61166
 Alpha virt. eigenvalues --    1.61719   1.61794   1.62119   1.62416   1.62670
 Alpha virt. eigenvalues --    1.63219   1.63582   1.63937   1.64219   1.64762
 Alpha virt. eigenvalues --    1.64912   1.65084   1.65769   1.66201   1.66274
 Alpha virt. eigenvalues --    1.66472   1.67014   1.67485   1.67768   1.67839
 Alpha virt. eigenvalues --    1.68186   1.68904   1.69359   1.69890   1.70099
 Alpha virt. eigenvalues --    1.70364   1.70633   1.70920   1.71277   1.71511
 Alpha virt. eigenvalues --    1.72160   1.72828   1.73124   1.73252   1.73861
 Alpha virt. eigenvalues --    1.74228   1.74837   1.75138   1.75343   1.75924
 Alpha virt. eigenvalues --    1.76422   1.77168   1.78048   1.78315   1.78589
 Alpha virt. eigenvalues --    1.79185   1.79268   1.79733   1.80825   1.81120
 Alpha virt. eigenvalues --    1.81584   1.81881   1.82509   1.83145   1.83421
 Alpha virt. eigenvalues --    1.83992   1.84186   1.84848   1.85391   1.86366
 Alpha virt. eigenvalues --    1.86544   1.86720   1.86894   1.88144   1.88752
 Alpha virt. eigenvalues --    1.88942   1.89256   1.89787   1.89835   1.90433
 Alpha virt. eigenvalues --    1.90858   1.91288   1.92069   1.92254   1.92795
 Alpha virt. eigenvalues --    1.94030   1.94315   1.94629   1.95218   1.95568
 Alpha virt. eigenvalues --    1.96355   1.96822   1.97644   1.97886   1.98688
 Alpha virt. eigenvalues --    1.98728   1.98972   1.98985   1.99776   2.00051
 Alpha virt. eigenvalues --    2.00367   2.00906   2.01208   2.01992   2.02042
 Alpha virt. eigenvalues --    2.02503   2.02723   2.03683   2.04311   2.04819
 Alpha virt. eigenvalues --    2.05696   2.06264   2.06651   2.07197   2.07449
 Alpha virt. eigenvalues --    2.08034   2.08367   2.08998   2.09231   2.10050
 Alpha virt. eigenvalues --    2.10475   2.11102   2.11930   2.12392   2.12587
 Alpha virt. eigenvalues --    2.13101   2.14192   2.14621   2.15163   2.15413
 Alpha virt. eigenvalues --    2.15488   2.16230   2.17468   2.17784   2.18163
 Alpha virt. eigenvalues --    2.18608   2.18985   2.19545   2.20474   2.20701
 Alpha virt. eigenvalues --    2.21353   2.21774   2.22512   2.22945   2.23362
 Alpha virt. eigenvalues --    2.23544   2.23981   2.24798   2.25304   2.25710
 Alpha virt. eigenvalues --    2.26079   2.26228   2.27297   2.27701   2.28389
 Alpha virt. eigenvalues --    2.28831   2.29433   2.29975   2.30155   2.30913
 Alpha virt. eigenvalues --    2.31291   2.31593   2.31796   2.32479   2.32672
 Alpha virt. eigenvalues --    2.33310   2.33650   2.34214   2.34418   2.34844
 Alpha virt. eigenvalues --    2.35727   2.35967   2.36376   2.36951   2.37229
 Alpha virt. eigenvalues --    2.37420   2.37539   2.38137   2.38681   2.39464
 Alpha virt. eigenvalues --    2.39494   2.39942   2.40105   2.40456   2.40564
 Alpha virt. eigenvalues --    2.41043   2.41889   2.42593   2.43068   2.43601
 Alpha virt. eigenvalues --    2.44007   2.44144   2.45272   2.45811   2.46300
 Alpha virt. eigenvalues --    2.46792   2.47279   2.47554   2.48251   2.48495
 Alpha virt. eigenvalues --    2.48863   2.49231   2.49453   2.49968   2.50845
 Alpha virt. eigenvalues --    2.51618   2.52174   2.52895   2.52975   2.53389
 Alpha virt. eigenvalues --    2.53973   2.54383   2.55185   2.55471   2.55750
 Alpha virt. eigenvalues --    2.56120   2.56419   2.56646   2.56985   2.57337
 Alpha virt. eigenvalues --    2.57605   2.57895   2.58211   2.58882   2.59181
 Alpha virt. eigenvalues --    2.59650   2.59987   2.60397   2.60775   2.60947
 Alpha virt. eigenvalues --    2.61263   2.61841   2.61982   2.62606   2.62890
 Alpha virt. eigenvalues --    2.63358   2.63622   2.63883   2.64726   2.64891
 Alpha virt. eigenvalues --    2.65501   2.66037   2.66996   2.67281   2.67609
 Alpha virt. eigenvalues --    2.67966   2.68477   2.68787   2.69248   2.69665
 Alpha virt. eigenvalues --    2.70337   2.71080   2.71458   2.71682   2.71966
 Alpha virt. eigenvalues --    2.72565   2.73039   2.73930   2.74098   2.75118
 Alpha virt. eigenvalues --    2.75722   2.75917   2.76017   2.76928   2.77166
 Alpha virt. eigenvalues --    2.77816   2.77959   2.78497   2.78995   2.79452
 Alpha virt. eigenvalues --    2.79747   2.80035   2.80290   2.80510   2.81483
 Alpha virt. eigenvalues --    2.81728   2.82315   2.82567   2.83618   2.83674
 Alpha virt. eigenvalues --    2.84413   2.84548   2.84955   2.85057   2.85527
 Alpha virt. eigenvalues --    2.86295   2.86883   2.87265   2.87740   2.88025
 Alpha virt. eigenvalues --    2.88136   2.89131   2.89245   2.89437   2.89840
 Alpha virt. eigenvalues --    2.90578   2.90669   2.91190   2.91530   2.91864
 Alpha virt. eigenvalues --    2.92533   2.93206   2.93310   2.93993   2.94600
 Alpha virt. eigenvalues --    2.94748   2.95549   2.95692   2.96161   2.96565
 Alpha virt. eigenvalues --    2.96760   2.96965   2.97477   2.98198   2.98665
 Alpha virt. eigenvalues --    2.98993   2.99288   3.00111   3.00713   3.00957
 Alpha virt. eigenvalues --    3.01075   3.01118   3.02734   3.03225   3.03442
 Alpha virt. eigenvalues --    3.03797   3.04376   3.04892   3.05192   3.05619
 Alpha virt. eigenvalues --    3.06596   3.06877   3.07411   3.07789   3.07989
 Alpha virt. eigenvalues --    3.08164   3.08418   3.08941   3.09004   3.09382
 Alpha virt. eigenvalues --    3.09765   3.10364   3.10782   3.11064   3.11512
 Alpha virt. eigenvalues --    3.11607   3.11759   3.11799   3.12628   3.12730
 Alpha virt. eigenvalues --    3.13149   3.13297   3.14066   3.14572   3.14997
 Alpha virt. eigenvalues --    3.15373   3.15826   3.15863   3.16206   3.17020
 Alpha virt. eigenvalues --    3.17166   3.17652   3.18283   3.18718   3.18857
 Alpha virt. eigenvalues --    3.19611   3.20012   3.20239   3.20577   3.20748
 Alpha virt. eigenvalues --    3.21062   3.21389   3.21652   3.22003   3.22613
 Alpha virt. eigenvalues --    3.22726   3.23115   3.23647   3.24042   3.24184
 Alpha virt. eigenvalues --    3.24696   3.24818   3.25141   3.25473   3.25773
 Alpha virt. eigenvalues --    3.25895   3.26323   3.26907   3.27130   3.27510
 Alpha virt. eigenvalues --    3.27600   3.27893   3.28490   3.29026   3.29219
 Alpha virt. eigenvalues --    3.29632   3.30026   3.30197   3.30391   3.30589
 Alpha virt. eigenvalues --    3.31040   3.31085   3.31257   3.31511   3.31938
 Alpha virt. eigenvalues --    3.32066   3.32463   3.32572   3.33459   3.33661
 Alpha virt. eigenvalues --    3.34003   3.34549   3.34678   3.34956   3.35218
 Alpha virt. eigenvalues --    3.35469   3.35647   3.35922   3.36384   3.36862
 Alpha virt. eigenvalues --    3.37244   3.37305   3.37662   3.37861   3.38214
 Alpha virt. eigenvalues --    3.38361   3.38848   3.39272   3.39497   3.39986
 Alpha virt. eigenvalues --    3.40332   3.40533   3.41030   3.41111   3.41497
 Alpha virt. eigenvalues --    3.41786   3.42089   3.42637   3.42801   3.43773
 Alpha virt. eigenvalues --    3.43930   3.44554   3.44630   3.45053   3.45556
 Alpha virt. eigenvalues --    3.45787   3.45975   3.46945   3.47460   3.47858
 Alpha virt. eigenvalues --    3.48280   3.48911   3.49515   3.50026   3.50115
 Alpha virt. eigenvalues --    3.50696   3.51205   3.52147   3.52772   3.53009
 Alpha virt. eigenvalues --    3.54196   3.54815   3.54981   3.55747   3.56113
 Alpha virt. eigenvalues --    3.56618   3.57337   3.57698   3.58757   3.58834
 Alpha virt. eigenvalues --    3.59466   3.59980   3.60334   3.60751   3.61199
 Alpha virt. eigenvalues --    3.61453   3.61893   3.62360   3.62468   3.63363
 Alpha virt. eigenvalues --    3.63953   3.64873   3.65163   3.65822   3.65998
 Alpha virt. eigenvalues --    3.67282   3.67542   3.68409   3.68629   3.68703
 Alpha virt. eigenvalues --    3.68991   3.70016   3.70604   3.70647   3.71176
 Alpha virt. eigenvalues --    3.71442   3.72258   3.72750   3.73589   3.73660
 Alpha virt. eigenvalues --    3.73829   3.74161   3.74759   3.75262   3.75370
 Alpha virt. eigenvalues --    3.75896   3.76220   3.76456   3.76643   3.77828
 Alpha virt. eigenvalues --    3.78364   3.78680   3.79979   3.80219   3.81503
 Alpha virt. eigenvalues --    3.81640   3.83225   3.83947   3.84294   3.84961
 Alpha virt. eigenvalues --    3.85735   3.86109   3.87245   3.87607   3.87819
 Alpha virt. eigenvalues --    3.88792   3.89039   3.89932   3.90404   3.90852
 Alpha virt. eigenvalues --    3.91592   3.92621   3.93157   3.93479   3.94329
 Alpha virt. eigenvalues --    3.96123   3.96483   3.97518   3.98308   3.98614
 Alpha virt. eigenvalues --    3.99335   3.99516   4.00197   4.00402   4.00685
 Alpha virt. eigenvalues --    4.01182   4.02368   4.02639   4.03623   4.04084
 Alpha virt. eigenvalues --    4.04679   4.05332   4.06240   4.06559   4.07552
 Alpha virt. eigenvalues --    4.08409   4.08505   4.10060   4.10514   4.11490
 Alpha virt. eigenvalues --    4.12229   4.12601   4.13615   4.13947   4.14549
 Alpha virt. eigenvalues --    4.15199   4.16072   4.16404   4.16827   4.17324
 Alpha virt. eigenvalues --    4.17805   4.18912   4.19027   4.19693   4.19798
 Alpha virt. eigenvalues --    4.20173   4.20898   4.22044   4.22183   4.22600
 Alpha virt. eigenvalues --    4.23108   4.23748   4.24635   4.25238   4.25832
 Alpha virt. eigenvalues --    4.27244   4.27612   4.28323   4.28774   4.29907
 Alpha virt. eigenvalues --    4.30690   4.30926   4.32228   4.32312   4.32562
 Alpha virt. eigenvalues --    4.32812   4.32980   4.33563   4.34451   4.34952
 Alpha virt. eigenvalues --    4.36634   4.37023   4.38450   4.38546   4.38959
 Alpha virt. eigenvalues --    4.39794   4.40121   4.40203   4.40851   4.41257
 Alpha virt. eigenvalues --    4.42168   4.43086   4.43575   4.43746   4.44011
 Alpha virt. eigenvalues --    4.45079   4.45553   4.45619   4.46365   4.46617
 Alpha virt. eigenvalues --    4.47083   4.47901   4.48216   4.49135   4.49912
 Alpha virt. eigenvalues --    4.51194   4.52608   4.53388   4.54084   4.54543
 Alpha virt. eigenvalues --    4.55015   4.55746   4.56627   4.57582   4.58764
 Alpha virt. eigenvalues --    4.61600   4.62299   4.63561   4.65553   4.66175
 Alpha virt. eigenvalues --    4.67051   4.67607   4.68171   4.68609   4.69418
 Alpha virt. eigenvalues --    4.70081   4.71006   4.72229   4.73252   4.74086
 Alpha virt. eigenvalues --    4.75107   4.76296   4.77779   4.79646   4.80173
 Alpha virt. eigenvalues --    4.82161   4.82874   4.83612   4.83974   4.84706
 Alpha virt. eigenvalues --    4.85087   4.85816   4.86183   4.86765   4.87824
 Alpha virt. eigenvalues --    4.88761   4.90548   4.92393   4.93778   4.94086
 Alpha virt. eigenvalues --    4.94460   4.95084   4.95605   4.97597   4.98473
 Alpha virt. eigenvalues --    5.00243   5.01429   5.02616   5.03189   5.03823
 Alpha virt. eigenvalues --    5.04819   5.06124   5.06733   5.07490   5.08504
 Alpha virt. eigenvalues --    5.09608   5.09780   5.11666   5.13297   5.16117
 Alpha virt. eigenvalues --    5.16821   5.18627   5.20133   5.20662   5.21141
 Alpha virt. eigenvalues --    5.21910   5.24194   5.24887   5.25522   5.26664
 Alpha virt. eigenvalues --    5.27338   5.28044   5.28617   5.35573   5.36415
 Alpha virt. eigenvalues --    5.38055   5.38501   5.39037   5.39227   5.39627
 Alpha virt. eigenvalues --    5.39891   5.40187   5.41920   5.48328   5.48669
 Alpha virt. eigenvalues --    5.50061   5.50345   5.51450   5.52198   5.53302
 Alpha virt. eigenvalues --    5.55394   5.60359   5.60999   5.62141   5.62764
 Alpha virt. eigenvalues --    5.63513   5.65842   5.67227   5.67811   5.68680
 Alpha virt. eigenvalues --    5.73558   5.76705   5.77138   5.77860   5.79517
 Alpha virt. eigenvalues --    5.86626   5.88258   5.89074   5.92130   6.00374
 Alpha virt. eigenvalues --    6.01394   6.02011   6.11038   6.11813   6.12187
 Alpha virt. eigenvalues --    6.13398   6.18314   6.23174   6.26274   6.33641
 Alpha virt. eigenvalues --    6.34041   6.40784   6.45421   6.52509   6.53891
 Alpha virt. eigenvalues --    6.61602   6.95891   7.28258   9.06911   9.23666
 Alpha virt. eigenvalues --    9.39842  19.63067  22.33488  22.34589  22.35974
 Alpha virt. eigenvalues --   22.45965  22.46888  22.52900  22.54733  22.62372
 Alpha virt. eigenvalues --   22.62980  22.84918  22.86677  22.90687  22.93339
 Alpha virt. eigenvalues --   22.94969  22.95561  22.97234  23.04112  23.04801
 Alpha virt. eigenvalues --   23.14996  23.26619  23.29846  23.30562  23.40022
 Alpha virt. eigenvalues --   23.42528  23.51411  23.52095  23.56923  23.74270
 Alpha virt. eigenvalues --   23.79105  23.79538  23.89065  32.89887  32.91532
 Alpha virt. eigenvalues --   32.92759  33.02464  43.90039
          Condensed to atoms (all electrons):
 Mulliken charges:
               1
     1  Fe  -0.228861
     2  N   -0.100120
     3  N   -0.005059
     4  N   -0.029799
     5  N    0.013043
     6  C    0.228893
     7  C   -0.053049
     8  C   -0.021166
     9  C    0.169990
    10  C    0.197920
    11  C   -0.028077
    12  C    0.040019
    13  C    0.242080
    14  C    0.204028
    15  C   -0.095446
    16  C    0.104023
    17  C    0.233199
    18  C    0.270069
    19  C   -0.046971
    20  C   -0.055564
    21  C    0.225461
    22  C   -0.435953
    23  H    0.140646
    24  C   -0.448601
    25  H    0.132729
    26  C   -0.449526
    27  H    0.119803
    28  C   -0.486535
    29  H    0.185110
    30  C   -0.410864
    31  H    0.121529
    32  H    0.135975
    33  H    0.135584
    34  C   -0.414401
    35  H    0.138047
    36  H    0.135465
    37  H    0.121299
    38  C   -0.447165
    39  H    0.141667
    40  H    0.128381
    41  H    0.157900
    42  C   -0.210127
    43  H    0.112776
    44  C   -0.287983
    45  H    0.138702
    46  H    0.123451
    47  C   -0.402357
    48  H    0.140776
    49  H    0.133417
    50  H    0.130396
    51  C   -0.250143
    52  H    0.120295
    53  C   -0.301676
    54  H    0.149566
    55  H    0.123291
    56  C   -0.404780
    57  H    0.134320
    58  H    0.138404
    59  H    0.119344
    60  C   -0.417139
    61  H    0.120885
    62  H    0.134657
    63  H    0.135631
    64  O   -0.580482
    65  H    0.360249
    66  H    0.322832
    67  C   -0.339263
    68  H    0.161239
    69  H    0.154800
    70  H    0.146720
    71  S   -0.043206
    72  H    0.169703
 Sum of Mulliken charges =  -0.00000
 Mulliken charges with hydrogens summed into heavy atoms:
               1
     1  Fe  -0.228861
     2  N   -0.100120
     3  N   -0.005059
     4  N   -0.029799
     5  N    0.013043
     6  C    0.228893
     7  C   -0.053049
     8  C   -0.021166
     9  C    0.169990
    10  C    0.197920
    11  C   -0.028077
    12  C    0.040019
    13  C    0.242080
    14  C    0.204028
    15  C   -0.095446
    16  C    0.104023
    17  C    0.233199
    18  C    0.270069
    19  C   -0.046971
    20  C   -0.055564
    21  C    0.225461
    22  C   -0.295308
    24  C   -0.315872
    26  C   -0.329723
    28  C   -0.301425
    30  C   -0.017777
    34  C   -0.019591
    38  C   -0.019217
    42  C   -0.097351
    44  C   -0.025829
    47  C    0.002232
    51  C   -0.129848
    53  C   -0.028818
    56  C   -0.012711
    60  C   -0.025965
    64  O    0.102599
    67  C    0.123496
    71  S    0.126497
 Electronic spatial extent (au):  <R**2>=          18165.0714
 Charge=             -0.0000 electrons
 Dipole moment (field-independent basis, Debye):
    X=              0.8306    Y=              1.4428    Z=             -0.5142  Tot=              1.7424
 Quadrupole moment (field-independent basis, Debye-Ang):
   XX=           -226.1943   YY=           -220.0992   ZZ=           -230.0759
   XY=              2.4244   XZ=              4.6344   YZ=              1.0227
 Traceless Quadrupole moment (field-independent basis, Debye-Ang):
   XX=             -0.7379   YY=              5.3573   ZZ=             -4.6194
   XY=              2.4244   XZ=              4.6344   YZ=              1.0227
 Octapole moment (field-independent basis, Debye-Ang**2):
  XXX=            -24.5219  YYY=             21.6503  ZZZ=            -23.5171  XYY=             -2.2528
  XXY=             22.3498  XXZ=              7.8483  XZZ=             10.2029  YZZ=             13.3698
  YYZ=            -14.7199  XYZ=             -0.5095
 Hexadecapole moment (field-independent basis, Debye-Ang**3):
 XXXX=         -11934.3359 YYYY=         -10961.9608 ZZZZ=          -1277.2827 XXXY=             45.5767
 XXXZ=             48.9274 YYYX=             13.2369 YYYZ=             89.3025 ZZZX=             65.2307
 ZZZY=              1.3401 XXYY=          -3825.8723 XXZZ=          -2372.8713 YYZZ=          -2208.6935
 XXYZ=            -28.6038 YYXZ=              6.6224 ZZXY=             14.0426
 N-N= 5.419840061504D+03 E-N=-1.827538385000D+04  KE= 3.147462769112D+03
  Exact polarizability:     702.516      -8.565     663.078      -1.032       0.541     262.584
 Approx polarizability:    1293.118     -13.300    1249.423      -8.980      12.899     445.702

 ----------------------------------------------------------------------

 Electric dipole moment (input orientation):
 (Debye = 10**-18 statcoulomb cm , SI units = C m)
                  (au)            (Debye)         (10**-30 SI)
   Tot        0.685521D+00      0.174242D+01      0.581209D+01
   x          0.259374D-01      0.659263D-01      0.219906D+00
   y         -0.513816D+00     -0.130599D+01     -0.435631D+01
   z          0.453056D+00      0.115155D+01      0.384117D+01

 Dipole polarizability, Alpha (input orientation).
 (esu units = cm**3 , SI units = C**2 m**2 J**-1)
 Alpha(0;0):
               (au)            (10**-24 esu)      (10**-40 SI)
   iso        0.542726D+03      0.804237D+02      0.894835D+02
   aniso      0.421865D+03      0.625139D+02      0.695561D+02
   xx         0.297803D+03      0.441298D+02      0.491010D+02
   yx         0.354012D+02      0.524591D+01      0.583687D+01
   yy         0.688660D+03      0.102049D+03      0.113545D+03
   zx        -0.107822D+03     -0.159776D+02     -0.177775D+02
   zy         0.300465D+02      0.445243D+01      0.495400D+01
   zz         0.641717D+03      0.950926D+02      0.105805D+03

 First dipole hyperpolarizability, Beta (input orientation).
 ||, _|_  parallel and perpendicular components, (z) with respect to z axis,
 vector components x,y,z.  Values do not include the 1/n! factor of 1/2.
 (esu units = statvolt**-1 cm**4 , SI units = C**3 m**3 J**-2)
 Beta(0;0,0):
               (au)            (10**-30 esu)      (10**-50 SI)
   || (z)    -0.841417D+03     -0.726919D+01     -0.269789D+01
   _|_(z)    -0.280472D+03     -0.242306D+01     -0.899296D+00
   x          0.109916D+04      0.949589D+01      0.352430D+01
   y         -0.103363D+04     -0.892973D+01     -0.331418D+01
   z         -0.420709D+04     -0.363459D+02     -0.134894D+02
   ||         0.893893D+03      0.772254D+01      0.286614D+01
   xxx        0.112124D+02      0.968668D-01      0.359511D-01
   xxy       -0.114319D+03     -0.987624D+00     -0.366547D+00
   yxy        0.239857D+03      0.207218D+01      0.769068D+00
   yyy        0.169039D+03      0.146037D+01      0.542001D+00
   xxz       -0.303129D+02     -0.261880D+00     -0.971940D-01
   yxz        0.190597D+03      0.164661D+01      0.611123D+00
   yyz       -0.935601D+03     -0.808286D+01     -0.299987D+01
   zxz        0.115317D+03      0.996252D+00      0.369749D+00
   zyz       -0.399263D+03     -0.344932D+01     -0.128018D+01
   zzz       -0.436448D+03     -0.377057D+01     -0.139941D+01

 ----------------------------------------------------------------------

 Dipole orientation:
    26        -32.02120206        339.52136232        131.37213559
     7        -33.21753405        339.83604196        134.96344166
     7        -31.38065403        335.81939956        131.95339102
     7        -30.71911554        339.21027684        127.83753850
     7        -32.47037795        343.21852961        130.87767399
     6        -34.03116155        341.97794229        136.12590527
     6        -34.92304325        341.42308383        138.64672428
     6        -34.45406369        338.92576664        139.04582042
     6        -33.35195611        337.97406733        136.73592911
     6        -31.56494235        334.53926137        134.18187507
     6        -30.88116824        331.92590902        133.85436685
     6        -30.09495274        331.68430209        131.40042526
     6        -30.34290563        334.17107758        130.27905463
     6        -30.02106267        337.03926091        126.65173388
     6        -29.54921736        337.49878438        124.01126090
     6        -29.72922732        340.05485045        123.67728225
     6        -30.44672870        341.08699691        126.11224687
     6        -31.80030761        344.58996528        128.81571552
     6        -32.12964981        347.26511027        129.27897828
     6        -33.06204973        347.47061578        131.66222952
     6        -33.17547977        344.92587455        132.66085586
     6        -34.07211389        344.35506719        135.04569064
     1        -34.72139938        345.90141641        136.20494878
     6        -32.55354171        335.51224427        136.40194525
     1        -32.71361707        334.25118052        137.99582413
     6        -29.84037790        334.68454207        127.77008495
     1        -29.18830818        333.14592940        126.60162546
     6        -30.93855511        343.61194311        126.55580968
     1        -30.50773621        344.92593648        125.05854009
     6        -34.94200866        337.35881571        141.33355112
     1        -35.82685214        338.47926504        142.81056427
     1        -33.17901014        336.59087108        142.07423705
     1        -36.18537451        335.77954707        140.88161622
     6        -36.03754053        343.33119181        140.39066981
     1        -37.66735095        344.24023151        139.51954117
     1        -34.65795097        344.79363132        140.84338563
     1        -36.64498507        342.45160900        142.14516282
     6        -30.87273119        329.98712609        135.89282240
     1        -32.75931989        329.20107448        136.16997965
     1        -30.25664029        330.80706116        137.67689709
     1        -29.59784356        328.45142212        135.39877063
     6        -29.14352099        329.47726331        130.10000307
     1        -27.69724583        329.83473782        128.69475504
     6        -29.90958514        327.11774567        130.49013319
     1        -31.40073350        326.66527639        131.79683098
     1        -29.09946529        325.55321611        129.47024477
     6        -28.92202225        335.52378932        122.10712115
     1        -30.39590465        334.08623473        122.04258760
     1        -27.14544957        334.59141097        122.58054652
     1        -28.74844008        336.35870222        120.23845917
     6        -29.39728768        341.43373663        121.32929073
     1        -27.80747732        340.83267356        120.18249515
     6        -30.89437982        343.26015579        120.48590610
     1        -32.55443923        343.84948471        121.50442296
     1        -30.53754943        344.19705929        118.71353563
     6        -31.58090802        349.27913575        127.39075580
     1        -32.77371470        349.05476617        125.72621382
     1        -29.61517729        349.18301039        126.78342967
     1        -31.92429860        351.14155668        128.18716573
     6        -33.75829329        349.77910086        133.11619001
     1        -33.47565264        351.46793778        131.98138946
     1        -32.61002792        349.94068873        134.81932688
     1        -35.73721041        349.70463403        133.68354995
     8        -28.20264795        340.33471742        133.01621326
     1        -28.67920491        340.45713666        134.75728189
     1        -26.64154679        340.43169350        132.40371838
     6        -37.76879985        336.79113575        132.21750694
     1        -36.48201386        335.38412622        132.96756447
     1        -39.42489311        335.92028227        131.37659131
     1        -38.32773566        338.08442363        133.70651175
    16        -36.14695153        338.68352875        129.82686959
     1        -35.55655656        336.72106344        128.34624118

 Electric dipole moment (dipole orientation):
 (Debye = 10**-18 statcoulomb cm , SI units = C m)
                  (au)            (Debye)         (10**-30 SI)
   Tot        0.685521D+00      0.174242D+01      0.581209D+01
   x          0.000000D+00      0.000000D+00      0.000000D+00
   y          0.000000D+00      0.000000D+00      0.000000D+00
   z          0.685521D+00      0.174242D+01      0.581209D+01

 Dipole polarizability, Alpha (dipole orientation).
 (esu units = cm**3 , SI units = C**2 m**2 J**-1)
 Alpha(0;0):
               (au)            (10**-24 esu)      (10**-40 SI)
   iso        0.542726D+03      0.804237D+02      0.894835D+02
   aniso      0.421865D+03      0.625139D+02      0.695561D+02
   xx         0.307730D+03      0.456009D+02      0.507378D+02
   yx        -0.629637D+02     -0.933026D+01     -0.103813D+02
   yy         0.690020D+03      0.102250D+03      0.113769D+03
   zx        -0.109942D+03     -0.162918D+02     -0.181270D+02
   zy        -0.310862D+02     -0.460649D+01     -0.512542D+01
   zz         0.630429D+03      0.934199D+02      0.103944D+03

 First dipole hyperpolarizability, Beta (dipole orientation).
 ||, _|_  parallel and perpendicular components, (z) with respect to z axis,
 vector components x,y,z.  Values do not include the 1/n! factor of 1/2.
 (esu units = statvolt**-1 cm**4 , SI units = C**3 m**3 J**-2)
 Beta(0;0,0):
               (au)            (10**-30 esu)      (10**-50 SI)
   || (z)    -0.392823D+03     -0.339368D+01     -0.125953D+01
   _|_(z)    -0.130941D+03     -0.113123D+01     -0.419844D+00
   x          0.123974D+04      0.107104D+02      0.397506D+01
   y         -0.381856D+04     -0.329894D+02     -0.122437D+02
   z         -0.196411D+04     -0.169684D+02     -0.629766D+01
   ||         0.893893D+03      0.772254D+01      0.286614D+01
   xxx        0.876500D+01      0.757227D-01      0.281037D-01
   xxy       -0.103651D+03     -0.895465D+00     -0.332343D+00
   yxy        0.376485D+03      0.325254D+01      0.120715D+01
   yyy       -0.148307D+04     -0.128126D+02     -0.475527D+01
   xxz        0.683361D+02      0.590371D+00      0.219110D+00
   yxz       -0.102243D+03     -0.883303D+00     -0.327829D+00
   yyz        0.124250D+03      0.107342D+01      0.398390D+00
   zxz        0.279973D+02      0.241875D+00      0.897695D-01
   zyz        0.313871D+03      0.271160D+01      0.100638D+01
   zzz       -0.847291D+03     -0.731993D+01     -0.271672D+01

 ----------------------------------------------------------------------
 Unable to Open any file for archive entry.
 1\1\GINC-BGN1021\SP\RAPFD\def2TZVP\C31H34Fe1N4O1S1\BECSLEIP\24-Oct-202
 4\0\\# polar def2tzvp apfd int=(grid=ultrafine)\\5ysm_II_S\\0,1\Fe,0,-
 11.2322168488,66.4997660787,181.2508698654\N,0,-11.7899945453,65.17472
 60209,182.6556203573\N,0,-10.9153567503,64.9786352624,179.9730101164\N
 ,0,-10.6173566,67.8045277154,179.8652603202\N,0,-11.4462000001,67.9865
 215244,182.5533502956\C,0,-12.1775486584,65.4563668518,183.9280047564\
 C,0,-12.6036470176,64.2541673599,184.607392053\C,0,-12.3702614136,63.2
 255860499,183.7470619492\C,0,-11.8424014995,63.8184495506,182.53968413
 52\C,0,-10.9797419297,63.6447961213,180.2483227142\C,0,-10.6483863962,
 62.8657162778,179.083553784\C,0,-10.2840134283,63.7615246034,178.11376
 74761\C,0,-10.4150941635,65.0748886193,178.7128903456\C,0,-10.29163963
 41,67.5209045375,178.5754787331\C,0,-10.0908804876,68.7333824503,177.8
 248419599\C,0,-10.1696471571,69.7593200701,178.7254615221\C,0,-10.4909
 265697,69.1484950302,180.0007885011\C,0,-11.1208125319,69.2906716377,1
 82.3627617948\C,0,-11.2614960387,70.0407482354,183.5924206055\C,0,-11.
 70490135,69.1590149197,184.5260923307\C,0,-11.7678727265,67.8707711813
 ,183.8682866929\C,0,-12.1993505605,66.7168793738,184.4938856042\H,0,-1
 2.5054588631,66.7927230951,185.5256438861\C,0,-11.4491937397,63.096037
 3585,181.4304565266\H,0,-11.5133107075,62.0208012997,181.4909097295\C,
 0,-10.1949922341,66.2543747143,178.0290245658\H,0,-9.8875261797,66.184
 9149274,176.99706112\C,0,-10.7192704517,69.8523196876,181.1672372638\H
 ,0,-10.5095931113,70.910218903,181.1561439404\C,0,-12.5966015316,61.76
 50664162,183.9354155319\H,0,-13.0247404451,61.5636059484,184.914092913
 6\H,0,-11.6565757817,61.218293094,183.8545651366\H,0,-13.2773133735,61
 .3800467355,183.1758667303\C,0,-13.1407473527,64.2205846419,185.996432
 2978\H,0,-14.0116905987,64.8697085951,186.0849591669\H,0,-12.389051133
 9,64.5656135551,186.7071885772\H,0,-13.4347351712,63.2111908054,186.27
 33217527\C,0,-10.6206295254,61.3783419919,179.0273094945\H,0,-11.61966
 1906,60.9761023741,178.8502395331\H,0,-10.2517600792,60.9634170098,179
 .9641301268\H,0,-9.970337252,61.0480365784,178.2198899517\C,0,-9.82695
 00548,63.5130371446,176.7645397901\H,0,-9.087179727,64.2086536924,176.
 3859117075\C,0,-10.2454925558,62.5251082419,175.9804577088\H,0,-11.011
 8197887,61.8349086159,176.2878403517\H,0,-9.8517215474,62.389072753,17
 4.9870100061\C,0,-9.8152388467,68.8026774156,176.3630042701\H,0,-10.60
 87926653,68.3115453539,175.7997648533\H,0,-8.8748729752,68.3044485146,
 176.1231935191\H,0,-9.7533327255,69.8377914058,176.0371558214\C,0,-10.
 0286961481,71.176473926,178.4445639886\H,0,-9.2165218552,71.4352108363
 ,177.7732638164\C,0,-10.8206239793,72.137045951,178.9039985215\H,0,-11
 .6726148373,71.9244446251,179.5271882262\H,0,-10.6589811728,73.1713390
 193,178.6486097957\C,0,-10.9909728876,71.4999185183,183.719893617\H,0,
 -11.6569896318,72.0707805422,183.0726444064\H,0,-9.9646779747,71.72490
 31132,183.4300095955\H,0,-11.1397571658,71.8331271134,184.7439927222\C
 ,0,-12.0230505843,69.3844349633,185.9641443658\H,0,-11.8810739774,70.4
 284933021,186.2314589076\H,0,-11.380378293,68.7758772622,186.600881918
 4\H,0,-13.0586590111,69.1154441659,186.1726527288\O,0,-9.1729999999,66
 .167,182.0719999998\H,0,-9.3889999998,65.5150000001,182.739\H,0,-8.358
 9999998,66.458,181.8649999996\C,0,-14.2788360066,65.1564464355,180.578
 7040988\H,0,-13.5961804974,64.3778619078,180.2571923462\H,0,-15.179152
 8228,65.1700565402,179.9723609999\H,0,-14.5328588876,65.0136999986,181
 .623603304\S,0,-13.4520971313,66.7819926289,180.4607387936\H,0,-13.187
 3197672,66.6873646768,179.15272201\\Version=ES64L-G16RevC.02\State=1-A
 \HF=-3157.1914336\RMSD=2.284e-09\Dipole=0.0259374,-0.5138158,0.4530561
 \Polar=297.8026524,35.4011849,688.6595981,-107.8222882,30.0464828,641.
 7165499\HyperPolar=11.2124421,-114.3186015,239.8569227,169.0394054,-30
 .3128764,190.5970684,-935.6008865,115.3172956,-399.2632308,-436.448108
 7\Quadrupole=-2.3647235,0.3212669,2.0434566,4.5245924,-1.2397469,-1.65
 36363\PG=C01 [X(C31H34Fe1N4O1S1)]\\@
 The archive entry for this job was punched.


 THERE IS SOMETHING FASCINATING ABOUT SCIENCE.
 ONE GETS SUCH WHOLESALE CONJECTURE OUT OF SUCH TRIFLING INVESTMENTS.

                                                       -- MARK TWAIN
 Job cpu time:       1 days 16 hours 59 minutes 32.0 seconds.
 Elapsed time:       0 days  0 hours 35 minutes 35.3 seconds.
 File lengths (MBytes):  RWF=   1013 Int=      0 D2E=      0 Chk=    130 Scr=      1
 Normal termination of Gaussian 16 at Thu Oct 24 01:37:55 2024.
 Initial command:
 /sw/chem/gaussian/g16_C02/a100/g16/l1.exe "/local/becsleip_8058445/Gau-935500.inp" -scrdir="/local/becsleip_8058445/"
 Entering Link 1 = /sw/chem/gaussian/g16_C02/a100/g16/l1.exe PID=    937037.
  
 Copyright (c) 1988-2021, Gaussian, Inc.  All Rights Reserved.
  
 This is part of the Gaussian(R) 16 program.  It is based on
 the Gaussian(R) 09 system (copyright 2009, Gaussian, Inc.),
 the Gaussian(R) 03 system (copyright 2003, Gaussian, Inc.),
 the Gaussian(R) 98 system (copyright 1998, Gaussian, Inc.),
 the Gaussian(R) 94 system (copyright 1995, Gaussian, Inc.),
 the Gaussian 92(TM) system (copyright 1992, Gaussian, Inc.),
 the Gaussian 90(TM) system (copyright 1990, Gaussian, Inc.),
 the Gaussian 88(TM) system (copyright 1988, Gaussian, Inc.),
 the Gaussian 86(TM) system (copyright 1986, Carnegie Mellon
 University), and the Gaussian 82(TM) system (copyright 1983,
 Carnegie Mellon University). Gaussian is a federally registered
 trademark of Gaussian, Inc.
  
 This software contains proprietary and confidential information,
 including trade secrets, belonging to Gaussian, Inc.
  
 This software is provided under written license and may be
 used, copied, transmitted, or stored only in accord with that
 written license.
  
 The following legend is applicable only to US Government
 contracts under FAR:
  
                    RESTRICTED RIGHTS LEGEND
  
 Use, reproduction and disclosure by the US Government is
 subject to restrictions as set forth in subparagraphs (a)
 and (c) of the Commercial Computer Software - Restricted
 Rights clause in FAR 52.227-19.
  
 Gaussian, Inc.
 340 Quinnipiac St., Bldg. 40, Wallingford CT 06492
  
  
 ---------------------------------------------------------------
 Warning -- This program may not be used in any manner that
 competes with the business of Gaussian, Inc. or will provide
 assistance to any competitor of Gaussian, Inc.  The licensee
 of this program is prohibited from giving any competitor of
 Gaussian, Inc. access to this program.  By using this program,
 the user acknowledges that Gaussian, Inc. is engaged in the
 business of creating and licensing software in the field of
 computational chemistry and represents and warrants to the
 licensee that it is not a competitor of Gaussian, Inc. and that
 it will not use this program in any manner prohibited above.
 ---------------------------------------------------------------
  

 Cite this work as:
 Gaussian 16, Revision C.02,
 M. J. Frisch, G. W. Trucks, H. B. Schlegel, G. E. Scuseria, 
 M. A. Robb, J. R. Cheeseman, G. Scalmani, V. Barone, 
 G. A. Petersson, H. Nakatsuji, X. Li, M. Caricato, A. V. Marenich, 
 J. Bloino, B. G. Janesko, R. Gomperts, B. Mennucci, H. P. Hratchian, 
 J. V. Ortiz, A. F. Izmaylov, J. L. Sonnenberg, D. Williams-Young, 
 F. Ding, F. Lipparini, F. Egidi, J. Goings, B. Peng, A. Petrone, 
 T. Henderson, D. Ranasinghe, V. G. Zakrzewski, J. Gao, N. Rega, 
 G. Zheng, W. Liang, M. Hada, M. Ehara, K. Toyota, R. Fukuda, 
 J. Hasegawa, M. Ishida, T. Nakajima, Y. Honda, O. Kitao, H. Nakai, 
 T. Vreven, K. Throssell, J. A. Montgomery, Jr., J. E. Peralta, 
 F. Ogliaro, M. J. Bearpark, J. J. Heyd, E. N. Brothers, K. N. Kudin, 
 V. N. Staroverov, T. A. Keith, R. Kobayashi, J. Normand, 
 K. Raghavachari, A. P. Rendell, J. C. Burant, S. S. Iyengar, 
 J. Tomasi, M. Cossi, J. M. Millam, M. Klene, C. Adamo, R. Cammi, 
 J. W. Ochterski, R. L. Martin, K. Morokuma, O. Farkas, 
 J. B. Foresman, and D. J. Fox, Gaussian, Inc., Wallingford CT, 2019.
 
 ******************************************
 Gaussian 16:  ES64L-G16RevC.02  7-Dec-2021
                24-Oct-2024 
 ******************************************
 %mem=16GB
 %CPU=0-71
 SetSPE:  set environment variable "OMP_PROC_BIND" = "true"
 SetSPE:  set environment variable "OMP_PLACES" = "{0},{1},{2},{3},{4},{5},{6},{7},{8},{9},{10},{11},{12},{13},{14},{15},{16},{17},{18},{19},{20},{21},{22},{23},{24},{25},{26},{27},{28},{29},{30},{31},{32},{33},{34},{35},{36},{37},{38},{39},{40},{41},{42},{43},{44},{45},{46},{47},{48},{49},{50},{51},{52},{53},{54},{55},{56},{57},{58},{59},{60},{61},{62},{63},{64},{65},{66},{67},{68},{69},{70},{71}"
 Will use up to   72 processors via shared memory.
 %gpucpu=0,1,2,3=0,1,2,3
 Will use    4 GPUs:
 Thread  CPU   GPU
      0    0     0
      1    1     1
      2    2     2
      3    3     3
      4    4    -1
      5    5    -1
      6    6    -1
      7    7    -1
      8    8    -1
      9    9    -1
     10   10    -1
     11   11    -1
     12   12    -1
     13   13    -1
     14   14    -1
     15   15    -1
     16   16    -1
     17   17    -1
     18   18    -1
     19   19    -1
     20   20    -1
     21   21    -1
     22   22    -1
     23   23    -1
     24   24    -1
     25   25    -1
     26   26    -1
     27   27    -1
     28   28    -1
     29   29    -1
     30   30    -1
     31   31    -1
     32   32    -1
     33   33    -1
     34   34    -1
     35   35    -1
     36   36    -1
     37   37    -1
     38   38    -1
     39   39    -1
     40   40    -1
     41   41    -1
     42   42    -1
     43   43    -1
     44   44    -1
     45   45    -1
     46   46    -1
     47   47    -1
     48   48    -1
     49   49    -1
     50   50    -1
     51   51    -1
     52   52    -1
     53   53    -1
     54   54    -1
     55   55    -1
     56   56    -1
     57   57    -1
     58   58    -1
     59   59    -1
     60   60    -1
     61   61    -1
     62   62    -1
     63   63    -1
     64   64    -1
     65   65    -1
     66   66    -1
     67   67    -1
     68   68    -1
     69   69    -1
     70   70    -1
     71   71    -1
 SetGPE:  set environment variable "OMP_PROC_BIND" = "true"
 SetGPE:  set environment variable "OMP_PLACES" = "{0},{1},{2},{3},{4},{5},{6},{7},{8},{9},{10},{11},{12},{13},{14},{15},{16},{17},{18},{19},{20},{21},{22},{23},{24},{25},{26},{27},{28},{29},{30},{31},{32},{33},{34},{35},{36},{37},{38},{39},{40},{41},{42},{43},{44},{45},{46},{47},{48},{49},{50},{51},{52},{53},{54},{55},{56},{57},{58},{59},{60},{61},{62},{63},{64},{65},{66},{67},{68},{69},{70},{71}"
 %oldchk=5ysm_II_O.chk
 %chk=5ysm_II_Sn.chk
 Properties for Device   0
 Minimum vector length:                              32
 Maximum vector length:                            1024
 Number of SMPs:                                    108
 Maximum number of threads per SMP:                2048
 Number of ASync Engines:                             5
 Memory:                                           9207742464
 Properties for Device   1
 Minimum vector length:                              32
 Maximum vector length:                            1024
 Number of SMPs:                                    108
 Maximum number of threads per SMP:                2048
 Number of ASync Engines:                             5
 Memory:                                           9207742464
 Properties for Device   2
[...]
  1140. RY*(  17) C  56                  0.00001     2.63138   
  1141. RY*(  18) C  56                  0.00000     3.21413   
  1142. RY*(  19) C  56                  0.00000     2.37669   
  1143. RY*(  20) C  56                  0.00000     3.23721   
  1144. RY*(  21) C  56                  0.00000     3.62220   
  1145. RY*(  22) C  56                  0.00000     3.77423   
  1146. RY*(  23) C  56                  0.00000     3.36955   
  1147. RY*(  24) C  56                  0.00000     3.42006   
  1148. RY*(  25) C  56                  0.00000     3.84822   
  1149. RY*(  26) C  56                  0.00001     3.63347   
  1150. RY*(   1) H  57                  0.00093     0.91342   
  1151. RY*(   2) H  57                  0.00018     1.83392   
  1152. RY*(   3) H  57                  0.00006     2.07729   
  1153. RY*(   4) H  57                  0.00006     2.09276   
  1154. RY*(   5) H  57                  0.00001     2.97843   
  1155. RY*(   1) H  58                  0.00084     0.94523   
  1156. RY*(   2) H  58                  0.00018     1.85467   
  1157. RY*(   3) H  58                  0.00005     2.04651   
  1158. RY*(   4) H  58                  0.00006     2.10161   
  1159. RY*(   5) H  58                  0.00001     2.97640   
  1160. RY*(   1) H  59                  0.00073     0.86185   
  1161. RY*(   2) H  59                  0.00013     1.70325   
  1162. RY*(   3) H  59                  0.00011     2.16688   
  1163. RY*(   4) H  59                  0.00007     2.08477   
  1164. RY*(   5) H  59                  0.00001     2.99982   
  1165. RY*(   1) C  60                  0.00144     1.31439   
  1166. RY*(   2) C  60                  0.00140     1.24293   
  1167. RY*(   3) C  60                  0.00074     1.38287   
  1168. RY*(   4) C  60                  0.00014     1.07375   
  1169. RY*(   5) C  60                  0.00004     1.94267   
  1170. RY*(   6) C  60                  0.00005     1.48431   
  1171. RY*(   7) C  60                  0.00001     1.41536   
  1172. RY*(   8) C  60                  0.00001     3.10059   
  1173. RY*(   9) C  60                  0.00002     2.60431   
  1174. RY*(  10) C  60                  0.00001     2.79366   
  1175. RY*(  11) C  60                  0.00001     2.59925   
  1176. RY*(  12) C  60                  0.00000     2.24418   
  1177. RY*(  13) C  60                  0.00000     2.37840   
  1178. RY*(  14) C  60                  0.00001     2.83181   
  1179. RY*(  15) C  60                  0.00000     2.39537   
  1180. RY*(  16) C  60                  0.00001     1.75175   
  1181. RY*(  17) C  60                  0.00000    20.92813   
  1182. RY*(  18) C  60                  0.00000     3.51910   
  1183. RY*(  19) C  60                  0.00000     2.58501   
  1184. RY*(  20) C  60                  0.00000     3.23176   
  1185. RY*(  21) C  60                  0.00000     3.58055   
  1186. RY*(  22) C  60                  0.00000     3.91921   
  1187. RY*(  23) C  60                  0.00000     3.37627   
  1188. RY*(  24) C  60                  0.00000     3.37296   
  1189. RY*(  25) C  60                  0.00001     3.77190   
  1190. RY*(  26) C  60                  0.00000     3.86648   
  1191. RY*(   1) H  61                  0.00074     0.86021   
  1192. RY*(   2) H  61                  0.00013     1.70876   
  1193. RY*(   3) H  61                  0.00011     2.15877   
  1194. RY*(   4) H  61                  0.00007     2.08493   
  1195. RY*(   5) H  61                  0.00001     3.00396   
  1196. RY*(   1) H  62                  0.00092     0.90731   
  1197. RY*(   2) H  62                  0.00018     1.84521   
  1198. RY*(   3) H  62                  0.00007     2.13910   
  1199. RY*(   4) H  62                  0.00005     1.99086   
  1200. RY*(   5) H  62                  0.00001     2.97386   
  1201. RY*(   1) H  63                  0.00091     0.90321   
  1202. RY*(   2) H  63                  0.00018     1.83422   
  1203. RY*(   3) H  63                  0.00006     2.15571   
  1204. RY*(   4) H  63                  0.00005     2.00576   
  1205. RY*(   5) H  63                  0.00001     2.96776   
  1317. BD*(   1) N   2 - C   6          0.02657     0.50579   
  1318. BD*(   2) N   2 - C   6          0.63729     0.00485  1363(v),1336(v),1331(v)
                                                    288(g),182(g),702(v),145(r)
                                                    142(r),1316(r),141(r)
  1319. BD*(   1) N   2 - C   9          0.02709     0.50136   
  1320. BD*(   1) N   3 - C  10          0.02679     0.50137   
  1321. BD*(   1) N   3 - C  13          0.02567     0.50847   
  1322. BD*(   2) N   3 - C  13          0.61310     0.01018  1347(v),1340(v),151(v)
                                                    470(g),208(g),145(r),764(v)
                                                    472(g),1316(r),141(r)
  1323. BD*(   1) N   4 - C  14          0.02681     0.51174   
  1324. BD*(   1) N   4 - C  17          0.02577     0.51802   
  1325. BD*(   1) N   5 - C  18          0.02652     0.51920   
  1326. BD*(   2) N   5 - C  18          0.61440     0.01748  1354(v),1363(v),1358(v)
                                                    600(g),260(g),145(r),602(g)
                                                    1316(r),141(r),1402(r)
  1327. BD*(   1) N   5 - C  21          0.02624     0.51656   
  1328. BD*(   1) C   6 - C   7          0.03518     0.49112   
  1329. BD*(   1) C   6 - C  22          0.02130     0.57873   
  1330. BD*(   1) C   7 - C   8          0.02272     0.60420   
  1331. BD*(   2) C   7 - C   8          0.25474     0.06667  1336(v),1318(v),1372(v)
                                                    1369(v),1370(v),1349(r)
                                                    1371(v)
  1332. BD*(   1) C   7 - C  34          0.01718     0.41370   
  1333. BD*(   1) C   8 - C   9          0.03539     0.49194   
  1334. BD*(   1) C   8 - C  30          0.01728     0.41279   
  1335. BD*(   1) C   9 - C  24          0.02123     0.57724   
  1336. BD*(   2) C   9 - C  24          0.41861     0.04441  1331(v),1318(v),151(v)
                                                    733(g),1363(r),366(g),368(g)
  1337. BD*(   1) C  10 - C  11          0.03452     0.49892   
  1338. BD*(   1) C  10 - C  24          0.02154     0.57076   
  1339. BD*(   1) C  11 - C  12          0.02479     0.59214   
  1340. BD*(   2) C  11 - C  12          0.28852     0.06513  1379(v),1322(v),151(v)
                                                    1374(v),1375(v)
  1341. BD*(   1) C  11 - C  38          0.01657     0.41664   
  1342. BD*(   1) C  12 - C  13          0.03457     0.48846   
  1343. BD*(   1) C  12 - C  42          0.02669     0.49748   
  1344. BD*(   1) C  13 - C  26          0.02097     0.57984   
  1345. BD*(   1) C  14 - C  15          0.03430     0.49839   
  1346. BD*(   1) C  14 - C  26          0.02135     0.57768   
  1347. BD*(   2) C  14 - C  26          0.42330     0.04672  1322(v),1349(v),149(v)
                                                    764(g),1354(r),498(g)
  1348. BD*(   1) C  15 - C  16          0.02252     0.59317   
  1349. BD*(   2) C  15 - C  16          0.27792     0.06664  1387(v),1354(v),1347(v)
                                                    1383(v),1331(r),1382(v)
                                                    1385(v)
  1350. BD*(   1) C  15 - C  47          0.01666     0.41617   
  1351. BD*(   1) C  16 - C  17          0.03810     0.48809   
  1352. BD*(   1) C  16 - C  51          0.02677     0.49139   
  1353. BD*(   1) C  17 - C  28          0.02081     0.58095   
  1354. BD*(   2) C  17 - C  28          0.41416     0.05034  1326(v),1349(v),149(v)
                                                    1363(r),1347(r),1387(r)
                                                    796(g),574(g),576(g)
  1355. BD*(   1) C  18 - C  19          0.03503     0.49403   
  1356. BD*(   1) C  18 - C  28          0.02134     0.58443   
  1357. BD*(   1) C  19 - C  20          0.02245     0.61315   
  1358. BD*(   2) C  19 - C  20          0.24252     0.07360  1363(v),1326(v),1390(v)
                                                    1394(v),1395(v),1391(v)
  1359. BD*(   1) C  19 - C  56          0.01717     0.41912   
  1360. BD*(   1) C  20 - C  21          0.03504     0.49236   
  1361. BD*(   1) C  20 - C  60          0.01729     0.41761   
  1362. BD*(   1) C  21 - C  22          0.02086     0.58021   
  1363. BD*(   2) C  21 - C  22          0.41471     0.04892  1318(v),1358(v),1326(v)
                                                    702(g),1354(r),1336(r)
                                                    680(g)
  1364. BD*(   1) C  22 - H  23          0.01256     0.43449   
  1365. BD*(   1) C  24 - H  25          0.01295     0.43542   
  1366. BD*(   1) C  26 - H  27          0.01290     0.43535   
  1367. BD*(   1) C  28 - H  29          0.01425     0.44235   
  1368. BD*(   1) C  30 - H  31          0.00666     0.38850   
  1369. BD*(   1) C  30 - H  32          0.01097     0.37651   
  1370. BD*(   1) C  30 - H  33          0.01079     0.37755   
  1371. BD*(   1) C  34 - H  35          0.01043     0.37885   
  1372. BD*(   1) C  34 - H  36          0.01117     0.37696   
  1373. BD*(   1) C  34 - H  37          0.00668     0.38850   
  1374. BD*(   1) C  38 - H  39          0.01263     0.37686   
  1375. BD*(   1) C  38 - H  40          0.00998     0.38534   
  1376. BD*(   1) C  38 - H  41          0.00837     0.39355   
  1377. BD*(   1) C  42 - H  43          0.02122     0.42354   
  1378. BD*(   1) C  42 - C  44          0.00785     0.63107   
  1379. BD*(   2) C  42 - C  44          0.07785     0.05952   
  1380. BD*(   1) C  44 - H  45          0.01103     0.43497   
  1381. BD*(   1) C  44 - H  46          0.00859     0.43581   
  1382. BD*(   1) C  47 - H  48          0.01024     0.38165   
  1383. BD*(   1) C  47 - H  49          0.01108     0.37874   
  1384. BD*(   1) C  47 - H  50          0.00594     0.39223   
  1385. BD*(   1) C  51 - H  52          0.02223     0.42165   
  1386. BD*(   1) C  51 - C  53          0.00723     0.62290   
  1387. BD*(   2) C  51 - C  53          0.06207     0.06910   
  1388. BD*(   1) C  53 - H  54          0.01144     0.43612   
  1389. BD*(   1) C  53 - H  55          0.00905     0.43564   
  1390. BD*(   1) C  56 - H  57          0.01112     0.38311   
  1391. BD*(   1) C  56 - H  58          0.01046     0.38421   
  1392. BD*(   1) C  56 - H  59          0.00670     0.39368   
  1393. BD*(   1) C  60 - H  61          0.00673     0.39306   
  1394. BD*(   1) C  60 - H  62          0.01098     0.38157   
  1395. BD*(   1) C  60 - H  63          0.01098     0.38153   
       -------------------------------
              Total Lewis  230.21738  ( 97.2635%)
        Valence non-Lewis    5.97346  (  2.5237%)
        Rydberg non-Lewis    0.50376  (  0.2128%)
       -------------------------------
            Total unit  2  236.69460  (100.0000%)
           Charge unit  2   -0.69460
 
 Molecular unit  3  (H2O)
    81. BD (   1) O  64 - H  65          1.98934    -0.81730  145(r),156(r),1238(v),144(r)
                                                    159(r),1316(r),142(r),160(r)
                                                    234(r),186(r),237(r),164(r)
                                                    236(r),1287(r),238(r),163(r)
    82. BD (   1) O  64 - H  66          1.99539    -0.87881  145(r),156(r),1234(v),159(r)
                                                    1316(r),186(r),142(r),161(r)
                                                    185(r),158(r),144(r),157(r)
   131. CR (   1) O  64                  1.99980   -18.97234  145(r),1238(v),1234(v)
                                                    1239(v),142(r),1316(r)
                                                    144(r)
   152. LP (   1) O  64                  1.99220    -0.33853  143(r),1237(v),1233(v)
                                                    162(r),265(r),268(r),157(r)
                                                    213(r),1322(r),218(r),144(r)
   153. LP (   2) O  64                  1.83757    -0.50093  145(r),1396(g),1238(v)
                                                    1234(v),1397(g),160(r)
                                                    144(r),1316(r),163(r),164(r)
                                                    142(r),159(r),185(r),211(r)
                                                    263(r),182(r),208(r),260(r)
                                                    184(r),1290(r),234(r),210(r)
                                                    262(r),156(r),236(r),1287(r)
                                                    158(r)
  1206. RY*(   1) O  64                  0.00251     0.64093   
  1207. RY*(   2) O  64                  0.00208     1.07114   
  1208. RY*(   3) O  64                  0.00036     1.58202   
  1209. RY*(   4) O  64                  0.00027     0.80316   
  1210. RY*(   5) O  64                  0.00008     2.92057   
  1211. RY*(   6) O  64                  0.00004     2.10551   
  1212. RY*(   7) O  64                  0.00003     4.20628   
  1213. RY*(   8) O  64                  0.00000     2.80992   
  1214. RY*(   9) O  64                  0.00001     3.66043   
  1215. RY*(  10) O  64                  0.00001     2.61716   
  1216. RY*(  11) O  64                  0.00001     2.60433   
  1217. RY*(  12) O  64                  0.00000    41.80435   
  1218. RY*(  13) O  64                  0.00000     6.41097   
  1219. RY*(  14) O  64                  0.00001     3.31420   
  1220. RY*(  15) O  64                  0.00000     6.49356   
  1221. RY*(  16) O  64                  0.00000     6.37002   
  1222. RY*(  17) O  64                  0.00000     6.31708   
  1223. RY*(  18) O  64                  0.00000     2.63489   
  1224. RY*(  19) O  64                  0.00000     6.57207   
  1225. RY*(  20) O  64                  0.00000     5.34920   
  1226. RY*(  21) O  64                  0.00000     5.24649   
  1227. RY*(  22) O  64                  0.00000     5.78022   
  1228. RY*(  23) O  64                  0.00000     5.40778   
  1229. RY*(  24) O  64                  0.00000     5.37455   
  1230. RY*(  25) O  64                  0.00000     5.58101   
  1231. RY*(  26) O  64                  0.00000     5.35927   
  1232. RY*(   1) H  65                  0.00128     0.82351   
  1233. RY*(   2) H  65                  0.00079     2.02476   
  1234. RY*(   3) H  65                  0.00072     2.36739   
  1235. RY*(   4) H  65                  0.00023     2.06075   
  1236. RY*(   5) H  65                  0.00002     2.89246   
  1237. RY*(   1) H  66                  0.00098     2.01080   
  1238. RY*(   2) H  66                  0.00079     1.90980   
  1239. RY*(   3) H  66                  0.00046     1.82563   
  1240. RY*(   4) H  66                  0.00026     1.61981   
  1241. RY*(   5) H  66                  0.00001     3.01222   
  1396. BD*(   1) O  64 - H  65          0.00526     0.42536   
  1397. BD*(   1) O  64 - H  66          0.00249     0.60322   
       -------------------------------
              Total Lewis    9.81431  ( 99.8098%)
        Valence non-Lewis    0.00775  (  0.0789%)
        Rydberg non-Lewis    0.01095  (  0.1113%)
       -------------------------------
            Total unit  3    9.83301  (100.0000%)
           Charge unit  3    0.16699
 Unable to Open any file for archive entry.
 1\1\GINC-BGN1021\SP\RAPFD\def2TZVP\C31H34Fe1N4O1S1\BECSLEIP\24-Oct-202
 4\0\\# apfd/def2TZVP int=(grid=ultrafine) geom=check guess=read pop=nb
 o scf=qc\\5ysm_II_S_nbo\\0,1\Fe,0,-11.2322168488,66.4997660787,181.250
 8698654\N,0,-11.7899945453,65.1747260209,182.6556203573\N,0,-10.915356
 7503,64.9786352624,179.9730101164\N,0,-10.6173566,67.8045277154,179.86
 52603202\N,0,-11.4462000001,67.9865215244,182.5533502956\C,0,-12.17754
 86584,65.4563668518,183.9280047564\C,0,-12.6036470176,64.2541673599,18
 4.607392053\C,0,-12.3702614136,63.2255860499,183.7470619492\C,0,-11.84
 24014995,63.8184495506,182.5396841352\C,0,-10.9797419297,63.6447961213
 ,180.2483227142\C,0,-10.6483863962,62.8657162778,179.083553784\C,0,-10
 .2840134283,63.7615246034,178.1137674761\C,0,-10.4150941635,65.0748886
 193,178.7128903456\C,0,-10.2916396341,67.5209045375,178.5754787331\C,0
 ,-10.0908804876,68.7333824503,177.8248419599\C,0,-10.1696471571,69.759
 3200701,178.7254615221\C,0,-10.4909265697,69.1484950302,180.0007885011
 \C,0,-11.1208125319,69.2906716377,182.3627617948\C,0,-11.2614960387,70
 .0407482354,183.5924206055\C,0,-11.70490135,69.1590149197,184.52609233
 07\C,0,-11.7678727265,67.8707711813,183.8682866929\C,0,-12.1993505605,
 66.7168793738,184.4938856042\H,0,-12.5054588631,66.7927230951,185.5256
 438861\C,0,-11.4491937397,63.0960373585,181.4304565266\H,0,-11.5133107
 075,62.0208012997,181.4909097295\C,0,-10.1949922341,66.2543747143,178.
 0290245658\H,0,-9.8875261797,66.1849149274,176.99706112\C,0,-10.719270
 4517,69.8523196876,181.1672372638\H,0,-10.5095931113,70.910218903,181.
 1561439404\C,0,-12.5966015316,61.7650664162,183.9354155319\H,0,-13.024
 7404451,61.5636059484,184.9140929136\H,0,-11.6565757817,61.218293094,1
 83.8545651366\H,0,-13.2773133735,61.3800467355,183.1758667303\C,0,-13.
 1407473527,64.2205846419,185.9964322978\H,0,-14.0116905987,64.86970859
 51,186.0849591669\H,0,-12.3890511339,64.5656135551,186.7071885772\H,0,
 -13.4347351712,63.2111908054,186.2733217527\C,0,-10.6206295254,61.3783
 419919,179.0273094945\H,0,-11.619661906,60.9761023741,178.8502395331\H
 ,0,-10.2517600792,60.9634170098,179.9641301268\H,0,-9.970337252,61.048
 0365784,178.2198899517\C,0,-9.8269500548,63.5130371446,176.7645397901\
 H,0,-9.087179727,64.2086536924,176.3859117075\C,0,-10.2454925558,62.52
 51082419,175.9804577088\H,0,-11.0118197887,61.8349086159,176.287840351
 7\H,0,-9.8517215474,62.389072753,174.9870100061\C,0,-9.8152388467,68.8
 026774156,176.3630042701\H,0,-10.6087926653,68.3115453539,175.79976485
 33\H,0,-8.8748729752,68.3044485146,176.1231935191\H,0,-9.7533327255,69
 .8377914058,176.0371558214\C,0,-10.0286961481,71.176473926,178.4445639
 886\H,0,-9.2165218552,71.4352108363,177.7732638164\C,0,-10.8206239793,
 72.137045951,178.9039985215\H,0,-11.6726148373,71.9244446251,179.52718
 82262\H,0,-10.6589811728,73.1713390193,178.6486097957\C,0,-10.99097288
 76,71.4999185183,183.719893617\H,0,-11.6569896318,72.0707805422,183.07
 26444064\H,0,-9.9646779747,71.7249031132,183.4300095955\H,0,-11.139757
 1658,71.8331271134,184.7439927222\C,0,-12.0230505843,69.3844349633,185
 .9641443658\H,0,-11.8810739774,70.4284933021,186.2314589076\H,0,-11.38
 0378293,68.7758772622,186.6008819184\H,0,-13.0586590111,69.1154441659,
 186.1726527288\O,0,-9.1729999999,66.167,182.0719999998\H,0,-9.38899999
 98,65.5150000001,182.739\H,0,-8.3589999998,66.458,181.8649999996\C,0,-
 14.2788360066,65.1564464355,180.5787040988\H,0,-13.5961804974,64.37786
 19078,180.2571923462\H,0,-15.1791528228,65.1700565402,179.9723609999\H
 ,0,-14.5328588876,65.0136999986,181.623603304\S,0,-13.4520971313,66.78
 19926289,180.4607387936\H,0,-13.1873197672,66.6873646768,179.15272201\
 \Version=ES64L-G16RevC.02\State=1-A\HF=-3157.1914336\RMSD=7.678e-10\Di
 pole=0.0259374,-0.5138158,0.4530561\Quadrupole=-2.3647235,0.3212669,2.
 0434566,4.5245924,-1.2397469,-1.6536363\PG=C01 [X(C31H34Fe1N4O1S1)]\\@
 The archive entry for this job was punched.


 THE PROGRESS OF RIVERS TO THE SEA IS NOT AS RAPID
 AS THAT OF MAN TO ERROR.
                                              -- VOLTAIRE
 Job cpu time:       0 days  0 hours 36 minutes 24.3 seconds.
 Elapsed time:       0 days  0 hours  0 minutes 44.7 seconds.
 File lengths (MBytes):  RWF=    664 Int=      0 D2E=      0 Chk=    156 Scr=      1
 Normal termination of Gaussian 16 at Thu Oct 24 01:38:42 2024.
