 Entering Gaussian System, Link 0=g16
 Input=5zeo12.com
 Output=5zeo12.log
 Initial command:
 /sw/chem/gaussian/g16_C02/a100/g16/l1.exe "/local/becsleip_8060460/Gau-461780.inp" -scrdir="/local/becsleip_8060460/"
 Entering Link 1 = /sw/chem/gaussian/g16_C02/a100/g16/l1.exe PID=    461781.
  
 Copyright (c) 1988-2021, Gaussian, Inc.  All Rights Reserved.
  
 This is part of the Gaussian(R) 16 program.  It is based on
 the Gaussian(R) 09 system (copyright 2009, Gaussian, Inc.),
 the Gaussian(R) 03 system (copyright 2003, Gaussian, Inc.),
 the Gaussian(R) 98 system (copyright 1998, Gaussian, Inc.),
 the Gaussian(R) 94 system (copyright 1995, Gaussian, Inc.),
 the Gaussian 92(TM) system (copyright 1992, Gaussian, Inc.),
 the Gaussian 90(TM) system (copyright 1990, Gaussian, Inc.),
 the Gaussian 88(TM) system (copyright 1988, Gaussian, Inc.),
 the Gaussian 86(TM) system (copyright 1986, Carnegie Mellon
 University), and the Gaussian 82(TM) system (copyright 1983,
 Carnegie Mellon University). Gaussian is a federally registered
 trademark of Gaussian, Inc.
  
 This software contains proprietary and confidential information,
 including trade secrets, belonging to Gaussian, Inc.
  
 This software is provided under written license and may be
 used, copied, transmitted, or stored only in accord with that
 written license.
  
 The following legend is applicable only to US Government
 contracts under FAR:
  
                    RESTRICTED RIGHTS LEGEND
  
 Use, reproduction and disclosure by the US Government is
 subject to restrictions as set forth in subparagraphs (a)
 and (c) of the Commercial Computer Software - Restricted
 Rights clause in FAR 52.227-19.
  
 Gaussian, Inc.
 340 Quinnipiac St., Bldg. 40, Wallingford CT 06492
  
  
 ---------------------------------------------------------------
 Warning -- This program may not be used in any manner that
 competes with the business of Gaussian, Inc. or will provide
 assistance to any competitor of Gaussian, Inc.  The licensee
 of this program is prohibited from giving any competitor of
 Gaussian, Inc. access to this program.  By using this program,
 the user acknowledges that Gaussian, Inc. is engaged in the
 business of creating and licensing software in the field of
 computational chemistry and represents and warrants to the
 licensee that it is not a competitor of Gaussian, Inc. and that
 it will not use this program in any manner prohibited above.
 ---------------------------------------------------------------
  

 Cite this work as:
 Gaussian 16, Revision C.02,
 M. J. Frisch, G. W. Trucks, H. B. Schlegel, G. E. Scuseria, 
 M. A. Robb, J. R. Cheeseman, G. Scalmani, V. Barone, 
 G. A. Petersson, H. Nakatsuji, X. Li, M. Caricato, A. V. Marenich, 
 J. Bloino, B. G. Janesko, R. Gomperts, B. Mennucci, H. P. Hratchian, 
 J. V. Ortiz, A. F. Izmaylov, J. L. Sonnenberg, D. Williams-Young, 
 F. Ding, F. Lipparini, F. Egidi, J. Goings, B. Peng, A. Petrone, 
 T. Henderson, D. Ranasinghe, V. G. Zakrzewski, J. Gao, N. Rega, 
 G. Zheng, W. Liang, M. Hada, M. Ehara, K. Toyota, R. Fukuda, 
 J. Hasegawa, M. Ishida, T. Nakajima, Y. Honda, O. Kitao, H. Nakai, 
 T. Vreven, K. Throssell, J. A. Montgomery, Jr., J. E. Peralta, 
 F. Ogliaro, M. J. Bearpark, J. J. Heyd, E. N. Brothers, K. N. Kudin, 
 V. N. Staroverov, T. A. Keith, R. Kobayashi, J. Normand, 
 K. Raghavachari, A. P. Rendell, J. C. Burant, S. S. Iyengar, 
 J. Tomasi, M. Cossi, J. M. Millam, M. Klene, C. Adamo, R. Cammi, 
 J. W. Ochterski, R. L. Martin, K. Morokuma, O. Farkas, 
 J. B. Foresman, and D. J. Fox, Gaussian, Inc., Wallingford CT, 2019.
 
 ******************************************
 Gaussian 16:  ES64L-G16RevC.02  7-Dec-2021
                25-Oct-2024 
 ******************************************
 %mem=16GB
 %CPU=0-71
 SetSPE:  set environment variable "OMP_PROC_BIND" = "true"
 SetSPE:  set environment variable "OMP_PLACES" = "{0},{1},{2},{3},{4},{5},{6},{7},{8},{9},{10},{11},{12},{13},{14},{15},{16},{17},{18},{19},{20},{21},{22},{23},{24},{25},{26},{27},{28},{29},{30},{31},{32},{33},{34},{35},{36},{37},{38},{39},{40},{41},{42},{43},{44},{45},{46},{47},{48},{49},{50},{51},{52},{53},{54},{55},{56},{57},{58},{59},{60},{61},{62},{63},{64},{65},{66},{67},{68},{69},{70},{71}"
 Will use up to   72 processors via shared memory.
 %gpucpu=0,1,2,3=0,1,2,3
 Will use    4 GPUs:
 Thread  CPU   GPU
      0    0     0
      1    1     1
      2    2     2
      3    3     3
      4    4    -1
      5    5    -1
      6    6    -1
      7    7    -1
      8    8    -1
      9    9    -1
     10   10    -1
     11   11    -1
     12   12    -1
     13   13    -1
     14   14    -1
     15   15    -1
     16   16    -1
     17   17    -1
     18   18    -1
     19   19    -1
     20   20    -1
     21   21    -1
     22   22    -1
     23   23    -1
     24   24    -1
     25   25    -1
     26   26    -1
     27   27    -1
     28   28    -1
     29   29    -1
     30   30    -1
     31   31    -1
     32   32    -1
     33   33    -1
     34   34    -1
     35   35    -1
     36   36    -1
     37   37    -1
     38   38    -1
     39   39    -1
     40   40    -1
     41   41    -1
     42   42    -1
     43   43    -1
     44   44    -1
     45   45    -1
     46   46    -1
     47   47    -1
     48   48    -1
     49   49    -1
     50   50    -1
     51   51    -1
     52   52    -1
     53   53    -1
     54   54    -1
     55   55    -1
     56   56    -1
     57   57    -1
     58   58    -1
     59   59    -1
     60   60    -1
     61   61    -1
     62   62    -1
     63   63    -1
     64   64    -1
     65   65    -1
     66   66    -1
     67   67    -1
     68   68    -1
     69   69    -1
     70   70    -1
     71   71    -1
 SetGPE:  set environment variable "OMP_PROC_BIND" = "true"
 SetGPE:  set environment variable "OMP_PLACES" = "{0},{1},{2},{3},{4},{5},{6},{7},{8},{9},{10},{11},{12},{13},{14},{15},{16},{17},{18},{19},{20},{21},{22},{23},{24},{25},{26},{27},{28},{29},{30},{31},{32},{33},{34},{35},{36},{37},{38},{39},{40},{41},{42},{43},{44},{45},{46},{47},{48},{49},{50},{51},{52},{53},{54},{55},{56},{57},{58},{59},{60},{61},{62},{63},{64},{65},{66},{67},{68},{69},{70},{71}"
 %oldchk=5zeo_II_Sre.chk
 %chk=5zeo_III_Dn.chk
 Properties for Device   0
 Minimum vector length:                              32
 Maximum vector length:                            1024
 Number of SMPs:                                    108
 Maximum number of threads per SMP:                2048
 Number of ASync Engines:                             5
 Memory:                                           9207742464
 Properties for Device   1
 Minimum vector length:                              32
 Maximum vector length:                            1024
 Number of SMPs:                                    108
 Maximum number of threads per SMP:                2048
 Number of ASync Engines:                             5
 Memory:                                           9207742464
 Properties for Device   2
 Minimum vector length:                              32
 Maximum vector length:                            1024
 Number of SMPs:                                    108
 Maximum number of threads per SMP:                2048
 Number of ASync Engines:                             5
 Memory:                                           9207742464
 Properties for Device   3
 Minimum vector length:                              32
 Maximum vector length:                            1024
 Number of SMPs:                                    108
 Maximum number of threads per SMP:                2048
 Number of ASync Engines:                             5
 Memory:                                           9207742464
   8286968217 words of memory will be used on each GPU.
 Copying data from "5zeo_II_Sre.chk" to current chk file "5zeo_III_Dn.chk"
 IOpt=  2 FromEx=T IUOpen= 4 IOptOp= 5 NList=   0 IFRang= 0 IUIn= 4 IUOut= 2.
 --------------------------------------------------------------
 # apfd/def2TZVP guess=read scf=maxcycle=999 geom=check pop=nbo
 --------------------------------------------------------------
 1/29=2,38=1,172=1/1;
 2/12=2,40=1/2;
 3/5=44,7=101,11=2,14=-4,25=1,30=1,74=-44,116=-2/1,2,3;
 4/5=1/1;
 5/5=2,7=999,38=6/2;
 6/7=2,8=2,9=2,10=2,28=1,40=1/1,7;
 99/5=1,9=1/99;
 ----------
 5zeo_III_D
 ----------
 Structure from the checkpoint file:  "5zeo_III_Dn.chk"
 Charge =  1 Multiplicity = 2
 Z-Matrix found in chk file.
 Fe,0,5.9866208904,-5.8056509418,-8.9349149797
 N,0,5.7629722393,-7.5819300705,-8.0336093924
 N,0,5.3884589037,-4.9062318613,-7.2400387184
 N,0,6.1308551006,-4.022583335,-9.829773046
 N,0,6.4502830362,-6.7230894326,-10.6337840541
 C,0,6.0288389123,-8.8046646021,-8.5726878022
 C,0,5.8361610629,-9.8522015346,-7.5955039423
 C,0,5.4404030689,-9.2361897862,-6.4499325225
 C,0,5.4083238891,-7.8204144052,-6.7408605168
 C,0,5.1036455842,-5.4951441868,-6.0446169185
 C,0,4.8343709767,-4.5076371906,-5.0308717805
 C,0,4.9750227471,-3.2878084707,-5.635352843
 C,0,5.3155687395,-3.5646766888,-7.0171324994
 C,0,5.78222687,-2.8144114663,-9.3036968875
 C,0,5.6983936646,-1.8046485869,-10.3245454485
 C,0,5.9975137313,-2.4305582882,-11.5061176209
 C,0,6.2545288878,-3.8164124358,-11.1699168913
 C,0,6.622670562,-6.1404050071,-11.853053054
 C,0,6.791397306,-7.1401910418,-12.8830674237
 C,0,6.7268327977,-8.3460814196,-12.257669327
 C,0,6.5065242063,-8.0655286876,-10.8569690971
 C,0,6.3790724805,-9.0423084527,-9.8884845168
 H,0,6.5070184773,-10.0695959103,-10.1938842106
 C,0,5.0700465569,-6.8578811988,-5.8133209612
 H,0,4.796380535,-7.1922337272,-4.824732684
 C,0,5.5063896232,-2.5818163299,-7.9666209442
 H,0,5.3299873989,-1.56032235,-7.6658809274
 C,0,6.5856479838,-4.7825280206,-12.1018335704
 H,0,6.707444514,-4.4666623959,-13.1265508259
 C,0,5.0912030972,-9.8305853285,-5.1289235595
 H,0,5.168121342,-10.9145298876,-5.1598283231
 H,0,4.0710160311,-9.5675154935,-4.8498055147
 H,0,5.7606291571,-9.4602911941,-4.3519100759
 C,0,6.0380485505,-11.3038069726,-7.8664884457
 H,0,7.0492477902,-11.4922224266,-8.227684814
 H,0,5.3376977821,-11.6515717941,-8.626279925
 H,0,5.8819040803,-11.890247697,-6.964470702
 C,0,4.5448638,-4.8044793676,-3.6011069083
 H,0,5.1445129699,-5.6436214081,-3.2518057223
 H,0,3.4930597772,-5.0601892827,-3.4634406233
 H,0,4.7703276934,-3.9353139003,-2.9866414332
 C,0,4.8422322888,-1.9624356638,-5.0704645111
 H,0,5.5025169537,-1.2088685654,-5.4844748784
 C,0,3.9884053932,-1.6142928753,-4.1135964041
 H,0,3.2780430037,-2.3082223711,-3.6995675656
 H,0,3.9532229845,-0.6085072846,-3.7288560401
 C,0,5.3997095637,-0.3662175281,-10.0854564847
 H,0,5.8598437565,-0.0242366684,-9.1596164726
 H,0,4.3240717813,-0.2005325901,-10.0073456924
 H,0,5.782062486,0.2358764943,-10.9072992996
 C,0,6.0620577472,-1.878701254,-12.8413857493
 H,0,6.8012888013,-2.3244541467,-13.4968255237
 C,0,5.2980074032,-0.8967422656,-13.308391956
 H,0,4.5151206509,-0.4506102554,-12.7207903064
 H,0,5.4119683512,-0.5240346295,-14.3128406229
 C,0,6.9867183121,-6.8340577582,-14.3279797629
 H,0,7.8744203188,-6.2180746296,-14.4730958644
 H,0,6.1287221399,-6.2890647676,-14.7220670823
 H,0,7.1052351648,-7.7481667135,-14.9044837259
 C,0,6.8238795236,-9.7169281591,-12.8341859891
 H,0,7.6437114454,-10.2704197872,-12.37538794
 H,0,6.9983980048,-9.6735431096,-13.9062606282
 H,0,5.9019967915,-10.2716351016,-12.6588145985
 C,0,11.0127213877,-4.1940296842,-7.0822277515
 H,0,11.3796395876,-4.6308676633,-6.15367278
 H,0,10.689083181,-3.1773740802,-6.8837405187
 H,0,11.836705145,-4.1660267965,-7.7946693602
 N,0,10.0020302848,-6.2906864078,-8.0053432288
 H,0,10.8469042859,-6.8368000706,-7.9622288127
 C,0,9.8759972294,-4.9812106216,-7.6228182468
 C,0,8.795505374,-6.7074577807,-8.4491066049
 H,0,8.5986795446,-7.6953718208,-8.8138815386
 N,0,7.9091438717,-5.7415237583,-8.3704733982
 C,0,8.5696376981,-4.6605957621,-7.8570946466
 H,0,8.0640867267,-3.7310033466,-7.6927465617
 Recover connectivity data from disk.
 Stoichiometry    C34H34FeN6(1+,2)
 Framework group  C1[X(C34H34FeN6)]
 Deg. of freedom   219
 Full point group                 C1      NOp   1
 Largest Abelian subgroup         C1      NOp   1
 Largest concise Abelian subgroup C1      NOp   1
                         Standard orientation:                         
 ---------------------------------------------------------------------
 Center     Atomic      Atomic             Coordinates (Angstroms)
 Number     Number       Type             X           Y           Z
 ---------------------------------------------------------------------
      1         26           0        0.215867   -0.027000   -0.353980
      2          7           0        1.191476   -1.760584   -0.599767
      3          7           0       -1.523382   -1.014499   -0.552012
      4          7           0       -0.783085    1.697574   -0.184143
      5          7           0        1.947983    0.941784   -0.290223
      6          6           0        2.540795   -1.945211   -0.559517
      7          6           0        2.873802   -3.346045   -0.686473
      8          6           0        1.693019   -4.008348   -0.811122
      9          6           0        0.655542   -3.003560   -0.746851
     10          6           0       -1.703440   -2.358809   -0.683845
     11          6           0       -3.103312   -2.698662   -0.669171
     12          6           0       -3.783143   -1.521451   -0.510531
     13          6           0       -2.773000   -0.483477   -0.445996
     14          6           0       -2.128415    1.877634   -0.309209
     15          6           0       -2.457067    3.269266   -0.464544
     16          6           0       -1.266755    3.947490   -0.441819
     17          6           0       -0.237208    2.941592   -0.274839
     18          6           0        2.125347    2.292380   -0.273282
     19          6           0        3.525789    2.630001   -0.390523
     20          6           0        4.196839    1.449787   -0.469571
     21          6           0        3.195482    0.408992   -0.412683
     22          6           0        3.485659   -0.940386   -0.469964
     23          1           0        4.525498   -1.227681   -0.503938
     24          6           0       -0.691155   -3.291087   -0.817328
     25          1           0       -0.974474   -4.323883   -0.947920
     26          6           0       -3.066690    0.859097   -0.322724
     27          1           0       -4.108010    1.142721   -0.337613
     28          6           0        1.113463    3.230191   -0.212503
     29          1           0        1.403592    4.269317   -0.238836
     30          6           0        1.440724   -5.466606   -0.984731
     31          1           0        2.376173   -6.018851   -1.026785
     32          1           0        0.892027   -5.651665   -1.908084
     33          1           0        0.848695   -5.855518   -0.155727
     34          6           0        4.263586   -3.884422   -0.685893
     35          1           0        4.790910   -3.591206    0.222094
     36          1           0        4.822274   -3.500594   -1.539860
     37          1           0        4.257007   -4.970093   -0.742501
     38          6           0       -3.649884   -4.081821   -0.734658
     39          1           0       -3.022063   -4.772136   -0.173359
     40          1           0       -3.697451   -4.431473   -1.767185
     41          1           0       -4.654352   -4.106105   -0.317160
     42          6           0       -5.207604   -1.290813   -0.405362
     43          1           0       -5.503087   -0.477053    0.247117
     44          6           0       -6.149254   -1.981812   -1.039110
     45          1           0       -5.912635   -2.767983   -1.734466
     46          1           0       -7.195593   -1.764011   -0.902711
     47          6           0       -3.836744    3.818346   -0.566827
     48          1           0       -4.520141    3.270432    0.080176
     49          1           0       -4.209723    3.743828   -1.589512
     50          1           0       -3.844069    4.866116   -0.273126
     51          6           0       -1.022862    5.368623   -0.553854
     52          1           0       -0.176840    5.744199    0.010015
     53          6           0       -1.738532    6.219457   -1.281872
     54          1           0       -2.557523    5.896848   -1.900255
     55          1           0       -1.507827    7.271590   -1.306478
     56          6           0        4.055475    4.022217   -0.418950
     57          1           0        3.776339    4.557549    0.488801
     58          1           0        3.650043    4.567532   -1.271438
     59          1           0        5.139822    4.022006   -0.497622
     60          6           0        5.658880    1.201054   -0.616466
     61          1           0        6.030930    0.593505    0.209025
     62          1           0        6.210737    2.137544   -0.627560
     63          1           0        5.864952    0.670351   -1.546096
     64          6           0       -1.185858   -0.246512    5.056976
     65          1           0       -1.236850   -1.225679    5.532688
     66          1           0       -2.196603    0.106564    4.879609
     67          1           0       -0.690730    0.440282    5.742883
     68          7           0        0.862681   -0.698588    3.689963
     69          1           0        1.448909   -0.952030    4.468433
     70          6           0       -0.452598   -0.323318    3.768386
     71          6           0        1.223638   -0.662852    2.388134
     72          1           0        2.202834   -0.908979    2.029844
     73          7           0        0.215997   -0.288452    1.633592
     74          6           0       -0.834428   -0.073955    2.481421
     75          1           0       -1.787527    0.244012    2.110969
 ---------------------------------------------------------------------
 Rotational constants (GHZ):           0.0943312           0.0931147           0.0595839
 Standard basis: def2TZVP (5D, 7F)
 There are  1696 symmetry adapted cartesian basis functions of A   symmetry.
 There are  1489 symmetry adapted basis functions of A   symmetry.
  1489 basis functions,  2414 primitive gaussians,  1696 cartesian basis functions
   153 alpha electrons      152 beta electrons
       nuclear repulsion energy      5577.8638337375 Hartrees.
 NAtoms=   75 NActive=   75 NUniq=   75 SFac= 1.00D+00 NAtFMM=   60 NAOKFM=T Big=T
 Integral buffers will be    131072 words long.
 Raffenetti 2 integral format.
 Two-electron integral symmetry is turned on.
 R6APFD:  NTU= -4 IXU= 1 FactS= 1.050
 Nuclear repulsion after empirical dispersion term =     5577.7299413661 Hartrees.
 One-electron integrals computed using PRISM.
   1 Symmetry operations used in ECPInt.
 ECPInt:  NShTT=  174936 NPrTT=  542361 LenC2=  137415 LenP2D=  282214.
 LDataN:  DoStor=T MaxTD1= 6 Len=  172
 Number of processors reduced to  23 by ecpmxn.
 NBasis=  1489 RedAO= T EigKep=  3.24D-06  NBF=  1489
 NBsUse=  1489 1.00D-06 EigRej= -1.00D+00 NBFU=  1489
 Initial guess from the checkpoint file:  "5zeo_III_Dn.chk"
 B after Tr=    -0.000000    0.000000   -0.000000
         Rot=    1.000000    0.000000    0.000000    0.000000 Ang=   0.00 deg.
 Initial guess <Sx>= 0.0000 <Sy>= 0.0000 <Sz>= 0.5000 <S**2>= 0.8959 S= 0.5705
 Requested convergence on RMS density matrix=1.00D-08 within 999 cycles.
 Requested convergence on MAX density matrix=1.00D-06.
 Requested convergence on             energy=1.00D-06.
 No special actions if energy rises.
 Restarting incremental Fock formation.
 Restarting incremental Fock formation.
 Restarting incremental Fock formation.
 Restarting incremental Fock formation.
 SCF Done:  E(UAPFD) =  -2907.39938239     A.U. after   83 cycles
            NFock= 83  Conv=0.33D-08     -V/T= 2.0035
 <Sx>= 0.0000 <Sy>= 0.0000 <Sz>= 0.5000 <S**2>= 0.9168 S= 0.5802
 <L.S>=  0.00000000000    
 Annihilation of the first spin contaminant:
 S**2 before annihilation     0.9168,   after     0.7572

 **********************************************************************

            Population analysis using the SCF Density.

 **********************************************************************

 Orbital symmetries:
 Alpha Orbitals:
       Occupied  (A) (A) (A) (A) (A) (A) (A) (A) (A) (A) (A) (A)
                 (A) (A) (A) (A) (A) (A) (A) (A) (A) (A) (A) (A)
                 (A) (A) (A) (A) (A) (A) (A) (A) (A) (A) (A) (A)
                 (A) (A) (A) (A) (A) (A) (A) (A) (A) (A) (A) (A)
                 (A) (A) (A) (A) (A) (A) (A) (A) (A) (A) (A) (A)
                 (A) (A) (A) (A) (A) (A) (A) (A) (A) (A) (A) (A)
                 (A) (A) (A) (A) (A) (A) (A) (A) (A) (A) (A) (A)
                 (A) (A) (A) (A) (A) (A) (A) (A) (A) (A) (A) (A)
                 (A) (A) (A) (A) (A) (A) (A) (A) (A) (A) (A) (A)
                 (A) (A) (A) (A) (A) (A) (A) (A) (A) (A) (A) (A)
                 (A) (A) (A) (A) (A) (A) (A) (A) (A) (A) (A) (A)
                 (A) (A) (A) (A) (A) (A) (A) (A) (A) (A) (A) (A)
                 (A) (A) (A) (A) (A) (A) (A) (A) (A)
       Virtual   (A) (A) (A) (A) (A) (A) (A) (A) (A) (A) (A) (A)
                 (A) (A) (A) (A) (A) (A) (A) (A) (A) (A) (A) (A)
                 (A) (A) (A) (A) (A) (A) (A) (A) (A) (A) (A) (A)
                 (A) (A) (A) (A) (A) (A) (A) (A) (A) (A) (A) (A)
                 (A) (A) (A) (A) (A) (A) (A) (A) (A) (A) (A) (A)
                 (A) (A) (A) (A) (A) (A) (A) (A) (A) (A) (A) (A)
                 (A) (A) (A) (A) (A) (A) (A) (A) (A) (A) (A) (A)
                 (A) (A) (A) (A) (A) (A) (A) (A) (A) (A) (A) (A)
                 (A) (A) (A) (A) (A) (A) (A) (A) (A) (A) (A) (A)
                 (A) (A) (A) (A) (A) (A) (A) (A) (A) (A) (A) (A)
                 (A) (A) (A) (A) (A) (A) (A) (A) (A) (A) (A) (A)
                 (A) (A) (A) (A) (A) (A) (A) (A) (A) (A) (A) (A)
                 (A) (A) (A) (A) (A) (A) (A) (A) (A) (A) (A) (A)
                 (A) (A) (A) (A) (A) (A) (A) (A) (A) (A) (A) (A)
                 (A) (A) (A) (A) (A) (A) (A) (A) (A) (A) (A) (A)
                 (A) (A) (A) (A) (A) (A) (A) (A) (A) (A) (A) (A)
                 (A) (A) (A) (A) (A) (A) (A) (A) (A) (A) (A) (A)
                 (A) (A) (A) (A) (A) (A) (A) (A) (A) (A) (A) (A)
                 (A) (A) (A) (A) (A) (A) (A) (A) (A) (A) (A) (A)
                 (A) (A) (A) (A) (A) (A) (A) (A) (A) (A) (A) (A)
                 (A) (A) (A) (A) (A) (A) (A) (A) (A) (A) (A) (A)
                 (A) (A) (A) (A) (A) (A) (A) (A) (A) (A) (A) (A)
                 (A) (A) (A) (A) (A) (A) (A) (A) (A) (A) (A) (A)
                 (A) (A) (A) (A) (A) (A) (A) (A) (A) (A) (A) (A)
                 (A) (A) (A) (A) (A) (A) (A) (A) (A) (A) (A) (A)
                 (A) (A) (A) (A) (A) (A) (A) (A) (A) (A) (A) (A)
                 (A) (A) (A) (A) (A) (A) (A) (A) (A) (A) (A) (A)
                 (A) (A) (A) (A) (A) (A) (A) (A) (A) (A) (A) (A)
                 (A) (A) (A) (A) (A) (A) (A) (A) (A) (A) (A) (A)
                 (A) (A) (A) (A) (A) (A) (A) (A) (A) (A) (A) (A)
                 (A) (A) (A) (A) (A) (A) (A) (A) (A) (A) (A) (A)
                 (A) (A) (A) (A) (A) (A) (A) (A) (A) (A) (A) (A)
                 (A) (A) (A) (A) (A) (A) (A) (A) (A) (A) (A) (A)
                 (A) (A) (A) (A) (A) (A) (A) (A) (A) (A) (A) (A)
                 (A) (A) (A) (A) (A) (A) (A) (A) (A) (A) (A) (A)
                 (A) (A) (A) (A) (A) (A) (A) (A) (A) (A) (A) (A)
                 (A) (A) (A) (A) (A) (A) (A) (A) (A) (A) (A) (A)
                 (A) (A) (A) (A) (A) (A) (A) (A) (A) (A) (A) (A)
                 (A) (A) (A) (A) (A) (A) (A) (A) (A) (A) (A) (A)
                 (A) (A) (A) (A) (A) (A) (A) (A) (A) (A) (A) (A)
                 (A) (A) (A) (A) (A) (A) (A) (A) (A) (A) (A) (A)
                 (A) (A) (A) (A) (A) (A) (A) (A) (A) (A) (A) (A)
                 (A) (A) (A) (A) (A) (A) (A) (A) (A) (A) (A) (A)
                 (A) (A) (A) (A) (A) (A) (A) (A) (A) (A) (A) (A)
                 (A) (A) (A) (A) (A) (A) (A) (A) (A) (A) (A) (A)
                 (A) (A) (A) (A) (A) (A) (A) (A) (A) (A) (A) (A)
                 (A) (A) (A) (A) (A) (A) (A) (A) (A) (A) (A) (A)
                 (A) (A) (A) (A) (A) (A) (A) (A) (A) (A) (A) (A)
                 (A) (A) (A) (A) (A) (A) (A) (A) (A) (A) (A) (A)
                 (A) (A) (A) (A) (A) (A) (A) (A) (A) (A) (A) (A)
                 (A) (A) (A) (A) (A) (A) (A) (A) (A) (A) (A) (A)
                 (A) (A) (A) (A) (A) (A) (A) (A) (A) (A) (A) (A)
                 (A) (A) (A) (A) (A) (A) (A) (A) (A) (A) (A) (A)
                 (A) (A) (A) (A) (A) (A) (A) (A) (A) (A) (A) (A)
                 (A) (A) (A) (A) (A) (A) (A) (A) (A) (A) (A) (A)
                 (A) (A) (A) (A) (A) (A) (A) (A) (A) (A) (A) (A)
                 (A) (A) (A) (A) (A) (A) (A) (A) (A) (A) (A) (A)
                 (A) (A) (A) (A) (A) (A) (A) (A) (A) (A) (A) (A)
                 (A) (A) (A) (A) (A) (A) (A) (A) (A) (A) (A) (A)
                 (A) (A) (A) (A) (A) (A) (A) (A) (A) (A) (A) (A)
                 (A) (A) (A) (A) (A) (A) (A) (A) (A) (A) (A) (A)
                 (A) (A) (A) (A) (A) (A) (A) (A) (A) (A) (A) (A)
                 (A) (A) (A) (A) (A) (A) (A) (A) (A) (A) (A) (A)
                 (A) (A) (A) (A) (A) (A) (A) (A) (A) (A) (A) (A)
                 (A) (A) (A) (A) (A) (A) (A) (A) (A) (A) (A) (A)
                 (A) (A) (A) (A) (A) (A) (A) (A) (A) (A) (A) (A)
                 (A) (A) (A) (A) (A) (A) (A) (A) (A) (A) (A) (A)
                 (A) (A) (A) (A) (A) (A) (A) (A) (A) (A) (A) (A)
                 (A) (A) (A) (A) (A) (A) (A) (A) (A) (A) (A) (A)
                 (A) (A) (A) (A) (A) (A) (A) (A) (A) (A) (A) (A)
                 (A) (A) (A) (A) (A) (A) (A) (A) (A) (A) (A) (A)
                 (A) (A) (A) (A) (A) (A) (A) (A) (A) (A) (A) (A)
                 (A) (A) (A) (A) (A) (A) (A) (A) (A) (A) (A) (A)
                 (A) (A) (A) (A) (A) (A) (A) (A) (A) (A) (A) (A)
                 (A) (A) (A) (A) (A) (A) (A) (A) (A) (A) (A) (A)
                 (A) (A) (A) (A) (A) (A) (A) (A) (A) (A) (A) (A)
                 (A) (A) (A) (A) (A) (A) (A) (A) (A) (A) (A) (A)
                 (A) (A) (A) (A) (A) (A) (A) (A) (A) (A) (A) (A)
                 (A) (A) (A) (A) (A) (A) (A) (A) (A) (A) (A) (A)
                 (A) (A) (A) (A) (A) (A) (A) (A) (A) (A) (A) (A)
                 (A) (A) (A) (A) (A) (A) (A) (A) (A) (A) (A) (A)
                 (A) (A) (A) (A) (A) (A) (A) (A) (A) (A) (A) (A)
                 (A) (A) (A) (A) (A) (A) (A) (A) (A) (A) (A) (A)
                 (A) (A) (A) (A) (A) (A) (A) (A) (A) (A) (A) (A)
                 (A) (A) (A) (A) (A) (A) (A) (A) (A) (A) (A) (A)
                 (A) (A) (A) (A) (A) (A) (A) (A) (A) (A) (A) (A)
                 (A) (A) (A) (A) (A) (A) (A) (A) (A) (A) (A) (A)
                 (A) (A) (A) (A) (A) (A) (A) (A) (A) (A) (A) (A)
                 (A) (A) (A) (A) (A) (A) (A) (A) (A) (A) (A) (A)
                 (A) (A) (A) (A) (A) (A) (A) (A) (A) (A) (A) (A)
                 (A) (A) (A) (A) (A) (A) (A) (A) (A) (A) (A) (A)
                 (A) (A) (A) (A) (A) (A) (A) (A) (A) (A) (A) (A)
                 (A) (A) (A) (A) (A) (A) (A) (A) (A) (A) (A) (A)
                 (A) (A) (A) (A) (A) (A) (A) (A) (A) (A) (A) (A)
                 (A) (A) (A) (A) (A) (A) (A) (A) (A) (A) (A) (A)
                 (A) (A) (A) (A) (A) (A) (A) (A) (A) (A) (A) (A)
                 (A) (A) (A) (A) (A) (A) (A) (A) (A) (A) (A) (A)
                 (A) (A) (A) (A) (A) (A) (A) (A) (A) (A) (A) (A)
                 (A) (A) (A) (A) (A) (A) (A) (A) (A) (A) (A) (A)
                 (A) (A) (A) (A) (A) (A) (A) (A) (A) (A) (A) (A)
                 (A) (A) (A) (A) (A) (A) (A) (A) (A) (A) (A) (A)
                 (A) (A) (A) (A) (A) (A) (A) (A) (A) (A) (A) (A)
                 (A) (A) (A) (A) (A) (A) (A) (A) (A) (A) (A) (A)
                 (A) (A) (A) (A) (A) (A) (A) (A) (A) (A) (A) (A)
                 (A) (A) (A) (A) (A) (A) (A) (A) (A) (A) (A) (A)
                 (A) (A) (A) (A) (A) (A) (A) (A) (A) (A) (A) (A)
                 (A) (A) (A) (A) (A) (A) (A) (A) (A) (A) (A) (A)
                 (A) (A) (A) (A) (A) (A) (A) (A) (A) (A) (A) (A)
                 (A) (A) (A) (A) (A) (A) (A) (A) (A) (A) (A) (A)
                 (A) (A) (A) (A) (A) (A) (A) (A) (A) (A) (A) (A)
                 (A) (A) (A) (A) (A) (A) (A) (A) (A) (A) (A) (A)
                 (A) (A) (A) (A)
 Beta  Orbitals:
       Occupied  (A) (A) (A) (A) (A) (A) (A) (A) (A) (A) (A) (A)
                 (A) (A) (A) (A) (A) (A) (A) (A) (A) (A) (A) (A)
                 (A) (A) (A) (A) (A) (A) (A) (A) (A) (A) (A) (A)
                 (A) (A) (A) (A) (A) (A) (A) (A) (A) (A) (A) (A)
                 (A) (A) (A) (A) (A) (A) (A) (A) (A) (A) (A) (A)
                 (A) (A) (A) (A) (A) (A) (A) (A) (A) (A) (A) (A)
                 (A) (A) (A) (A) (A) (A) (A) (A) (A) (A) (A) (A)
                 (A) (A) (A) (A) (A) (A) (A) (A) (A) (A) (A) (A)
                 (A) (A) (A) (A) (A) (A) (A) (A) (A) (A) (A) (A)
                 (A) (A) (A) (A) (A) (A) (A) (A) (A) (A) (A) (A)
                 (A) (A) (A) (A) (A) (A) (A) (A) (A) (A) (A) (A)
                 (A) (A) (A) (A) (A) (A) (A) (A) (A) (A) (A) (A)
                 (A) (A) (A) (A) (A) (A) (A) (A)
       Virtual   (A) (A) (A) (A) (A) (A) (A) (A) (A) (A) (A) (A)
                 (A) (A) (A) (A) (A) (A) (A) (A) (A) (A) (A) (A)
                 (A) (A) (A) (A) (A) (A) (A) (A) (A) (A) (A) (A)
                 (A) (A) (A) (A) (A) (A) (A) (A) (A) (A) (A) (A)
                 (A) (A) (A) (A) (A) (A) (A) (A) (A) (A) (A) (A)
                 (A) (A) (A) (A) (A) (A) (A) (A) (A) (A) (A) (A)
                 (A) (A) (A) (A) (A) (A) (A) (A) (A) (A) (A) (A)
                 (A) (A) (A) (A) (A) (A) (A) (A) (A) (A) (A) (A)
                 (A) (A) (A) (A) (A) (A) (A) (A) (A) (A) (A) (A)
                 (A) (A) (A) (A) (A) (A) (A) (A) (A) (A) (A) (A)
                 (A) (A) (A) (A) (A) (A) (A) (A) (A) (A) (A) (A)
                 (A) (A) (A) (A) (A) (A) (A) (A) (A) (A) (A) (A)
                 (A) (A) (A) (A) (A) (A) (A) (A) (A) (A) (A) (A)
                 (A) (A) (A) (A) (A) (A) (A) (A) (A) (A) (A) (A)
                 (A) (A) (A) (A) (A) (A) (A) (A) (A) (A) (A) (A)
                 (A) (A) (A) (A) (A) (A) (A) (A) (A) (A) (A) (A)
                 (A) (A) (A) (A) (A) (A) (A) (A) (A) (A) (A) (A)
                 (A) (A) (A) (A) (A) (A) (A) (A) (A) (A) (A) (A)
                 (A) (A) (A) (A) (A) (A) (A) (A) (A) (A) (A) (A)
                 (A) (A) (A) (A) (A) (A) (A) (A) (A) (A) (A) (A)
                 (A) (A) (A) (A) (A) (A) (A) (A) (A) (A) (A) (A)
                 (A) (A) (A) (A) (A) (A) (A) (A) (A) (A) (A) (A)
                 (A) (A) (A) (A) (A) (A) (A) (A) (A) (A) (A) (A)
                 (A) (A) (A) (A) (A) (A) (A) (A) (A) (A) (A) (A)
                 (A) (A) (A) (A) (A) (A) (A) (A) (A) (A) (A) (A)
                 (A) (A) (A) (A) (A) (A) (A) (A) (A) (A) (A) (A)
                 (A) (A) (A) (A) (A) (A) (A) (A) (A) (A) (A) (A)
                 (A) (A) (A) (A) (A) (A) (A) (A) (A) (A) (A) (A)
                 (A) (A) (A) (A) (A) (A) (A) (A) (A) (A) (A) (A)
                 (A) (A) (A) (A) (A) (A) (A) (A) (A) (A) (A) (A)
                 (A) (A) (A) (A) (A) (A) (A) (A) (A) (A) (A) (A)
                 (A) (A) (A) (A) (A) (A) (A) (A) (A) (A) (A) (A)
                 (A) (A) (A) (A) (A) (A) (A) (A) (A) (A) (A) (A)
                 (A) (A) (A) (A) (A) (A) (A) (A) (A) (A) (A) (A)
                 (A) (A) (A) (A) (A) (A) (A) (A) (A) (A) (A) (A)
                 (A) (A) (A) (A) (A) (A) (A) (A) (A) (A) (A) (A)
                 (A) (A) (A) (A) (A) (A) (A) (A) (A) (A) (A) (A)
                 (A) (A) (A) (A) (A) (A) (A) (A) (A) (A) (A) (A)
                 (A) (A) (A) (A) (A) (A) (A) (A) (A) (A) (A) (A)
                 (A) (A) (A) (A) (A) (A) (A) (A) (A) (A) (A) (A)
                 (A) (A) (A) (A) (A) (A) (A) (A) (A) (A) (A) (A)
                 (A) (A) (A) (A) (A) (A) (A) (A) (A) (A) (A) (A)
                 (A) (A) (A) (A) (A) (A) (A) (A) (A) (A) (A) (A)
                 (A) (A) (A) (A) (A) (A) (A) (A) (A) (A) (A) (A)
                 (A) (A) (A) (A) (A) (A) (A) (A) (A) (A) (A) (A)
                 (A) (A) (A) (A) (A) (A) (A) (A) (A) (A) (A) (A)
                 (A) (A) (A) (A) (A) (A) (A) (A) (A) (A) (A) (A)
                 (A) (A) (A) (A) (A) (A) (A) (A) (A) (A) (A) (A)
                 (A) (A) (A) (A) (A) (A) (A) (A) (A) (A) (A) (A)
                 (A) (A) (A) (A) (A) (A) (A) (A) (A) (A) (A) (A)
                 (A) (A) (A) (A) (A) (A) (A) (A) (A) (A) (A) (A)
                 (A) (A) (A) (A) (A) (A) (A) (A) (A) (A) (A) (A)
                 (A) (A) (A) (A) (A) (A) (A) (A) (A) (A) (A) (A)
                 (A) (A) (A) (A) (A) (A) (A) (A) (A) (A) (A) (A)
                 (A) (A) (A) (A) (A) (A) (A) (A) (A) (A) (A) (A)
                 (A) (A) (A) (A) (A) (A) (A) (A) (A) (A) (A) (A)
                 (A) (A) (A) (A) (A) (A) (A) (A) (A) (A) (A) (A)
                 (A) (A) (A) (A) (A) (A) (A) (A) (A) (A) (A) (A)
                 (A) (A) (A) (A) (A) (A) (A) (A) (A) (A) (A) (A)
                 (A) (A) (A) (A) (A) (A) (A) (A) (A) (A) (A) (A)
                 (A) (A) (A) (A) (A) (A) (A) (A) (A) (A) (A) (A)
                 (A) (A) (A) (A) (A) (A) (A) (A) (A) (A) (A) (A)
                 (A) (A) (A) (A) (A) (A) (A) (A) (A) (A) (A) (A)
                 (A) (A) (A) (A) (A) (A) (A) (A) (A) (A) (A) (A)
                 (A) (A) (A) (A) (A) (A) (A) (A) (A) (A) (A) (A)
                 (A) (A) (A) (A) (A) (A) (A) (A) (A) (A) (A) (A)
                 (A) (A) (A) (A) (A) (A) (A) (A) (A) (A) (A) (A)
                 (A) (A) (A) (A) (A) (A) (A) (A) (A) (A) (A) (A)
                 (A) (A) (A) (A) (A) (A) (A) (A) (A) (A) (A) (A)
                 (A) (A) (A) (A) (A) (A) (A) (A) (A) (A) (A) (A)
                 (A) (A) (A) (A) (A) (A) (A) (A) (A) (A) (A) (A)
                 (A) (A) (A) (A) (A) (A) (A) (A) (A) (A) (A) (A)
                 (A) (A) (A) (A) (A) (A) (A) (A) (A) (A) (A) (A)
                 (A) (A) (A) (A) (A) (A) (A) (A) (A) (A) (A) (A)
                 (A) (A) (A) (A) (A) (A) (A) (A) (A) (A) (A) (A)
                 (A) (A) (A) (A) (A) (A) (A) (A) (A) (A) (A) (A)
                 (A) (A) (A) (A) (A) (A) (A) (A) (A) (A) (A) (A)
                 (A) (A) (A) (A) (A) (A) (A) (A) (A) (A) (A) (A)
                 (A) (A) (A) (A) (A) (A) (A) (A) (A) (A) (A) (A)
                 (A) (A) (A) (A) (A) (A) (A) (A) (A) (A) (A) (A)
                 (A) (A) (A) (A) (A) (A) (A) (A) (A) (A) (A) (A)
                 (A) (A) (A) (A) (A) (A) (A) (A) (A) (A) (A) (A)
                 (A) (A) (A) (A) (A) (A) (A) (A) (A) (A) (A) (A)
                 (A) (A) (A) (A) (A) (A) (A) (A) (A) (A) (A) (A)
                 (A) (A) (A) (A) (A) (A) (A) (A) (A) (A) (A) (A)
                 (A) (A) (A) (A) (A) (A) (A) (A) (A) (A) (A) (A)
                 (A) (A) (A) (A) (A) (A) (A) (A) (A) (A) (A) (A)
                 (A) (A) (A) (A) (A) (A) (A) (A) (A) (A) (A) (A)
                 (A) (A) (A) (A) (A) (A) (A) (A) (A) (A) (A) (A)
                 (A) (A) (A) (A) (A) (A) (A) (A) (A) (A) (A) (A)
                 (A) (A) (A) (A) (A) (A) (A) (A) (A) (A) (A) (A)
                 (A) (A) (A) (A) (A) (A) (A) (A) (A) (A) (A) (A)
                 (A) (A) (A) (A) (A) (A) (A) (A) (A) (A) (A) (A)
                 (A) (A) (A) (A) (A) (A) (A) (A) (A) (A) (A) (A)
                 (A) (A) (A) (A) (A) (A) (A) (A) (A) (A) (A) (A)
                 (A) (A) (A) (A) (A) (A) (A) (A) (A) (A) (A) (A)
                 (A) (A) (A) (A) (A) (A) (A) (A) (A) (A) (A) (A)
                 (A) (A) (A) (A) (A) (A) (A) (A) (A) (A) (A) (A)
                 (A) (A) (A) (A) (A) (A) (A) (A) (A) (A) (A) (A)
                 (A) (A) (A) (A) (A) (A) (A) (A) (A) (A) (A) (A)
                 (A) (A) (A) (A) (A) (A) (A) (A) (A) (A) (A) (A)
                 (A) (A) (A) (A) (A) (A) (A) (A) (A) (A) (A) (A)
                 (A) (A) (A) (A) (A) (A) (A) (A) (A) (A) (A) (A)
                 (A) (A) (A) (A) (A) (A) (A) (A) (A) (A) (A) (A)
                 (A) (A) (A) (A) (A) (A) (A) (A) (A) (A) (A) (A)
                 (A) (A) (A) (A) (A) (A) (A) (A) (A) (A) (A) (A)
                 (A) (A) (A) (A) (A) (A) (A) (A) (A) (A) (A) (A)
                 (A) (A) (A) (A) (A) (A) (A) (A) (A) (A) (A) (A)
                 (A) (A) (A) (A) (A) (A) (A) (A) (A) (A) (A) (A)
                 (A) (A) (A) (A) (A) (A) (A) (A) (A) (A) (A) (A)
                 (A) (A) (A) (A) (A) (A) (A) (A) (A) (A) (A) (A)
                 (A) (A) (A) (A) (A)
 The electronic state is 2-A.
 Alpha  occ. eigenvalues -- -256.39598 -30.26285 -26.11124 -26.10330 -26.08315
 Alpha  occ. eigenvalues --  -14.53753 -14.50873 -14.47178 -14.47098 -14.46769
 Alpha  occ. eigenvalues --  -14.46573 -10.38452 -10.35517 -10.33453 -10.33338
 Alpha  occ. eigenvalues --  -10.33207 -10.33177 -10.33164 -10.33133 -10.33119
 Alpha  occ. eigenvalues --  -10.33100 -10.32929 -10.30758 -10.30376 -10.30284
 Alpha  occ. eigenvalues --  -10.30273 -10.30190 -10.30112 -10.30108 -10.30088
 Alpha  occ. eigenvalues --  -10.30047 -10.29988 -10.29813 -10.29734 -10.29689
 Alpha  occ. eigenvalues --  -10.29187 -10.28863 -10.28315 -10.28204 -10.28197
 Alpha  occ. eigenvalues --  -10.28081 -10.28014 -10.27876 -10.27786 -10.27484
 Alpha  occ. eigenvalues --   -3.65106  -2.44029  -2.42012  -2.37491  -1.17781
 Alpha  occ. eigenvalues --   -1.09542  -1.08674  -1.08316  -1.07487  -1.03623
 Alpha  occ. eigenvalues --   -0.94119  -0.92733  -0.92314  -0.91981  -0.91558
 Alpha  occ. eigenvalues --   -0.91466  -0.91302  -0.91192  -0.87162  -0.85906
 Alpha  occ. eigenvalues --   -0.85838  -0.84723  -0.83355  -0.82999  -0.81623
 Alpha  occ. eigenvalues --   -0.80595  -0.79009  -0.78805  -0.78527  -0.76815
 Alpha  occ. eigenvalues --   -0.75654  -0.75631  -0.73341  -0.71119  -0.70432
 Alpha  occ. eigenvalues --   -0.69411  -0.68793  -0.67840  -0.65695  -0.64962
 Alpha  occ. eigenvalues --   -0.64068  -0.63867  -0.62419  -0.62306  -0.61958
 Alpha  occ. eigenvalues --   -0.59897  -0.59799  -0.59378  -0.58762  -0.58634
 Alpha  occ. eigenvalues --   -0.56490  -0.55881  -0.55659  -0.55245  -0.54977
 Alpha  occ. eigenvalues --   -0.54571  -0.54479  -0.54315  -0.53894  -0.53841
 Alpha  occ. eigenvalues --   -0.53506  -0.53180  -0.52900  -0.52767  -0.52425
 Alpha  occ. eigenvalues --   -0.52294  -0.51194  -0.51040  -0.51009  -0.50862
 Alpha  occ. eigenvalues --   -0.50739  -0.50614  -0.50414  -0.50190  -0.49873
 Alpha  occ. eigenvalues --   -0.49621  -0.49223  -0.49005  -0.48656  -0.48576
 Alpha  occ. eigenvalues --   -0.48437  -0.48174  -0.47774  -0.47153  -0.47023
 Alpha  occ. eigenvalues --   -0.46712  -0.46196  -0.45390  -0.45169  -0.44059
 Alpha  occ. eigenvalues --   -0.43973  -0.43459  -0.43206  -0.42632  -0.42220
 Alpha  occ. eigenvalues --   -0.41642  -0.40809  -0.40059  -0.39784  -0.37983
 Alpha  occ. eigenvalues --   -0.37827  -0.35861  -0.34793  -0.33858  -0.33072
 Alpha  occ. eigenvalues --   -0.32548  -0.30732  -0.29417
 Alpha virt. eigenvalues --   -0.22453  -0.18347  -0.18205  -0.16007  -0.12517
 Alpha virt. eigenvalues --   -0.10760  -0.09318  -0.08144  -0.06858  -0.06780
 Alpha virt. eigenvalues --   -0.06036  -0.05592  -0.04435  -0.03764  -0.03243
 Alpha virt. eigenvalues --   -0.03016  -0.02924  -0.02572  -0.02441  -0.01332
 Alpha virt. eigenvalues --   -0.00866  -0.00395  -0.00335   0.00077   0.00244
 Alpha virt. eigenvalues --    0.00637   0.01125   0.01236   0.01759   0.01938
 Alpha virt. eigenvalues --    0.02210   0.02508   0.02900   0.02945   0.03132
 Alpha virt. eigenvalues --    0.03440   0.03576   0.03655   0.03889   0.04075
 Alpha virt. eigenvalues --    0.04220   0.04530   0.04644   0.05082   0.05230
 Alpha virt. eigenvalues --    0.05365   0.05592   0.05785   0.06466   0.06627
 Alpha virt. eigenvalues --    0.06804   0.07038   0.07311   0.07448   0.07512
 Alpha virt. eigenvalues --    0.07737   0.07912   0.08211   0.08268   0.08622
 Alpha virt. eigenvalues --    0.08716   0.08870   0.09161   0.09195   0.09567
 Alpha virt. eigenvalues --    0.10041   0.10631   0.10877   0.11005   0.11380
 Alpha virt. eigenvalues --    0.11503   0.11900   0.12053   0.12188   0.12629
 Alpha virt. eigenvalues --    0.12791   0.13126   0.13381   0.13493   0.13706
 Alpha virt. eigenvalues --    0.13997   0.14486   0.14785   0.15296   0.15373
 Alpha virt. eigenvalues --    0.16102   0.16345   0.16581   0.16752   0.16992
 Alpha virt. eigenvalues --    0.17253   0.17302   0.17508   0.17729   0.17833
 Alpha virt. eigenvalues --    0.18449   0.18665   0.19124   0.19253   0.19488
 Alpha virt. eigenvalues --    0.19716   0.19936   0.20418   0.20473   0.20859
 Alpha virt. eigenvalues --    0.21036   0.21421   0.21639   0.21661   0.22010
 Alpha virt. eigenvalues --    0.22363   0.22708   0.22849   0.23409   0.23471
 Alpha virt. eigenvalues --    0.23613   0.23841   0.24066   0.24282   0.24834
 Alpha virt. eigenvalues --    0.25196   0.25398   0.25913   0.26193   0.26410
 Alpha virt. eigenvalues --    0.26859   0.26974   0.27156   0.27337   0.27564
 Alpha virt. eigenvalues --    0.27866   0.28356   0.28469   0.28857   0.29298
 Alpha virt. eigenvalues --    0.29407   0.29585   0.29727   0.29918   0.30306
 Alpha virt. eigenvalues --    0.30619   0.30883   0.31108   0.31361   0.31642
 Alpha virt. eigenvalues --    0.31879   0.31930   0.32139   0.32263   0.32443
 Alpha virt. eigenvalues --    0.32794   0.32912   0.33174   0.33426   0.33619
 Alpha virt. eigenvalues --    0.33946   0.34147   0.34459   0.34548   0.34938
 Alpha virt. eigenvalues --    0.35121   0.35621   0.35719   0.35861   0.36054
 Alpha virt. eigenvalues --    0.36435   0.36691   0.36861   0.37308   0.37518
 Alpha virt. eigenvalues --    0.37541   0.37822   0.37993   0.38156   0.38372
 Alpha virt. eigenvalues --    0.38686   0.38727   0.38955   0.39020   0.39477
 Alpha virt. eigenvalues --    0.39693   0.39904   0.40202   0.40534   0.40581
 Alpha virt. eigenvalues --    0.40724   0.40921   0.41235   0.41454   0.41503
 Alpha virt. eigenvalues --    0.41937   0.42066   0.42406   0.42536   0.42794
 Alpha virt. eigenvalues --    0.42950   0.43353   0.43365   0.43971   0.44091
 Alpha virt. eigenvalues --    0.44250   0.44444   0.44620   0.44680   0.45010
 Alpha virt. eigenvalues --    0.45245   0.45574   0.45698   0.46137   0.46381
 Alpha virt. eigenvalues --    0.46448   0.46835   0.47250   0.47484   0.47712
 Alpha virt. eigenvalues --    0.47889   0.48008   0.48279   0.48702   0.48967
 Alpha virt. eigenvalues --    0.49400   0.49668   0.50179   0.50470   0.50610
 Alpha virt. eigenvalues --    0.50690   0.51192   0.51820   0.52236   0.52563
 Alpha virt. eigenvalues --    0.52841   0.52933   0.53186   0.53620   0.54124
 Alpha virt. eigenvalues --    0.54279   0.54550   0.54964   0.55254   0.55402
 Alpha virt. eigenvalues --    0.55806   0.56000   0.56389   0.56525   0.56952
 Alpha virt. eigenvalues --    0.57180   0.57560   0.57770   0.58256   0.58471
 Alpha virt. eigenvalues --    0.58938   0.59309   0.59373   0.59575   0.60231
 Alpha virt. eigenvalues --    0.60345   0.60736   0.60890   0.61453   0.61583
 Alpha virt. eigenvalues --    0.61805   0.62294   0.62528   0.62798   0.63044
 Alpha virt. eigenvalues --    0.63303   0.63405   0.64055   0.64286   0.64440
 Alpha virt. eigenvalues --    0.64712   0.65547   0.65764   0.66179   0.66502
 Alpha virt. eigenvalues --    0.66800   0.67099   0.67849   0.67981   0.68155
 Alpha virt. eigenvalues --    0.68464   0.69118   0.69390   0.69677   0.69798
 Alpha virt. eigenvalues --    0.70694   0.70991   0.71090   0.71232   0.71604
 Alpha virt. eigenvalues --    0.72166   0.72473   0.73170   0.73623   0.73804
 Alpha virt. eigenvalues --    0.74239   0.74452   0.74633   0.75260   0.75698
 Alpha virt. eigenvalues --    0.75999   0.76268   0.76893   0.77460   0.78037
 Alpha virt. eigenvalues --    0.78146   0.78383   0.78563   0.79007   0.79316
 Alpha virt. eigenvalues --    0.79748   0.80175   0.80485   0.80960   0.81311
 Alpha virt. eigenvalues --    0.81897   0.82321   0.82713   0.83082   0.83368
 Alpha virt. eigenvalues --    0.83950   0.84257   0.84704   0.84942   0.85451
 Alpha virt. eigenvalues --    0.85999   0.86496   0.86637   0.86839   0.87444
 Alpha virt. eigenvalues --    0.87714   0.87998   0.88537   0.88755   0.88962
 Alpha virt. eigenvalues --    0.89437   0.89867   0.90258   0.90440   0.90733
 Alpha virt. eigenvalues --    0.91115   0.91359   0.91561   0.91746   0.92172
 Alpha virt. eigenvalues --    0.92534   0.92960   0.92994   0.93083   0.93355
 Alpha virt. eigenvalues --    0.93525   0.94235   0.94501   0.94762   0.95120
 Alpha virt. eigenvalues --    0.95286   0.96055   0.96232   0.96608   0.96994
 Alpha virt. eigenvalues --    0.97498   0.97713   0.98220   0.98710   0.99119
 Alpha virt. eigenvalues --    0.99384   0.99855   1.00139   1.00406   1.01747
 Alpha virt. eigenvalues --    1.02025   1.02140   1.02703   1.03025   1.03197
 Alpha virt. eigenvalues --    1.04441   1.04887   1.05311   1.05417   1.06101
 Alpha virt. eigenvalues --    1.06537   1.07671   1.07829   1.08187   1.08633
 Alpha virt. eigenvalues --    1.08871   1.09227   1.09531   1.09860   1.10065
 Alpha virt. eigenvalues --    1.10517   1.10729   1.11309   1.11521   1.12067
 Alpha virt. eigenvalues --    1.12324   1.12499   1.13059   1.13671   1.14449
 Alpha virt. eigenvalues --    1.14745   1.15320   1.16111   1.16421   1.16648
 Alpha virt. eigenvalues --    1.17009   1.17365   1.17431   1.17703   1.18259
 Alpha virt. eigenvalues --    1.18454   1.18659   1.18830   1.19686   1.19905
 Alpha virt. eigenvalues --    1.19990   1.20458   1.21178   1.21671   1.21855
 Alpha virt. eigenvalues --    1.22637   1.23174   1.24155   1.24540   1.25260
 Alpha virt. eigenvalues --    1.26208   1.26737   1.26946   1.27109   1.27914
 Alpha virt. eigenvalues --    1.28058   1.28786   1.29567   1.29942   1.30266
 Alpha virt. eigenvalues --    1.30812   1.32108   1.32523   1.32835   1.33570
 Alpha virt. eigenvalues --    1.33752   1.34689   1.34782   1.35091   1.36066
 Alpha virt. eigenvalues --    1.36208   1.36377   1.36767   1.37434   1.37704
 Alpha virt. eigenvalues --    1.38087   1.38283   1.38731   1.39050   1.39462
 Alpha virt. eigenvalues --    1.39990   1.40433   1.40710   1.40831   1.41239
 Alpha virt. eigenvalues --    1.41414   1.42040   1.42158   1.42403   1.42626
 Alpha virt. eigenvalues --    1.42799   1.42952   1.43322   1.43784   1.43857
 Alpha virt. eigenvalues --    1.44246   1.44741   1.45115   1.45412   1.45499
 Alpha virt. eigenvalues --    1.45702   1.45910   1.46374   1.46600   1.46874
 Alpha virt. eigenvalues --    1.47122   1.47455   1.47749   1.47891   1.48346
 Alpha virt. eigenvalues --    1.48511   1.48636   1.48991   1.49358   1.49434
 Alpha virt. eigenvalues --    1.49852   1.50133   1.50519   1.50918   1.51366
 Alpha virt. eigenvalues --    1.51564   1.52050   1.52350   1.52686   1.52969
 Alpha virt. eigenvalues --    1.53065   1.53260   1.53553   1.54247   1.54401
 Alpha virt. eigenvalues --    1.54777   1.55137   1.55346   1.55771   1.56024
 Alpha virt. eigenvalues --    1.56457   1.56614   1.56848   1.57024   1.57420
 Alpha virt. eigenvalues --    1.57579   1.58097   1.58784   1.59001   1.59358
 Alpha virt. eigenvalues --    1.59781   1.60110   1.60550   1.60725   1.61305
 Alpha virt. eigenvalues --    1.61466   1.61614   1.62107   1.62684   1.63158
 Alpha virt. eigenvalues --    1.63269   1.63889   1.64277   1.64728   1.66062
 Alpha virt. eigenvalues --    1.66201   1.67377   1.67823   1.68432   1.69311
 Alpha virt. eigenvalues --    1.69413   1.70444   1.71059   1.71515   1.71828
 Alpha virt. eigenvalues --    1.72083   1.72760   1.73004   1.73499   1.74184
 Alpha virt. eigenvalues --    1.74639   1.75390   1.75524   1.75696   1.76199
 Alpha virt. eigenvalues --    1.76621   1.76828   1.77189   1.77537   1.78168
 Alpha virt. eigenvalues --    1.78332   1.78933   1.79313   1.80164   1.80504
 Alpha virt. eigenvalues --    1.81315   1.81803   1.82205   1.82329   1.82878
 Alpha virt. eigenvalues --    1.83529   1.83909   1.84738   1.85433   1.85860
 Alpha virt. eigenvalues --    1.86091   1.86707   1.87343   1.87651   1.87914
 Alpha virt. eigenvalues --    1.88562   1.88995   1.89462   1.89641   1.90549
 Alpha virt. eigenvalues --    1.90661   1.90914   1.91308   1.91753   1.92410
 Alpha virt. eigenvalues --    1.92460   1.92771   1.93350   1.94154   1.94511
 Alpha virt. eigenvalues --    1.95437   1.95944   1.96663   1.97238   1.97413
 Alpha virt. eigenvalues --    1.98037   1.98267   1.98936   1.99306   1.99571
 Alpha virt. eigenvalues --    1.99783   2.00226   2.00460   2.01174   2.01564
 Alpha virt. eigenvalues --    2.02137   2.02606   2.02844   2.03673   2.03889
 Alpha virt. eigenvalues --    2.04304   2.04621   2.05285   2.05623   2.06504
 Alpha virt. eigenvalues --    2.06933   2.07460   2.07630   2.08067   2.08434
 Alpha virt. eigenvalues --    2.08530   2.09583   2.10014   2.10769   2.11026
 Alpha virt. eigenvalues --    2.11750   2.12049   2.12425   2.12882   2.13586
 Alpha virt. eigenvalues --    2.14672   2.15205   2.15400   2.15934   2.16337
 Alpha virt. eigenvalues --    2.16607   2.17011   2.17166   2.17626   2.18140
 Alpha virt. eigenvalues --    2.18696   2.18971   2.20078   2.20203   2.20640
 Alpha virt. eigenvalues --    2.21167   2.21691   2.22561   2.22882   2.23464
 Alpha virt. eigenvalues --    2.23588   2.24431   2.25222   2.25331   2.26068
 Alpha virt. eigenvalues --    2.26457   2.26566   2.27580   2.27875   2.27981
 Alpha virt. eigenvalues --    2.28435   2.28466   2.28775   2.29031   2.29502
 Alpha virt. eigenvalues --    2.29719   2.30219   2.30533   2.31250   2.31686
 Alpha virt. eigenvalues --    2.31782   2.32410   2.33007   2.33731   2.34288
 Alpha virt. eigenvalues --    2.34580   2.35013   2.35315   2.35394   2.35975
 Alpha virt. eigenvalues --    2.36389   2.36649   2.37162   2.37850   2.38170
 Alpha virt. eigenvalues --    2.38221   2.39061   2.39850   2.39942   2.40537
 Alpha virt. eigenvalues --    2.40851   2.42131   2.42522   2.43117   2.43243
 Alpha virt. eigenvalues --    2.43440   2.43702   2.43827   2.44282   2.44948
 Alpha virt. eigenvalues --    2.45475   2.45924   2.46320   2.46555   2.47041
 Alpha virt. eigenvalues --    2.47441   2.47630   2.47864   2.48220   2.48881
 Alpha virt. eigenvalues --    2.49072   2.49710   2.49849   2.50252   2.50579
 Alpha virt. eigenvalues --    2.50971   2.51323   2.52101   2.53021   2.53219
 Alpha virt. eigenvalues --    2.53388   2.53913   2.54326   2.54471   2.55030
 Alpha virt. eigenvalues --    2.55340   2.56045   2.56415   2.56753   2.56964
 Alpha virt. eigenvalues --    2.57378   2.57696   2.58334   2.58862   2.59029
 Alpha virt. eigenvalues --    2.59416   2.59553   2.59926   2.60522   2.61015
 Alpha virt. eigenvalues --    2.61198   2.61949   2.62287   2.63133   2.63494
 Alpha virt. eigenvalues --    2.64081   2.64291   2.64573   2.64782   2.65176
 Alpha virt. eigenvalues --    2.66052   2.66625   2.67223   2.67423   2.68073
 Alpha virt. eigenvalues --    2.68232   2.68443   2.68813   2.69725   2.70532
 Alpha virt. eigenvalues --    2.70875   2.71098   2.71774   2.71928   2.72210
 Alpha virt. eigenvalues --    2.73061   2.73178   2.73590   2.73875   2.74345
 Alpha virt. eigenvalues --    2.74770   2.74953   2.75666   2.75812   2.76035
 Alpha virt. eigenvalues --    2.76279   2.77218   2.77648   2.77946   2.78332
 Alpha virt. eigenvalues --    2.78813   2.79140   2.79572   2.79706   2.80387
 Alpha virt. eigenvalues --    2.80553   2.80736   2.81216   2.81770   2.82249
 Alpha virt. eigenvalues --    2.82631   2.83307   2.83610   2.83885   2.84007
 Alpha virt. eigenvalues --    2.84459   2.84859   2.85382   2.85787   2.85895
 Alpha virt. eigenvalues --    2.86193   2.86428   2.86875   2.87776   2.88072
 Alpha virt. eigenvalues --    2.88304   2.88634   2.88879   2.89400   2.90125
 Alpha virt. eigenvalues --    2.90431   2.90577   2.90895   2.91061   2.91883
 Alpha virt. eigenvalues --    2.92286   2.92510   2.92959   2.93425   2.93753
 Alpha virt. eigenvalues --    2.94738   2.94918   2.95051   2.95303   2.95789
 Alpha virt. eigenvalues --    2.96596   2.96712   2.96808   2.97273   2.97395
 Alpha virt. eigenvalues --    2.97581   2.98133   2.98286   2.98567   2.98890
 Alpha virt. eigenvalues --    2.99510   2.99912   3.00251   3.00673   3.01076
 Alpha virt. eigenvalues --    3.01596   3.01826   3.02071   3.02498   3.02578
 Alpha virt. eigenvalues --    3.02876   3.03320   3.03467   3.03996   3.04424
 Alpha virt. eigenvalues --    3.04709   3.04887   3.05172   3.05919   3.06265
 Alpha virt. eigenvalues --    3.06700   3.07122   3.07452   3.07541   3.07982
 Alpha virt. eigenvalues --    3.08472   3.08843   3.09036   3.09400   3.09575
 Alpha virt. eigenvalues --    3.09866   3.10152   3.10715   3.10774   3.11124
 Alpha virt. eigenvalues --    3.11780   3.11966   3.12298   3.12559   3.12908
 Alpha virt. eigenvalues --    3.13372   3.13508   3.13900   3.14110   3.14541
 Alpha virt. eigenvalues --    3.14604   3.14898   3.15024   3.15533   3.15959
 Alpha virt. eigenvalues --    3.16324   3.16735   3.16789   3.16889   3.17005
 Alpha virt. eigenvalues --    3.17654   3.17739   3.18371   3.18764   3.18819
 Alpha virt. eigenvalues --    3.19127   3.19527   3.19677   3.19916   3.20157
 Alpha virt. eigenvalues --    3.20525   3.20686   3.21064   3.21209   3.21527
 Alpha virt. eigenvalues --    3.21808   3.21966   3.22698   3.22810   3.22945
 Alpha virt. eigenvalues --    3.23253   3.23367   3.23750   3.24029   3.24526
 Alpha virt. eigenvalues --    3.24648   3.24787   3.25240   3.25412   3.25504
 Alpha virt. eigenvalues --    3.25762   3.26493   3.26708   3.27032   3.27275
 Alpha virt. eigenvalues --    3.27430   3.27764   3.28114   3.28320   3.28619
 Alpha virt. eigenvalues --    3.28760   3.28962   3.29128   3.29381   3.29783
 Alpha virt. eigenvalues --    3.30202   3.30686   3.31064   3.31404   3.31647
 Alpha virt. eigenvalues --    3.32124   3.32643   3.33247   3.33853   3.34177
 Alpha virt. eigenvalues --    3.34569   3.34919   3.35319   3.35893   3.36202
 Alpha virt. eigenvalues --    3.36437   3.37096   3.37668   3.37839   3.38783
 Alpha virt. eigenvalues --    3.39006   3.39325   3.40011   3.40332   3.40634
 Alpha virt. eigenvalues --    3.41285   3.41451   3.42623   3.42784   3.43300
 Alpha virt. eigenvalues --    3.43678   3.43915   3.44625   3.44809   3.45379
 Alpha virt. eigenvalues --    3.45885   3.46008   3.46220   3.47005   3.47710
 Alpha virt. eigenvalues --    3.47928   3.48765   3.48919   3.49439   3.49657
 Alpha virt. eigenvalues --    3.50585   3.50783   3.51102   3.51621   3.52428
 Alpha virt. eigenvalues --    3.53315   3.53643   3.53810   3.54169   3.54346
 Alpha virt. eigenvalues --    3.55674   3.56072   3.56424   3.57303   3.57414
 Alpha virt. eigenvalues --    3.57882   3.58170   3.59189   3.59432   3.60289
 Alpha virt. eigenvalues --    3.60379   3.60619   3.60799   3.61527   3.62135
 Alpha virt. eigenvalues --    3.62180   3.62355   3.62907   3.63304   3.63650
 Alpha virt. eigenvalues --    3.64228   3.64468   3.64804   3.64926   3.65658
 Alpha virt. eigenvalues --    3.66078   3.66702   3.67354   3.67630   3.68347
 Alpha virt. eigenvalues --    3.68838   3.69313   3.70001   3.70390   3.70823
 Alpha virt. eigenvalues --    3.71331   3.71880   3.73101   3.73176   3.73967
 Alpha virt. eigenvalues --    3.74398   3.74633   3.75472   3.75860   3.76816
 Alpha virt. eigenvalues --    3.77103   3.77827   3.78714   3.79057   3.79501
 Alpha virt. eigenvalues --    3.79788   3.80733   3.81433   3.81744   3.82475
 Alpha virt. eigenvalues --    3.82696   3.83059   3.83189   3.85653   3.85831
 Alpha virt. eigenvalues --    3.86254   3.86928   3.87826   3.88227   3.88562
 Alpha virt. eigenvalues --    3.89035   3.89535   3.89804   3.90624   3.91275
 Alpha virt. eigenvalues --    3.91588   3.92547   3.92932   3.93404   3.94065
 Alpha virt. eigenvalues --    3.94371   3.95294   3.95686   3.96231   3.96895
 Alpha virt. eigenvalues --    3.97411   3.98490   3.99033   3.99186   3.99560
 Alpha virt. eigenvalues --    4.00476   4.01237   4.01614   4.02604   4.03474
 Alpha virt. eigenvalues --    4.04062   4.04398   4.04982   4.05557   4.06533
 Alpha virt. eigenvalues --    4.07002   4.07533   4.08086   4.08628   4.08857
 Alpha virt. eigenvalues --    4.09406   4.10223   4.10768   4.11760   4.11983
 Alpha virt. eigenvalues --    4.12737   4.13108   4.13779   4.14221   4.14732
 Alpha virt. eigenvalues --    4.14911   4.15683   4.16146   4.16808   4.18475
 Alpha virt. eigenvalues --    4.18608   4.18796   4.19821   4.20198   4.21201
 Alpha virt. eigenvalues --    4.21916   4.22483   4.22798   4.23383   4.23742
 Alpha virt. eigenvalues --    4.24266   4.25159   4.25775   4.26807   4.28039
 Alpha virt. eigenvalues --    4.28844   4.29387   4.29557   4.29897   4.29998
 Alpha virt. eigenvalues --    4.31079   4.31268   4.31632   4.31863   4.32295
 Alpha virt. eigenvalues --    4.32832   4.33451   4.33702   4.34446   4.34790
 Alpha virt. eigenvalues --    4.34983   4.35893   4.36381   4.37534   4.38201
 Alpha virt. eigenvalues --    4.39293   4.40096   4.41030   4.41568   4.42552
 Alpha virt. eigenvalues --    4.43669   4.44279   4.45195   4.45712   4.46730
 Alpha virt. eigenvalues --    4.47110   4.47835   4.48195   4.50654   4.50956
 Alpha virt. eigenvalues --    4.52294   4.53218   4.53983   4.54189   4.56625
 Alpha virt. eigenvalues --    4.57063   4.57669   4.58284   4.58605   4.59429
 Alpha virt. eigenvalues --    4.60280   4.60779   4.61926   4.62725   4.63252
 Alpha virt. eigenvalues --    4.63928   4.64703   4.65685   4.66502   4.67105
 Alpha virt. eigenvalues --    4.68062   4.69560   4.70130   4.71007   4.71622
 Alpha virt. eigenvalues --    4.71906   4.72821   4.73149   4.73391   4.73773
 Alpha virt. eigenvalues --    4.74230   4.75257   4.75860   4.77191   4.78242
 Alpha virt. eigenvalues --    4.78980   4.79050   4.80348   4.80690   4.81593
 Alpha virt. eigenvalues --    4.82327   4.82500   4.83058   4.84287   4.84617
 Alpha virt. eigenvalues --    4.86465   4.87726   4.88436   4.89046   4.90046
 Alpha virt. eigenvalues --    4.90858   4.91068   4.91701   4.92494   4.93307
 Alpha virt. eigenvalues --    4.93668   4.95115   4.95385   4.96829   4.97276
 Alpha virt. eigenvalues --    4.98119   4.99401   5.02029   5.02492   5.05056
 Alpha virt. eigenvalues --    5.06294   5.07203   5.07656   5.08486   5.08702
 Alpha virt. eigenvalues --    5.09716   5.10617   5.10985   5.11622   5.13506
 Alpha virt. eigenvalues --    5.14284   5.16036   5.17059   5.18380   5.21536
 Alpha virt. eigenvalues --    5.23969   5.24529   5.25207   5.25744   5.26495
 Alpha virt. eigenvalues --    5.27024   5.27535   5.28087   5.30404   5.30710
 Alpha virt. eigenvalues --    5.31323   5.34525   5.36210   5.37333   5.37384
 Alpha virt. eigenvalues --    5.38000   5.39042   5.40185   5.41577   5.43649
 Alpha virt. eigenvalues --    5.46242   5.48539   5.49233   5.50387   5.50420
 Alpha virt. eigenvalues --    5.51332   5.52947   5.54849   5.55586   5.56399
 Alpha virt. eigenvalues --    5.56771   5.60808   5.62735   5.63407   5.65390
 Alpha virt. eigenvalues --    5.65879   5.66547   5.67411   5.74829   5.76528
 Alpha virt. eigenvalues --    5.79761   5.83125   5.88591   5.89908   5.90573
 Alpha virt. eigenvalues --    5.95332   5.96490   5.99406   5.99930   6.00759
 Alpha virt. eigenvalues --    6.04203   6.06389   6.14126   6.21044   6.22002
 Alpha virt. eigenvalues --    6.28470  22.26406  22.27821  22.34449  22.36593
 Alpha virt. eigenvalues --   22.37193  22.43423  22.43797  22.52782  22.53481
 Alpha virt. eigenvalues --   22.64363  22.71472  22.77473  22.78907  22.81618
 Alpha virt. eigenvalues --   22.82350  22.84327  22.84676  22.92290  22.92620
 Alpha virt. eigenvalues --   22.95071  23.04175  23.15512  23.16624  23.19413
 Alpha virt. eigenvalues --   23.19737  23.26518  23.30827  23.39452  23.40187
 Alpha virt. eigenvalues --   23.44596  23.63477  23.68260  23.68866  23.78162
 Alpha virt. eigenvalues --   32.28414  32.58271  32.74856  32.78735  32.87147
 Alpha virt. eigenvalues --   32.93354
  Beta  occ. eigenvalues -- -256.39560 -30.24011 -26.08355 -26.08111 -26.07613
  Beta  occ. eigenvalues --  -14.53751 -14.50958 -14.47242 -14.47161 -14.46875
  Beta  occ. eigenvalues --  -14.46658 -10.38438 -10.35520 -10.33428 -10.33318
  Beta  occ. eigenvalues --  -10.33202 -10.33173 -10.33160 -10.33135 -10.33105
  Beta  occ. eigenvalues --  -10.33080 -10.32925 -10.30758 -10.30354 -10.30311
  Beta  occ. eigenvalues --  -10.30301 -10.30172 -10.30130 -10.30116 -10.30091
  Beta  occ. eigenvalues --  -10.30032 -10.29996 -10.29813 -10.29735 -10.29685
  Beta  occ. eigenvalues --  -10.29192 -10.28866 -10.28316 -10.28204 -10.28198
  Beta  occ. eigenvalues --  -10.28081 -10.28016 -10.27867 -10.27786 -10.27482
  Beta  occ. eigenvalues --   -3.59575  -2.36102  -2.35606  -2.34149  -1.17802
  Beta  occ. eigenvalues --   -1.09586  -1.08688  -1.08402  -1.07539  -1.03681
  Beta  occ. eigenvalues --   -0.94137  -0.92718  -0.92332  -0.91966  -0.91562
  Beta  occ. eigenvalues --   -0.91475  -0.91340  -0.91215  -0.87156  -0.85914
  Beta  occ. eigenvalues --   -0.85889  -0.84724  -0.83357  -0.83005  -0.81625
  Beta  occ. eigenvalues --   -0.80606  -0.79016  -0.78811  -0.78551  -0.76852
  Beta  occ. eigenvalues --   -0.75655  -0.75636  -0.73349  -0.71115  -0.70440
  Beta  occ. eigenvalues --   -0.69406  -0.68793  -0.67852  -0.65700  -0.64971
  Beta  occ. eigenvalues --   -0.64071  -0.63855  -0.62440  -0.62335  -0.61976
  Beta  occ. eigenvalues --   -0.59902  -0.59769  -0.59315  -0.58775  -0.58631
  Beta  occ. eigenvalues --   -0.56493  -0.55871  -0.55589  -0.55142  -0.54981
  Beta  occ. eigenvalues --   -0.54535  -0.54445  -0.54284  -0.53889  -0.53845
  Beta  occ. eigenvalues --   -0.53480  -0.53130  -0.52852  -0.52758  -0.52415
  Beta  occ. eigenvalues --   -0.52257  -0.51067  -0.50980  -0.50909  -0.50795
  Beta  occ. eigenvalues --   -0.50699  -0.50391  -0.50244  -0.50182  -0.49879
  Beta  occ. eigenvalues --   -0.49582  -0.49198  -0.48842  -0.48590  -0.48502
  Beta  occ. eigenvalues --   -0.48238  -0.47921  -0.47706  -0.47135  -0.46678
  Beta  occ. eigenvalues --   -0.46245  -0.45412  -0.45220  -0.44301  -0.44001
  Beta  occ. eigenvalues --   -0.43468  -0.43201  -0.42636  -0.42118  -0.40708
  Beta  occ. eigenvalues --   -0.39987  -0.39515  -0.38874  -0.38110  -0.37627
  Beta  occ. eigenvalues --   -0.35882  -0.34726  -0.34116  -0.33104  -0.32467
  Beta  occ. eigenvalues --   -0.30781  -0.29297
  Beta virt. eigenvalues --   -0.21370  -0.19510  -0.18333  -0.17386  -0.13147
  Beta virt. eigenvalues --   -0.12504  -0.10533  -0.09234  -0.08131  -0.06813
  Beta virt. eigenvalues --   -0.06728  -0.06042  -0.05440  -0.04364  -0.03748
  Beta virt. eigenvalues --   -0.03168  -0.02872  -0.02823  -0.02469  -0.02434
  Beta virt. eigenvalues --   -0.01313  -0.00807  -0.00356  -0.00275   0.00089
  Beta virt. eigenvalues --    0.00256   0.00710   0.01132   0.01245   0.01781
  Beta virt. eigenvalues --    0.01942   0.02213   0.02515   0.02938   0.02952
  Beta virt. eigenvalues --    0.03137   0.03446   0.03578   0.03652   0.03900
  Beta virt. eigenvalues --    0.04082   0.04226   0.04535   0.04646   0.05095
  Beta virt. eigenvalues --    0.05256   0.05370   0.05599   0.05787   0.06496
  Beta virt. eigenvalues --    0.06646   0.06813   0.07044   0.07336   0.07454
  Beta virt. eigenvalues --    0.07529   0.07750   0.07937   0.08236   0.08396
  Beta virt. eigenvalues --    0.08646   0.08722   0.08922   0.09172   0.09249
  Beta virt. eigenvalues --    0.09684   0.10047   0.10644   0.10895   0.11023
  Beta virt. eigenvalues --    0.11395   0.11515   0.11918   0.12104   0.12215
  Beta virt. eigenvalues --    0.12640   0.12818   0.13149   0.13394   0.13509
  Beta virt. eigenvalues --    0.13717   0.14012   0.14512   0.14871   0.15360
  Beta virt. eigenvalues --    0.15398   0.16202   0.16360   0.16637   0.16784
  Beta virt. eigenvalues --    0.16996   0.17268   0.17310   0.17525   0.17746
  Beta virt. eigenvalues --    0.17846   0.18550   0.18726   0.19156   0.19270
  Beta virt. eigenvalues --    0.19501   0.19730   0.19989   0.20449   0.20497
  Beta virt. eigenvalues --    0.20886   0.21044   0.21431   0.21653   0.21686
  Beta virt. eigenvalues --    0.22033   0.22404   0.22725   0.22908   0.23413
  Beta virt. eigenvalues --    0.23495   0.23628   0.23861   0.24091   0.24309
  Beta virt. eigenvalues --    0.24861   0.25221   0.25447   0.26035   0.26208
  Beta virt. eigenvalues --    0.26427   0.26900   0.27072   0.27185   0.27424
  Beta virt. eigenvalues --    0.27575   0.27885   0.28374   0.28494   0.28865
  Beta virt. eigenvalues --    0.29334   0.29442   0.29592   0.29763   0.29964
  Beta virt. eigenvalues --    0.30345   0.30657   0.30904   0.31133   0.31380
  Beta virt. eigenvalues --    0.31666   0.31903   0.31941   0.32156   0.32296
  Beta virt. eigenvalues --    0.32468   0.32810   0.32950   0.33232   0.33435
  Beta virt. eigenvalues --    0.33660   0.33970   0.34188   0.34469   0.34622
  Beta virt. eigenvalues --    0.34952   0.35159   0.35675   0.35741   0.35904
  Beta virt. eigenvalues --    0.36056   0.36469   0.36710   0.36873   0.37345
  Beta virt. eigenvalues --    0.37522   0.37577   0.37831   0.38036   0.38222
  Beta virt. eigenvalues --    0.38388   0.38690   0.38783   0.38965   0.39034
  Beta virt. eigenvalues --    0.39513   0.39713   0.39908   0.40221   0.40543
  Beta virt. eigenvalues --    0.40607   0.40744   0.40976   0.41244   0.41478
  Beta virt. eigenvalues --    0.41526   0.41956   0.42075   0.42437   0.42578
  Beta virt. eigenvalues --    0.42870   0.42948   0.43362   0.43394   0.43991
  Beta virt. eigenvalues --    0.44158   0.44290   0.44450   0.44635   0.44703
  Beta virt. eigenvalues --    0.45043   0.45264   0.45592   0.45748   0.46158
  Beta virt. eigenvalues --    0.46396   0.46475   0.46877   0.47263   0.47503
  Beta virt. eigenvalues --    0.47742   0.47899   0.48015   0.48286   0.48742
  Beta virt. eigenvalues --    0.48990   0.49412   0.49684   0.50233   0.50469
  Beta virt. eigenvalues --    0.50629   0.50704   0.51195   0.51836   0.52237
  Beta virt. eigenvalues --    0.52586   0.52845   0.52969   0.53209   0.53631
  Beta virt. eigenvalues --    0.54129   0.54318   0.54569   0.55015   0.55286
  Beta virt. eigenvalues --    0.55414   0.55823   0.56019   0.56393   0.56535
  Beta virt. eigenvalues --    0.56960   0.57190   0.57582   0.57785   0.58258
  Beta virt. eigenvalues --    0.58542   0.58961   0.59376   0.59424   0.59603
  Beta virt. eigenvalues --    0.60298   0.60387   0.60805   0.60974   0.61506
  Beta virt. eigenvalues --    0.61634   0.61811   0.62310   0.62547   0.62830
  Beta virt. eigenvalues --    0.63056   0.63336   0.63450   0.64081   0.64297
  Beta virt. eigenvalues --    0.64455   0.64761   0.65563   0.65807   0.66212
  Beta virt. eigenvalues --    0.66536   0.66849   0.67103   0.67858   0.67998
  Beta virt. eigenvalues --    0.68217   0.68516   0.69144   0.69403   0.69688
  Beta virt. eigenvalues --    0.69864   0.70720   0.71024   0.71131   0.71247
  Beta virt. eigenvalues --    0.71623   0.72203   0.72506   0.73202   0.73685
  Beta virt. eigenvalues --    0.73826   0.74250   0.74476   0.74646   0.75285
  Beta virt. eigenvalues --    0.75745   0.76027   0.76401   0.76904   0.77481
  Beta virt. eigenvalues --    0.78049   0.78177   0.78402   0.78612   0.79064
  Beta virt. eigenvalues --    0.79334   0.79815   0.80234   0.80510   0.80996
  Beta virt. eigenvalues --    0.81320   0.81929   0.82344   0.82744   0.83122
  Beta virt. eigenvalues --    0.83412   0.83987   0.84272   0.84714   0.84958
  Beta virt. eigenvalues --    0.85479   0.86011   0.86505   0.86656   0.86994
  Beta virt. eigenvalues --    0.87456   0.87752   0.88034   0.88583   0.88779
  Beta virt. eigenvalues --    0.88984   0.89498   0.89888   0.90262   0.90474
  Beta virt. eigenvalues --    0.90809   0.91154   0.91393   0.91598   0.91779
  Beta virt. eigenvalues --    0.92204   0.92540   0.92983   0.93031   0.93101
  Beta virt. eigenvalues --    0.93360   0.93540   0.94252   0.94539   0.94794
  Beta virt. eigenvalues --    0.95162   0.95298   0.96146   0.96373   0.96736
  Beta virt. eigenvalues --    0.97289   0.97598   0.97818   0.98220   0.98749
  Beta virt. eigenvalues --    0.99175   0.99469   0.99973   1.00244   1.00434
  Beta virt. eigenvalues --    1.01820   1.02083   1.02244   1.02794   1.03089
  Beta virt. eigenvalues --    1.03220   1.04502   1.04959   1.05338   1.05514
  Beta virt. eigenvalues --    1.06123   1.06576   1.07696   1.07839   1.08206
  Beta virt. eigenvalues --    1.08677   1.08887   1.09267   1.09614   1.09889
  Beta virt. eigenvalues --    1.10082   1.10531   1.10780   1.11344   1.11539
  Beta virt. eigenvalues --    1.12108   1.12337   1.12614   1.13100   1.13882
  Beta virt. eigenvalues --    1.14483   1.14807   1.15365   1.16157   1.16456
  Beta virt. eigenvalues --    1.16750   1.17076   1.17450   1.17500   1.17724
  Beta virt. eigenvalues --    1.18350   1.18470   1.18702   1.18865   1.19744
  Beta virt. eigenvalues --    1.19913   1.20025   1.20483   1.21280   1.21698
  Beta virt. eigenvalues --    1.21878   1.22656   1.23203   1.24217   1.24551
  Beta virt. eigenvalues --    1.25289   1.26226   1.26761   1.27044   1.27133
  Beta virt. eigenvalues --    1.27955   1.28107   1.28817   1.29609   1.29971
  Beta virt. eigenvalues --    1.30363   1.30855   1.32151   1.32579   1.32868
  Beta virt. eigenvalues --    1.33596   1.33800   1.34704   1.34820   1.35147
  Beta virt. eigenvalues --    1.36105   1.36223   1.36431   1.36802   1.37444
  Beta virt. eigenvalues --    1.37730   1.38127   1.38329   1.38749   1.39070
  Beta virt. eigenvalues --    1.39472   1.40021   1.40440   1.40731   1.40844
  Beta virt. eigenvalues --    1.41268   1.41460   1.42084   1.42192   1.42423
  Beta virt. eigenvalues --    1.42664   1.42804   1.42975   1.43348   1.43887
  Beta virt. eigenvalues --    1.43920   1.44327   1.44787   1.45165   1.45434
  Beta virt. eigenvalues --    1.45544   1.45725   1.45919   1.46378   1.46609
  Beta virt. eigenvalues --    1.46882   1.47142   1.47469   1.47766   1.47901
  Beta virt. eigenvalues --    1.48355   1.48542   1.48646   1.49013   1.49376
  Beta virt. eigenvalues --    1.49450   1.49862   1.50139   1.50532   1.50940
  Beta virt. eigenvalues --    1.51380   1.51566   1.52057   1.52368   1.52697
  Beta virt. eigenvalues --    1.52975   1.53064   1.53279   1.53554   1.54284
  Beta virt. eigenvalues --    1.54421   1.54785   1.55157   1.55365   1.55781
  Beta virt. eigenvalues --    1.56044   1.56479   1.56627   1.56860   1.57030
  Beta virt. eigenvalues --    1.57431   1.57589   1.58110   1.58795   1.59018
  Beta virt. eigenvalues --    1.59363   1.59804   1.60109   1.60586   1.60743
  Beta virt. eigenvalues --    1.61329   1.61483   1.61628   1.62156   1.62686
  Beta virt. eigenvalues --    1.63163   1.63291   1.63901   1.64279   1.64742
  Beta virt. eigenvalues --    1.66080   1.66205   1.67390   1.67841   1.68430
  Beta virt. eigenvalues --    1.69334   1.69436   1.70441   1.71061   1.71544
  Beta virt. eigenvalues --    1.71835   1.72103   1.72765   1.73008   1.73516
  Beta virt. eigenvalues --    1.74188   1.74662   1.75412   1.75532   1.75720
  Beta virt. eigenvalues --    1.76198   1.76624   1.76865   1.77180   1.77547
  Beta virt. eigenvalues --    1.78181   1.78345   1.78940   1.79325   1.80221
  Beta virt. eigenvalues --    1.80517   1.81357   1.81859   1.82232   1.82354
  Beta virt. eigenvalues --    1.82918   1.83562   1.83949   1.84755   1.85476
  Beta virt. eigenvalues --    1.85892   1.86123   1.86740   1.87366   1.87664
  Beta virt. eigenvalues --    1.87943   1.88618   1.89036   1.89478   1.89662
  Beta virt. eigenvalues --    1.90580   1.90670   1.90929   1.91331   1.91795
  Beta virt. eigenvalues --    1.92431   1.92509   1.92802   1.93399   1.94178
  Beta virt. eigenvalues --    1.94593   1.95495   1.95997   1.96723   1.97259
  Beta virt. eigenvalues --    1.97523   1.98104   1.98289   1.98981   1.99333
  Beta virt. eigenvalues --    1.99614   1.99825   2.00259   2.00610   2.01209
  Beta virt. eigenvalues --    2.01598   2.02173   2.02619   2.03031   2.03749
  Beta virt. eigenvalues --    2.03949   2.04328   2.04661   2.05319   2.05662
  Beta virt. eigenvalues --    2.06530   2.06958   2.07501   2.07701   2.08088
  Beta virt. eigenvalues --    2.08513   2.08576   2.09607   2.10056   2.10801
  Beta virt. eigenvalues --    2.11144   2.11770   2.12177   2.12515   2.13012
  Beta virt. eigenvalues --    2.13605   2.14734   2.15253   2.15447   2.16021
  Beta virt. eigenvalues --    2.16337   2.16653   2.17029   2.17188   2.17643
  Beta virt. eigenvalues --    2.18180   2.18725   2.19122   2.20083   2.20218
  Beta virt. eigenvalues --    2.20674   2.21186   2.21705   2.22565   2.22899
  Beta virt. eigenvalues --    2.23481   2.23589   2.24451   2.25228   2.25343
  Beta virt. eigenvalues --    2.26082   2.26473   2.26598   2.27596   2.27888
  Beta virt. eigenvalues --    2.27993   2.28441   2.28507   2.28809   2.29100
  Beta virt. eigenvalues --    2.29576   2.29784   2.30256   2.30546   2.31262
  Beta virt. eigenvalues --    2.31723   2.31788   2.32446   2.33034   2.33813
  Beta virt. eigenvalues --    2.34367   2.34737   2.35033   2.35345   2.35454
  Beta virt. eigenvalues --    2.36145   2.36459   2.36668   2.37205   2.37905
  Beta virt. eigenvalues --    2.38193   2.38257   2.39079   2.39899   2.40017
  Beta virt. eigenvalues --    2.40543   2.40914   2.42163   2.42533   2.43138
  Beta virt. eigenvalues --    2.43245   2.43452   2.43713   2.43842   2.44325
  Beta virt. eigenvalues --    2.44968   2.45476   2.45975   2.46335   2.46586
  Beta virt. eigenvalues --    2.47056   2.47446   2.47637   2.47884   2.48325
  Beta virt. eigenvalues --    2.48884   2.49077   2.49717   2.49858   2.50253
  Beta virt. eigenvalues --    2.50601   2.50986   2.51342   2.52106   2.53028
  Beta virt. eigenvalues --    2.53231   2.53401   2.53935   2.54380   2.54513
  Beta virt. eigenvalues --    2.55049   2.55346   2.56049   2.56431   2.56775
  Beta virt. eigenvalues --    2.56984   2.57397   2.57711   2.58352   2.58899
  Beta virt. eigenvalues --    2.59043   2.59421   2.59576   2.59979   2.60569
  Beta virt. eigenvalues --    2.61029   2.61206   2.61968   2.62375   2.63145
  Beta virt. eigenvalues --    2.63518   2.64092   2.64341   2.64595   2.64809
  Beta virt. eigenvalues --    2.65217   2.66062   2.66684   2.67288   2.67467
  Beta virt. eigenvalues --    2.68089   2.68258   2.68498   2.68853   2.69750
  Beta virt. eigenvalues --    2.70530   2.70899   2.71126   2.71858   2.71947
  Beta virt. eigenvalues --    2.72360   2.73071   2.73192   2.73603   2.73888
  Beta virt. eigenvalues --    2.74489   2.74790   2.74989   2.75696   2.75859
  Beta virt. eigenvalues --    2.76073   2.76285   2.77263   2.77655   2.77955
  Beta virt. eigenvalues --    2.78406   2.78837   2.79168   2.79599   2.79743
  Beta virt. eigenvalues --    2.80392   2.80560   2.80800   2.81248   2.81776
  Beta virt. eigenvalues --    2.82267   2.82685   2.83337   2.83633   2.83890
  Beta virt. eigenvalues --    2.84037   2.84493   2.84872   2.85466   2.85808
  Beta virt. eigenvalues --    2.85902   2.86215   2.86441   2.86891   2.87786
  Beta virt. eigenvalues --    2.88074   2.88321   2.88644   2.88909   2.89405
  Beta virt. eigenvalues --    2.90134   2.90446   2.90588   2.90901   2.91103
  Beta virt. eigenvalues --    2.91892   2.92299   2.92532   2.92970   2.93431
  Beta virt. eigenvalues --    2.93791   2.94751   2.94957   2.95062   2.95319
  Beta virt. eigenvalues --    2.95804   2.96618   2.96733   2.96824   2.97293
  Beta virt. eigenvalues --    2.97411   2.97595   2.98165   2.98320   2.98601
  Beta virt. eigenvalues --    2.98909   2.99527   2.99943   3.00271   3.00723
  Beta virt. eigenvalues --    3.01094   3.01620   3.01838   3.02087   3.02518
  Beta virt. eigenvalues --    3.02599   3.02894   3.03334   3.03492   3.04025
  Beta virt. eigenvalues --    3.04445   3.04749   3.04893   3.05182   3.05939
  Beta virt. eigenvalues --    3.06281   3.06713   3.07130   3.07482   3.07565
  Beta virt. eigenvalues --    3.08013   3.08500   3.08878   3.09046   3.09432
  Beta virt. eigenvalues --    3.09591   3.09901   3.10161   3.10746   3.10795
  Beta virt. eigenvalues --    3.11155   3.11793   3.12003   3.12321   3.12574
  Beta virt. eigenvalues --    3.12935   3.13379   3.13550   3.13920   3.14123
  Beta virt. eigenvalues --    3.14562   3.14625   3.14912   3.15044   3.15555
  Beta virt. eigenvalues --    3.15978   3.16349   3.16756   3.16820   3.16897
  Beta virt. eigenvalues --    3.17056   3.17666   3.17743   3.18397   3.18778
  Beta virt. eigenvalues --    3.18845   3.19135   3.19535   3.19698   3.19931
  Beta virt. eigenvalues --    3.20169   3.20533   3.20697   3.21081   3.21230
  Beta virt. eigenvalues --    3.21586   3.21817   3.21977   3.22706   3.22828
  Beta virt. eigenvalues --    3.22960   3.23271   3.23414   3.23770   3.24039
  Beta virt. eigenvalues --    3.24573   3.24672   3.24808   3.25265   3.25428
  Beta virt. eigenvalues --    3.25543   3.25811   3.26507   3.26726   3.27050
  Beta virt. eigenvalues --    3.27329   3.27487   3.27826   3.28156   3.28361
  Beta virt. eigenvalues --    3.28631   3.28816   3.28976   3.29141   3.29395
  Beta virt. eigenvalues --    3.29793   3.30236   3.30723   3.31087   3.31427
  Beta virt. eigenvalues --    3.31737   3.32157   3.32670   3.33295   3.33871
  Beta virt. eigenvalues --    3.34217   3.34583   3.34992   3.35331   3.35915
  Beta virt. eigenvalues --    3.36243   3.36462   3.37122   3.37680   3.37894
  Beta virt. eigenvalues --    3.38802   3.39031   3.39351   3.40019   3.40349
  Beta virt. eigenvalues --    3.40682   3.41292   3.41508   3.42658   3.42825
  Beta virt. eigenvalues --    3.43321   3.43692   3.43984   3.44653   3.44891
  Beta virt. eigenvalues --    3.45436   3.45903   3.46089   3.46369   3.47085
  Beta virt. eigenvalues --    3.47882   3.48045   3.48800   3.48979   3.49465
  Beta virt. eigenvalues --    3.49776   3.50620   3.50875   3.51219   3.51711
  Beta virt. eigenvalues --    3.52658   3.53434   3.53751   3.53825   3.54218
  Beta virt. eigenvalues --    3.54430   3.55870   3.56103   3.56472   3.57390
  Beta virt. eigenvalues --    3.57538   3.57896   3.58207   3.59221   3.59476
  Beta virt. eigenvalues --    3.60367   3.60400   3.60668   3.60936   3.61671
  Beta virt. eigenvalues --    3.62168   3.62409   3.62703   3.63142   3.63650
  Beta virt. eigenvalues --    3.63722   3.64265   3.64650   3.64870   3.65036
  Beta virt. eigenvalues --    3.65754   3.66337   3.66735   3.67526   3.67857
  Beta virt. eigenvalues --    3.68448   3.69307   3.69858   3.70113   3.70548
  Beta virt. eigenvalues --    3.70973   3.71634   3.72008   3.73241   3.73311
  Beta virt. eigenvalues --    3.74255   3.74537   3.74940   3.75695   3.75907
  Beta virt. eigenvalues --    3.76894   3.77176   3.78083   3.78882   3.79133
  Beta virt. eigenvalues --    3.79663   3.79868   3.80778   3.81531   3.81926
  Beta virt. eigenvalues --    3.82594   3.82882   3.83315   3.83501   3.85742
  Beta virt. eigenvalues --    3.85987   3.86498   3.87008   3.88040   3.88297
  Beta virt. eigenvalues --    3.88618   3.89128   3.89586   3.90191   3.90744
  Beta virt. eigenvalues --    3.91456   3.91983   3.92824   3.93494   3.93848
  Beta virt. eigenvalues --    3.94418   3.94762   3.95550   3.95824   3.96936
  Beta virt. eigenvalues --    3.97474   3.98465   3.98731   3.99180   4.00211
  Beta virt. eigenvalues --    4.01101   4.01431   4.01797   4.02745   4.02950
  Beta virt. eigenvalues --    4.03599   4.04237   4.04589   4.05035   4.05843
  Beta virt. eigenvalues --    4.06773   4.07075   4.07634   4.08433   4.08685
  Beta virt. eigenvalues --    4.09012   4.09493   4.10393   4.10792   4.11846
  Beta virt. eigenvalues --    4.12397   4.13762   4.14227   4.14667   4.14898
  Beta virt. eigenvalues --    4.15043   4.15777   4.16131   4.16480   4.17489
[...]
  1282. RY*(   2) C  70                  0.00107     1.01019   
  1283. RY*(   3) C  70                  0.00097     1.28368   
  1284. RY*(   4) C  70                  0.00079     2.06937   
  1285. RY*(   5) C  70                  0.00060     1.94176   
  1286. RY*(   6) C  70                  0.00044     1.91745   
  1287. RY*(   7) C  70                  0.00019     2.61940   
  1288. RY*(   8) C  70                  0.00015     1.81463   
  1289. RY*(   9) C  70                  0.00007     2.70780   
  1290. RY*(  10) C  70                  0.00004     3.17609   
  1291. RY*(  11) C  70                  0.00004     2.96559   
  1292. RY*(  12) C  70                  0.00000    18.19048   
  1293. RY*(  13) C  70                  0.00000     1.26100   
  1294. RY*(  14) C  70                  0.00001     5.03489   
  1295. RY*(  15) C  70                  0.00000     2.74715   
  1296. RY*(  16) C  70                  0.00001     2.10571   
  1297. RY*(  17) C  70                  0.00000     1.29701   
  1298. RY*(  18) C  70                  0.00001     1.90020   
  1299. RY*(  19) C  70                  0.00000     3.19311   
  1300. RY*(  20) C  70                  0.00000     3.49002   
  1301. RY*(  21) C  70                  0.00001     3.63819   
  1302. RY*(  22) C  70                  0.00000     3.54305   
  1303. RY*(  23) C  70                  0.00000     3.57609   
  1304. RY*(  24) C  70                  0.00000     3.41092   
  1305. RY*(  25) C  70                  0.00000     3.26359   
  1306. RY*(  26) C  70                  0.00000     3.26837   
  1307. RY*(   1) C  71                  0.00197     1.51425   
  1308. RY*(   2) C  71                  0.00164     0.72341   
  1309. RY*(   3) C  71                  0.00100     1.14969   
  1310. RY*(   4) C  71                  0.00063     2.27805   
  1311. RY*(   5) C  71                  0.00037     1.55996   
  1312. RY*(   6) C  71                  0.00020     1.52318   
  1313. RY*(   7) C  71                  0.00014     1.58388   
  1314. RY*(   8) C  71                  0.00007     2.79208   
  1315. RY*(   9) C  71                  0.00003     2.07540   
  1316. RY*(  10) C  71                  0.00002     2.46830   
  1317. RY*(  11) C  71                  0.00001     2.54213   
  1318. RY*(  12) C  71                  0.00001     1.56462   
  1319. RY*(  13) C  71                  0.00001     2.15956   
  1320. RY*(  14) C  71                  0.00000    21.46685   
  1321. RY*(  15) C  71                  0.00001     2.61553   
  1322. RY*(  16) C  71                  0.00000     3.33792   
  1323. RY*(  17) C  71                  0.00001     2.68907   
  1324. RY*(  18) C  71                  0.00000     3.18889   
  1325. RY*(  19) C  71                  0.00001     2.67653   
  1326. RY*(  20) C  71                  0.00001     3.66603   
  1327. RY*(  21) C  71                  0.00000     3.93548   
  1328. RY*(  22) C  71                  0.00000     3.50181   
  1329. RY*(  23) C  71                  0.00000     3.64696   
  1330. RY*(  24) C  71                  0.00000     3.47845   
  1331. RY*(  25) C  71                  0.00000     3.39650   
  1332. RY*(  26) C  71                  0.00000     3.37289   
  1333. RY*(   1) H  72                  0.00029     0.76246   
  1334. RY*(   2) H  72                  0.00015     2.22728   
  1335. RY*(   3) H  72                  0.00010     1.99209   
  1336. RY*(   4) H  72                  0.00005     2.30016   
  1337. RY*(   5) H  72                  0.00001     3.02734   
  1338. RY*(   1) N  73                  0.00355     1.02237   
  1339. RY*(   2) N  73                  0.00302     1.39794   
  1340. RY*(   3) N  73                  0.00179     0.85931   
  1341. RY*(   4) N  73                  0.00057     1.26230   
  1342. RY*(   5) N  73                  0.00037     1.71134   
  1343. RY*(   6) N  73                  0.00026     2.03821   
  1344. RY*(   7) N  73                  0.00020     2.49397   
  1345. RY*(   8) N  73                  0.00017     3.20451   
  1346. RY*(   9) N  73                  0.00007     3.05074   
  1347. RY*(  10) N  73                  0.00005     2.47772   
  1348. RY*(  11) N  73                  0.00003     3.33197   
  1349. RY*(  12) N  73                  0.00003     3.04889   
  1350. RY*(  13) N  73                  0.00004     2.58659   
  1351. RY*(  14) N  73                  0.00000    31.42489   
  1352. RY*(  15) N  73                  0.00000     4.20947   
  1353. RY*(  16) N  73                  0.00001     3.98366   
  1354. RY*(  17) N  73                  0.00000     4.32677   
  1355. RY*(  18) N  73                  0.00001     4.61464   
  1356. RY*(  19) N  73                  0.00001     3.30271   
  1357. RY*(  20) N  73                  0.00000     4.28708   
  1358. RY*(  21) N  73                  0.00001     4.73745   
  1359. RY*(  22) N  73                  0.00000     3.98700   
  1360. RY*(  23) N  73                  0.00000     4.47421   
  1361. RY*(  24) N  73                  0.00000     4.54009   
  1362. RY*(  25) N  73                  0.00000     4.46138   
  1363. RY*(  26) N  73                  0.00000     4.50797   
  1364. RY*(   1) C  74                  0.00181     1.51201   
  1365. RY*(   2) C  74                  0.00131     0.62685   
  1366. RY*(   3) C  74                  0.00081     1.68802   
  1367. RY*(   4) C  74                  0.00033     1.90164   
  1368. RY*(   5) C  74                  0.00028     1.68191   
  1369. RY*(   6) C  74                  0.00022     1.70198   
  1370. RY*(   7) C  74                  0.00020     1.73513   
  1371. RY*(   8) C  74                  0.00011     1.70861   
  1372. RY*(   9) C  74                  0.00009     1.90661   
  1373. RY*(  10) C  74                  0.00006     1.46639   
  1374. RY*(  11) C  74                  0.00003     1.68683   
  1375. RY*(  12) C  74                  0.00003     3.18314   
  1376. RY*(  13) C  74                  0.00003     1.98503   
  1377. RY*(  14) C  74                  0.00002     2.97363   
  1378. RY*(  15) C  74                  0.00001     1.28991   
  1379. RY*(  16) C  74                  0.00000    21.04929   
  1380. RY*(  17) C  74                  0.00000     3.39666   
  1381. RY*(  18) C  74                  0.00001     1.80675   
  1382. RY*(  19) C  74                  0.00000     3.19861   
  1383. RY*(  20) C  74                  0.00000     3.74360   
  1384. RY*(  21) C  74                  0.00000     3.88496   
  1385. RY*(  22) C  74                  0.00000     3.39578   
  1386. RY*(  23) C  74                  0.00000     3.53546   
  1387. RY*(  24) C  74                  0.00000     3.37592   
  1388. RY*(  25) C  74                  0.00000     3.34125   
  1389. RY*(  26) C  74                  0.00000     3.43049   
  1390. RY*(   1) H  75                  0.00032     0.85425   
  1391. RY*(   2) H  75                  0.00013     2.12596   
  1392. RY*(   3) H  75                  0.00011     2.19042   
  1393. RY*(   4) H  75                  0.00004     2.58240   
  1394. RY*(   5) H  75                  0.00001     2.98994   
  1395. BD*(   1)Fe   1 - N   5          0.10862     0.04636  148(g),1396(g),149(g),150(g)
                                                    264(g),239(r),187(r),1340(v)
                                                    1341(v),1339(v),152(g)
                                                    186(r),162(g),188(r),240(r)
  1396. BD*(   1)Fe   1 - N  73          0.05006     0.01357   
  1397. BD*(   1) N   2 - C   6          0.01330     0.38773   
  1398. BD*(   2) N   2 - C   6          0.32485    -0.11071  1443(v),1411(v),1416(v)
                                                    291(g),1403(r),152(r),185(g)
                                                    705(v),148(r)
  1399. BD*(   1) N   2 - C   9          0.01322     0.39094   
  1400. BD*(   1) N   3 - C  10          0.01344     0.38586   
  1401. BD*(   1) N   3 - C  13          0.01306     0.38597   
  1402. BD*(   1) N   4 - C  14          0.01388     0.38559   
  1403. BD*(   2) N   4 - C  14          0.33002    -0.11122  1425(v),1429(v),1434(v)
                                                    150(r),1398(r),152(r),499(g)
                                                    498(g),237(g),148(r)
  1404. BD*(   1) N   4 - C  17          0.01288     0.38832   
  1405. BD*(   1) N   5 - C  18          0.01358     0.38216   
  1406. BD*(   2) N   5 - C  18          0.33470    -0.11243  1434(v),1438(v),1443(v)
                                                    150(v),603(g),152(v),8(r)
                                                    265(g),799(v),267(g)
  1407. BD*(   1) N   5 - C  21          0.01358     0.38129   
  1408. BD*(   1) C   6 - C   7          0.01753     0.38148   
  1409. BD*(   1) C   6 - C  22          0.01039     0.46206   
  1410. BD*(   1) C   7 - C   8          0.01152     0.50338   
  1411. BD*(   2) C   7 - C   8          0.11727    -0.03473  1416(v),1398(v),1452(v)
                                                    1450(v),1449(v),1451(v)
  1412. BD*(   1) C   7 - C  34          0.00813     0.31633   
  1413. BD*(   1) C   8 - C   9          0.01722     0.38150   
  1414. BD*(   1) C   8 - C  30          0.00804     0.31786   
  1415. BD*(   1) C   9 - C  24          0.01016     0.46999   
  1416. BD*(   2) C   9 - C  24          0.19339    -0.06184  8(v),1411(v),1398(v),1425(r)
                                                    371(g),736(g),1443(r)
  1417. BD*(   1) C  10 - C  11          0.01694     0.38569   
  1418. BD*(   1) C  10 - C  24          0.01030     0.46361   
  1419. BD*(   1) C  11 - C  12          0.01265     0.48651   
  1420. BD*(   2) C  11 - C  12          0.13774    -0.03970  1459(v),1425(v),8(v),1455(v)
                                                    1454(v)
  1421. BD*(   1) C  11 - C  38          0.00769     0.31796   
  1422. BD*(   1) C  12 - C  13          0.01710     0.37640   
  1423. BD*(   1) C  12 - C  42          0.01337     0.39539   
  1424. BD*(   1) C  13 - C  26          0.01022     0.46468   
  1425. BD*(   2) C  13 - C  26          0.19320    -0.06471  1403(v),1420(v),8(v),1434(r)
                                                    1416(r),768(g)
  1426. BD*(   1) C  14 - C  15          0.01722     0.39129   
  1427. BD*(   1) C  14 - C  26          0.01063     0.45982   
  1428. BD*(   1) C  15 - C  16          0.01254     0.48740   
  1429. BD*(   2) C  15 - C  16          0.13750    -0.03794  1467(v),1434(v),1403(v)
                                                    1463(v)
  1430. BD*(   1) C  15 - C  47          0.00767     0.32041   
  1431. BD*(   1) C  16 - C  17          0.01675     0.37856   
  1432. BD*(   1) C  16 - C  51          0.01328     0.39967   
  1433. BD*(   1) C  17 - C  28          0.01019     0.46381   
  1434. BD*(   2) C  17 - C  28          0.19633    -0.06338  1406(v),1429(v),1403(v)
                                                    1425(r),799(g),1443(r)
                                                    579(g)
  1435. BD*(   1) C  18 - C  19          0.01713     0.37924   
  1436. BD*(   1) C  18 - C  28          0.01025     0.46500   
  1437. BD*(   1) C  19 - C  20          0.01152     0.50044   
  1438. BD*(   2) C  19 - C  20          0.12119    -0.03671  1443(v),1406(v),1471(v)
                                                    1475(v),1470(v),1473(v)
  1439. BD*(   1) C  19 - C  56          0.00799     0.31614   
  1440. BD*(   1) C  20 - C  21          0.01737     0.37920   
  1441. BD*(   1) C  20 - C  60          0.00805     0.31459   
  1442. BD*(   1) C  21 - C  22          0.01034     0.46281   
  1443. BD*(   2) C  21 - C  22          0.20157    -0.06765  1398(v),1438(v),1406(v)
                                                    705(g),1434(r),1416(r)
                                                    683(g)
  1444. BD*(   1) C  22 - H  23          0.00618     0.32776   
  1445. BD*(   1) C  24 - H  25          0.00609     0.32759   
  1446. BD*(   1) C  26 - H  27          0.00669     0.32886   
  1447. BD*(   1) C  28 - H  29          0.00626     0.32759   
  1448. BD*(   1) C  30 - H  31          0.00300     0.30408   
  1449. BD*(   1) C  30 - H  32          0.00453     0.29251   
  1450. BD*(   1) C  30 - H  33          0.00468     0.29008   
  1451. BD*(   1) C  34 - H  35          0.00452     0.28848   
  1452. BD*(   1) C  34 - H  36          0.00486     0.29070   
  1453. BD*(   1) C  34 - H  37          0.00299     0.30330   
  1454. BD*(   1) C  38 - H  39          0.00436     0.29458   
  1455. BD*(   1) C  38 - H  40          0.00518     0.28998   
  1456. BD*(   1) C  38 - H  41          0.00366     0.30394   
  1457. BD*(   1) C  42 - H  43          0.01029     0.32910   
  1458. BD*(   1) C  42 - C  44          0.00367     0.54054   
  1459. BD*(   2) C  42 - C  44          0.02817    -0.03214   
  1460. BD*(   1) C  44 - H  45          0.00509     0.34771   
  1461. BD*(   1) C  44 - H  46          0.00382     0.35137   
  1462. BD*(   1) C  47 - H  48          0.00436     0.29676   
  1463. BD*(   1) C  47 - H  49          0.00546     0.29273   
  1464. BD*(   1) C  47 - H  50          0.00376     0.30640   
  1465. BD*(   1) C  51 - H  52          0.01028     0.33318   
  1466. BD*(   1) C  51 - C  53          0.00366     0.54328   
  1467. BD*(   2) C  51 - C  53          0.02983    -0.02822   
  1468. BD*(   1) C  53 - H  54          0.00509     0.35108   
  1469. BD*(   1) C  53 - H  55          0.00383     0.35455   
  1470. BD*(   1) C  56 - H  57          0.00430     0.28993   
  1471. BD*(   1) C  56 - H  58          0.00450     0.29131   
  1472. BD*(   1) C  56 - H  59          0.00299     0.30275   
  1473. BD*(   1) C  60 - H  61          0.00443     0.28727   
  1474. BD*(   1) C  60 - H  62          0.00297     0.30233   
  1475. BD*(   1) C  60 - H  63          0.00454     0.29039   
  1476. BD*(   1) C  64 - H  65          0.00504     0.26710   
  1477. BD*(   1) C  64 - H  66          0.00153     0.27885   
  1478. BD*(   1) C  64 - H  67          0.00477     0.26717   
  1479. BD*(   1) C  64 - C  70          0.00604     0.28407   
  1480. BD*(   1) N  68 - H  69          0.00640     0.25826   
  1481. BD*(   1) N  68 - C  70          0.01371     0.31282   
  1482. BD*(   1) N  68 - C  71          0.01011     0.32343   
  1483. BD*(   1) C  70 - C  74          0.01036     0.44632   
  1484. BD*(   2) C  70 - C  74          0.13838    -0.08294  1487(v),1476(v),1478(v)
                                                    1369(g)
  1485. BD*(   1) C  71 - H  72          0.00874     0.26631   
  1486. BD*(   1) C  71 - N  73          0.00802     0.40496   
  1487. BD*(   2) C  71 - N  73          0.22316    -0.13821  1484(v),1308(g),150(v)
  1488. BD*(   1) N  73 - C  74          0.00783     0.35097   
  1489. BD*(   1) C  74 - H  75          0.00708     0.30928   
       -------------------------------
              Total Lewis  147.45665  ( 97.0110%)
        Valence non-Lewis    4.26727  (  2.8074%)
        Rydberg non-Lewis    0.27608  (  0.1816%)
       -------------------------------
            Total unit  1  152.00000  (100.0000%)
           Charge unit  1    1.00000
 Unable to Open any file for archive entry.
 1\1\GINC-BGN1015\SP\UAPFD\def2TZVP\C34H34Fe1N6(1+,2)\BECSLEIP\25-Oct-2
 024\0\\# apfd/def2TZVP guess=read scf=maxcycle=999 geom=check pop=nbo\
 \5zeo_III_D\\1,2\Fe,0,5.9866208904,-5.8056509418,-8.9349149797\N,0,5.7
 629722393,-7.5819300705,-8.0336093924\N,0,5.3884589037,-4.9062318613,-
 7.2400387184\N,0,6.1308551006,-4.022583335,-9.829773046\N,0,6.45028303
 62,-6.7230894326,-10.6337840541\C,0,6.0288389123,-8.8046646021,-8.5726
 878022\C,0,5.8361610629,-9.8522015346,-7.5955039423\C,0,5.4404030689,-
 9.2361897862,-6.4499325225\C,0,5.4083238891,-7.8204144052,-6.740860516
 8\C,0,5.1036455842,-5.4951441868,-6.0446169185\C,0,4.8343709767,-4.507
 6371906,-5.0308717805\C,0,4.9750227471,-3.2878084707,-5.635352843\C,0,
 5.3155687395,-3.5646766888,-7.0171324994\C,0,5.78222687,-2.8144114663,
 -9.3036968875\C,0,5.6983936646,-1.8046485869,-10.3245454485\C,0,5.9975
 137313,-2.4305582882,-11.5061176209\C,0,6.2545288878,-3.8164124358,-11
 .1699168913\C,0,6.622670562,-6.1404050071,-11.853053054\C,0,6.79139730
 6,-7.1401910418,-12.8830674237\C,0,6.7268327977,-8.3460814196,-12.2576
 69327\C,0,6.5065242063,-8.0655286876,-10.8569690971\C,0,6.3790724805,-
 9.0423084527,-9.8884845168\H,0,6.5070184773,-10.0695959103,-10.1938842
 106\C,0,5.0700465569,-6.8578811988,-5.8133209612\H,0,4.796380535,-7.19
 22337272,-4.824732684\C,0,5.5063896232,-2.5818163299,-7.9666209442\H,0
 ,5.3299873989,-1.56032235,-7.6658809274\C,0,6.5856479838,-4.7825280206
 ,-12.1018335704\H,0,6.707444514,-4.4666623959,-13.1265508259\C,0,5.091
 2030972,-9.8305853285,-5.1289235595\H,0,5.168121342,-10.9145298876,-5.
 1598283231\H,0,4.0710160311,-9.5675154935,-4.8498055147\H,0,5.76062915
 71,-9.4602911941,-4.3519100759\C,0,6.0380485505,-11.3038069726,-7.8664
 884457\H,0,7.0492477902,-11.4922224266,-8.227684814\H,0,5.3376977821,-
 11.6515717941,-8.626279925\H,0,5.8819040803,-11.890247697,-6.964470702
 \C,0,4.5448638,-4.8044793676,-3.6011069083\H,0,5.1445129699,-5.6436214
 081,-3.2518057223\H,0,3.4930597772,-5.0601892827,-3.4634406233\H,0,4.7
 703276934,-3.9353139003,-2.9866414332\C,0,4.8422322888,-1.9624356638,-
 5.0704645111\H,0,5.5025169537,-1.2088685654,-5.4844748784\C,0,3.988405
 3932,-1.6142928753,-4.1135964041\H,0,3.2780430037,-2.3082223711,-3.699
 5675656\H,0,3.9532229845,-0.6085072846,-3.7288560401\C,0,5.3997095637,
 -0.3662175281,-10.0854564847\H,0,5.8598437565,-0.0242366684,-9.1596164
 726\H,0,4.3240717813,-0.2005325901,-10.0073456924\H,0,5.782062486,0.23
 58764943,-10.9072992996\C,0,6.0620577472,-1.878701254,-12.8413857493\H
 ,0,6.8012888013,-2.3244541467,-13.4968255237\C,0,5.2980074032,-0.89674
 22656,-13.308391956\H,0,4.5151206509,-0.4506102554,-12.7207903064\H,0,
 5.4119683512,-0.5240346295,-14.3128406229\C,0,6.9867183121,-6.83405775
 82,-14.3279797629\H,0,7.8744203188,-6.2180746296,-14.4730958644\H,0,6.
 1287221399,-6.2890647676,-14.7220670823\H,0,7.1052351648,-7.7481667135
 ,-14.9044837259\C,0,6.8238795236,-9.7169281591,-12.8341859891\H,0,7.64
 37114454,-10.2704197872,-12.37538794\H,0,6.9983980048,-9.6735431096,-1
 3.9062606282\H,0,5.9019967915,-10.2716351016,-12.6588145985\C,0,11.012
 7213877,-4.1940296842,-7.0822277515\H,0,11.3796395876,-4.6308676633,-6
 .15367278\H,0,10.689083181,-3.1773740802,-6.8837405187\H,0,11.83670514
 5,-4.1660267965,-7.7946693602\N,0,10.0020302848,-6.2906864078,-8.00534
 32288\H,0,10.8469042859,-6.8368000706,-7.9622288127\C,0,9.8759972294,-
 4.9812106216,-7.6228182468\C,0,8.795505374,-6.7074577807,-8.4491066049
 \H,0,8.5986795446,-7.6953718208,-8.8138815386\N,0,7.9091438717,-5.7415
 237583,-8.3704733982\C,0,8.5696376981,-4.6605957621,-7.8570946466\H,0,
 8.0640867267,-3.7310033466,-7.6927465617\\Version=ES64L-G16RevC.02\Sta
 te=2-A\HF=-2907.3993824\S2=0.916755\S2-1=0.\S2A=0.757248\RMSD=3.287e-0
 9\Dipole=2.1800808,-0.6807216,0.4975584\Quadrupole=-12.1074909,7.61904
 44,4.4884465,-7.257824,-3.4154371,1.4118481\PG=C01 [X(C34H34Fe1N6)]\\@
 The archive entry for this job was punched.


 IT IS THE GODS' CUSTOM TO BRING LOW ALL THINGS OF SURPASSING GREATNESS.
     -- HERODOTUS
 IT IS THE LOFTY PINE THAT BY THE STORM IS OFTENER TOSSED;
 TOWERS FALL WITH HEAVIER CRASH WHICH HIGHER SOAR.
     -- HORACE
 THE BIGGER THEY COME, THE HARDER THEY FALL.
     -- BOB FITZSIMONS HEAVYWEIGHT CHAMPION, 1897-1899
 Job cpu time:       2 days  2 hours 54 minutes 27.5 seconds.
 Elapsed time:       0 days  0 hours 46 minutes 53.9 seconds.
 File lengths (MBytes):  RWF=   2047 Int=      0 D2E=      0 Chk=    186 Scr=      1
 Normal termination of Gaussian 16 at Fri Oct 25 23:30:12 2024.
