 Entering Gaussian System, Link 0=g16
 Input=5zzg16re.com
 Output=5zzg16re.log
 Initial command:
 /sw/chem/gaussian/g16_C02/a100/g16/l1.exe "/local/becsleip_8061440/Gau-1034488.inp" -scrdir="/local/becsleip_8061440/"
 Entering Link 1 = /sw/chem/gaussian/g16_C02/a100/g16/l1.exe PID=   1034489.
  
 Copyright (c) 1988-2021, Gaussian, Inc.  All Rights Reserved.
  
 This is part of the Gaussian(R) 16 program.  It is based on
 the Gaussian(R) 09 system (copyright 2009, Gaussian, Inc.),
 the Gaussian(R) 03 system (copyright 2003, Gaussian, Inc.),
 the Gaussian(R) 98 system (copyright 1998, Gaussian, Inc.),
 the Gaussian(R) 94 system (copyright 1995, Gaussian, Inc.),
 the Gaussian 92(TM) system (copyright 1992, Gaussian, Inc.),
 the Gaussian 90(TM) system (copyright 1990, Gaussian, Inc.),
 the Gaussian 88(TM) system (copyright 1988, Gaussian, Inc.),
 the Gaussian 86(TM) system (copyright 1986, Carnegie Mellon
 University), and the Gaussian 82(TM) system (copyright 1983,
 Carnegie Mellon University). Gaussian is a federally registered
 trademark of Gaussian, Inc.
  
 This software contains proprietary and confidential information,
 including trade secrets, belonging to Gaussian, Inc.
  
 This software is provided under written license and may be
 used, copied, transmitted, or stored only in accord with that
 written license.
  
 The following legend is applicable only to US Government
 contracts under FAR:
  
                    RESTRICTED RIGHTS LEGEND
  
 Use, reproduction and disclosure by the US Government is
 subject to restrictions as set forth in subparagraphs (a)
 and (c) of the Commercial Computer Software - Restricted
 Rights clause in FAR 52.227-19.
  
 Gaussian, Inc.
 340 Quinnipiac St., Bldg. 40, Wallingford CT 06492
  
  
 ---------------------------------------------------------------
 Warning -- This program may not be used in any manner that
 competes with the business of Gaussian, Inc. or will provide
 assistance to any competitor of Gaussian, Inc.  The licensee
 of this program is prohibited from giving any competitor of
 Gaussian, Inc. access to this program.  By using this program,
 the user acknowledges that Gaussian, Inc. is engaged in the
 business of creating and licensing software in the field of
 computational chemistry and represents and warrants to the
 licensee that it is not a competitor of Gaussian, Inc. and that
 it will not use this program in any manner prohibited above.
 ---------------------------------------------------------------
  

 Cite this work as:
 Gaussian 16, Revision C.02,
 M. J. Frisch, G. W. Trucks, H. B. Schlegel, G. E. Scuseria, 
 M. A. Robb, J. R. Cheeseman, G. Scalmani, V. Barone, 
 G. A. Petersson, H. Nakatsuji, X. Li, M. Caricato, A. V. Marenich, 
 J. Bloino, B. G. Janesko, R. Gomperts, B. Mennucci, H. P. Hratchian, 
 J. V. Ortiz, A. F. Izmaylov, J. L. Sonnenberg, D. Williams-Young, 
 F. Ding, F. Lipparini, F. Egidi, J. Goings, B. Peng, A. Petrone, 
 T. Henderson, D. Ranasinghe, V. G. Zakrzewski, J. Gao, N. Rega, 
 G. Zheng, W. Liang, M. Hada, M. Ehara, K. Toyota, R. Fukuda, 
 J. Hasegawa, M. Ishida, T. Nakajima, Y. Honda, O. Kitao, H. Nakai, 
 T. Vreven, K. Throssell, J. A. Montgomery, Jr., J. E. Peralta, 
 F. Ogliaro, M. J. Bearpark, J. J. Heyd, E. N. Brothers, K. N. Kudin, 
 V. N. Staroverov, T. A. Keith, R. Kobayashi, J. Normand, 
 K. Raghavachari, A. P. Rendell, J. C. Burant, S. S. Iyengar, 
 J. Tomasi, M. Cossi, J. M. Millam, M. Klene, C. Adamo, R. Cammi, 
 J. W. Ochterski, R. L. Martin, K. Morokuma, O. Farkas, 
 J. B. Foresman, and D. J. Fox, Gaussian, Inc., Wallingford CT, 2019.
 
 ******************************************
 Gaussian 16:  ES64L-G16RevC.02  7-Dec-2021
                26-Oct-2024 
 ******************************************
 %mem=16GB
 %CPU=0-71
 SetSPE:  set environment variable "OMP_PROC_BIND" = "true"
 SetSPE:  set environment variable "OMP_PLACES" = "{0},{1},{2},{3},{4},{5},{6},{7},{8},{9},{10},{11},{12},{13},{14},{15},{16},{17},{18},{19},{20},{21},{22},{23},{24},{25},{26},{27},{28},{29},{30},{31},{32},{33},{34},{35},{36},{37},{38},{39},{40},{41},{42},{43},{44},{45},{46},{47},{48},{49},{50},{51},{52},{53},{54},{55},{56},{57},{58},{59},{60},{61},{62},{63},{64},{65},{66},{67},{68},{69},{70},{71}"
 Will use up to   72 processors via shared memory.
 %gpucpu=0,1,2,3=0,1,2,3
 Will use    4 GPUs:
 Thread  CPU   GPU
      0    0     0
      1    1     1
      2    2     2
      3    3     3
      4    4    -1
      5    5    -1
      6    6    -1
      7    7    -1
      8    8    -1
      9    9    -1
     10   10    -1
     11   11    -1
     12   12    -1
     13   13    -1
     14   14    -1
     15   15    -1
     16   16    -1
     17   17    -1
     18   18    -1
     19   19    -1
     20   20    -1
     21   21    -1
     22   22    -1
     23   23    -1
     24   24    -1
     25   25    -1
     26   26    -1
     27   27    -1
     28   28    -1
     29   29    -1
     30   30    -1
     31   31    -1
     32   32    -1
     33   33    -1
     34   34    -1
     35   35    -1
     36   36    -1
     37   37    -1
     38   38    -1
     39   39    -1
     40   40    -1
     41   41    -1
     42   42    -1
     43   43    -1
     44   44    -1
     45   45    -1
     46   46    -1
     47   47    -1
     48   48    -1
     49   49    -1
     50   50    -1
     51   51    -1
     52   52    -1
     53   53    -1
     54   54    -1
     55   55    -1
     56   56    -1
     57   57    -1
     58   58    -1
     59   59    -1
     60   60    -1
     61   61    -1
     62   62    -1
     63   63    -1
     64   64    -1
     65   65    -1
     66   66    -1
     67   67    -1
     68   68    -1
     69   69    -1
     70   70    -1
     71   71    -1
 SetGPE:  set environment variable "OMP_PROC_BIND" = "true"
 SetGPE:  set environment variable "OMP_PLACES" = "{0},{1},{2},{3},{4},{5},{6},{7},{8},{9},{10},{11},{12},{13},{14},{15},{16},{17},{18},{19},{20},{21},{22},{23},{24},{25},{26},{27},{28},{29},{30},{31},{32},{33},{34},{35},{36},{37},{38},{39},{40},{41},{42},{43},{44},{45},{46},{47},{48},{49},{50},{51},{52},{53},{54},{55},{56},{57},{58},{59},{60},{61},{62},{63},{64},{65},{66},{67},{68},{69},{70},{71}"
 %oldchk=5zzg_III_D.chk
 %chk=5zzg_III_Dre.chk
 Properties for Device   0
 Minimum vector length:                              32
 Maximum vector length:                            1024
 Number of SMPs:                                    108
 Maximum number of threads per SMP:                2048
 Number of ASync Engines:                             5
 Memory:                                           9207742464
 Properties for Device   1
 Minimum vector length:                              32
 Maximum vector length:                            1024
 Number of SMPs:                                    108
 Maximum number of threads per SMP:                2048
 Number of ASync Engines:                             5
 Memory:                                           9207742464
 Properties for Device   2
 Minimum vector length:                              32
 Maximum vector length:                            1024
 Number of SMPs:                                    108
 Maximum number of threads per SMP:                2048
 Number of ASync Engines:                             5
 Memory:                                           9207742464
 Properties for Device   3
 Minimum vector length:                              32
 Maximum vector length:                            1024
 Number of SMPs:                                    108
 Maximum number of threads per SMP:                2048
 Number of ASync Engines:                             5
 Memory:                                           9207742464
   8286968217 words of memory will be used on each GPU.
 Copying data from "5zzg_III_D.chk" to current chk file "5zzg_III_Dre.chk"
 IOpt=  2 FromEx=T IUOpen= 4 IOptOp= 5 NList=   0 IFRang= 0 IUIn= 4 IUOut= 2.
 --------------------------------------
 # apfd/gen scf=maxcycle=999 geom=check
 --------------------------------------
 1/29=2,38=1,172=1/1;
 2/12=2,40=1/2;
 3/5=7,11=2,14=-4,25=1,30=1,74=-44/1,2,3;
 4//1;
 5/5=2,7=999,38=5/2;
 6/7=2,8=2,9=2,10=2,28=1/1;
 99/5=1,9=1/99;
 ----------
 5zzg_III_H
 ----------
 Structure from the checkpoint file:  "5zzg_III_Dre.chk"
 Charge =  1 Multiplicity = 6
 Z-Matrix found in chk file.
 Fe,0,-6.0848927755,-6.2741186682,6.9322386537
 N,0,-5.9958201184,-8.0167953166,5.8695026082
 N,0,-5.4654356439,-5.3211293737,5.3458648017
 N,0,-5.9881134342,-4.7032510045,8.0850681383
 N,0,-6.3411402508,-7.4484962301,8.5765456206
 C,0,-6.3369718443,-9.2729252542,6.2640833914
 C,0,-6.2562949833,-10.2072659356,5.1645971851
 C,0,-5.9219345903,-9.4758446461,4.0692475143
 C,0,-5.7733468829,-8.1112532664,4.5242481283
 C,0,-5.2106636727,-5.7688860518,4.0892770406
 C,0,-4.818288898,-4.6956711726,3.217430973
 C,0,-4.836782629,-3.5608940793,3.981017232
 C,0,-5.1636462111,-3.979736233,5.3365652608
 C,0,-5.8744555744,-3.4264545533,7.6220509764
 C,0,-5.827882244,-2.494844807,8.7157675225
 C,0,-5.9594054968,-3.2349373477,9.8622044249
 C,0,-6.0791375117,-4.6141330213,9.437301135
 C,0,-6.5515513845,-6.9822140167,9.8438196277
 C,0,-6.7509012106,-8.0792072498,10.7659607332
 C,0,-6.804046656,-9.207342383,10.008869759
 C,0,-6.5649146601,-8.7907170025,8.6456055111
 C,0,-6.5541695522,-9.6579897332,7.5724679844
 H,0,-6.7531570613,-10.7009580152,7.7652446015
 C,0,-5.4156304266,-7.0763646524,3.6845368568
 H,0,-5.2430615098,-7.3158909393,2.6467223064
 C,0,-5.593398955,-3.0880463557,6.3033568744
 H,0,-5.4844134333,-2.0345676668,6.0918233645
 C,0,-6.28518952,-5.6924059926,10.2755723423
 H,0,-6.3989106166,-5.4881655038,11.3285235247
 C,0,-5.7060697532,-9.924924503,2.664924346
 H,0,-5.8843224144,-10.9931653051,2.5693973673
 H,0,-4.6828544664,-9.7193200141,2.3501169898
 H,0,-6.3807554235,-9.4019477962,1.9867764261
 C,0,-6.5186476136,-11.6694509072,5.2836199427
 H,0,-7.5169446744,-11.8512689468,5.6824259195
 H,0,-5.7964056798,-12.1333039628,5.9557445876
 H,0,-6.4429981781,-12.1555029399,4.3141011879
 C,0,-4.5692573596,-4.8304059067,1.7561080509
 H,0,-5.2545768346,-5.5511107332,1.312525068
 H,0,-3.5508117497,-5.1731948336,1.5666376379
 H,0,-4.7064681889,-3.8701902378,1.2632837841
 C,0,-4.5223776692,-2.2022188421,3.5909828176
 H,0,-5.0688615865,-1.4235431404,4.1103970883
 C,0,-3.6310275897,-1.8506083326,2.6703590361
 H,0,-3.0202672449,-2.5726805382,2.1576431553
 H,0,-3.4600623336,-0.8169207139,2.4187836359
 C,0,-5.6470738012,-1.0226849382,8.5799483473
 H,0,-6.3652193287,-0.6089488873,7.8717850453
 H,0,-4.6444562569,-0.7934058159,8.2166919508
 H,0,-5.7791358011,-0.5304831295,9.5400733684
 C,0,-5.9253144497,-2.7358970003,11.2221121501
 H,0,-6.4244457874,-1.7847064466,11.3759835189
 C,0,-5.3152814907,-3.3156694918,12.2493160136
 H,0,-4.7558599862,-4.2290880705,12.1413624251
 H,0,-5.3315456683,-2.877936271,13.2337624508
 C,0,-6.921932481,-7.9223880017,12.2376806964
 H,0,-7.7321332383,-7.2276391654,12.4586680743
 H,0,-6.0095976212,-7.5309694354,12.6880989438
 H,0,-7.1494996485,-8.8775675457,12.7046603027
 C,0,-7.0117042953,-10.6217198831,10.4303150591
 H,0,-7.8737388687,-11.0528322916,9.9203889082
 H,0,-7.1824371351,-10.6840427244,11.5021070517
 H,0,-6.1380127516,-11.2264398496,10.186634256
 C,0,-11.1121179884,-4.2471481457,5.5641314093
 H,0,-10.7337213676,-3.2492109709,5.3674088451
 H,0,-11.8761467918,-4.1859656592,6.338734069
 H,0,-11.5778158019,-4.6285834125,4.6554567673
 N,0,-10.1857939752,-6.4336094445,6.3583373856
 H,0,-11.0681771343,-6.9184759181,6.3703885836
 C,0,-9.9959972787,-5.1265642382,5.9941358822
 C,0,-8.9807515927,-6.9465407908,6.693506287
 H,0,-8.8260306487,-7.9555799348,7.0192040231
 N,0,-8.0356862924,-6.0434679867,6.5635682349
 C,0,-8.6552012237,-4.9053431262,6.1280741542
 H,0,-8.0959047872,-4.0108272983,5.9411246621
 Recover connectivity data from disk.
 Stoichiometry    C34H34FeN6(1+,6)
 Framework group  C1[X(C34H34FeN6)]
 Deg. of freedom   219
 Full point group                 C1      NOp   1
 Largest Abelian subgroup         C1      NOp   1
 Largest concise Abelian subgroup C1      NOp   1
                         Standard orientation:                         
 ---------------------------------------------------------------------
 Center     Atomic      Atomic             Coordinates (Angstroms)
 Number     Number       Type             X           Y           Z
 ---------------------------------------------------------------------
      1         26           0       -0.065513    0.104402   -0.329632
      2          7           0        0.107421    2.130016   -0.532723
      3          7           0        1.868245   -0.042863   -0.547323
      4          7           0       -0.355133   -1.824788   -0.348492
      5          7           0       -2.073517    0.394133   -0.510037
      6          6           0       -0.863751    3.079213   -0.456630
      7          6           0       -0.302080    4.409272   -0.518602
      8          6           0        1.046536    4.249483   -0.566207
      9          6           0        1.284992    2.823178   -0.564018
     10          6           0        2.818428    0.918491   -0.679080
     11          6           0        4.135454    0.349018   -0.762785
     12          6           0        3.968498   -1.006106   -0.679784
     13          6           0        2.532962   -1.243684   -0.629049
     14          6           0        0.638279   -2.744147   -0.189045
     15          6           0        0.106519   -4.078198   -0.250858
     16          6           0       -1.248935   -3.949002   -0.410244
     17          6           0       -1.514212   -2.525869   -0.447394
     18          6           0       -3.015715   -0.591705   -0.420257
     19          6           0       -4.347598   -0.038426   -0.536228
     20          6           0       -4.198052    1.312932   -0.549220
     21          6           0       -2.774752    1.562319   -0.513515
     22          6           0       -2.220674    2.825937   -0.500581
     23          1           0       -2.892101    3.670760   -0.499539
     24          6           0        2.549880    2.275051   -0.624730
     25          1           0        3.384635    2.956784   -0.676065
     26          6           0        1.996603   -2.449467   -0.213247
     27          1           0        2.670606   -3.288414   -0.121977
     28          6           0       -2.765986   -1.949620   -0.541355
     29          1           0       -3.617529   -2.611461   -0.555287
     30          6           0        2.117066    5.283497   -0.638145
     31          1           0        1.690252    6.283234   -0.618302
     32          1           0        2.692690    5.175444   -1.557562
     33          1           0        2.802357    5.185631    0.204107
     34          6           0       -1.108009    5.662826   -0.510791
     35          1           0       -1.741274    5.709043    0.375517
     36          1           0       -1.752082    5.707929   -1.389245
     37          1           0       -0.462019    6.537239   -0.516576
     38          6           0        5.401891    1.129808   -0.809034
     39          1           0        5.328916    2.020982   -0.187482
     40          1           0        5.624029    1.447682   -1.828958
     41          1           0        6.229519    0.521564   -0.450163
     42          6           0        4.975684   -2.045991   -0.714280
     43          1           0        4.755659   -2.935637   -0.135582
     44          6           0        6.117631   -1.991685   -1.391547
     45          1           0        6.370085   -1.159689   -2.025064
     46          1           0        6.830506   -2.798970   -1.357923
     47          6           0        0.914810   -5.326919   -0.174990
     48          1           0        1.568948   -5.311331    0.696942
     49          1           0        1.538983   -5.431857   -1.063338
     50          1           0        0.268178   -6.198362   -0.111767
     51          6           0       -2.207314   -5.024288   -0.567796
     52          1           0       -2.022179   -5.899516    0.046429
     53          6           0       -3.235621   -5.034043   -1.407984
     54          1           0       -3.431716   -4.217805   -2.081959
     55          1           0       -3.903885   -5.877004   -1.470013
     56          6           0       -5.597325   -0.849107   -0.564189
     57          1           0       -5.648224   -1.507067    0.303241
     58          1           0       -5.629769   -1.469119   -1.460277
     59          1           0       -6.474952   -0.207242   -0.562330
     60          6           0       -5.235459    2.379735   -0.632396
     61          1           0       -5.158377    3.058858    0.217214
     62          1           0       -6.233317    1.948408   -0.635513
     63          1           0       -5.111826    2.964277   -1.544223
     64          6           0        0.996327   -0.688855    5.101442
     65          1           0        1.688013   -1.504919    4.918759
     66          1           0        0.190916   -1.048569    5.741296
     67          1           0        1.524627    0.103601    5.631508
     68          7           0       -0.476183    0.804865    3.733974
     69          1           0       -0.882572    1.290091    4.517074
     70          6           0        0.460025   -0.192582    3.809120
     71          6           0       -0.749015    1.015526    2.426783
     72          1           0       -1.448869    1.743332    2.068064
     73          7           0       -0.041490    0.211644    1.666022
     74          6           0        0.716115   -0.545809    2.515188
     75          1           0        1.390505   -1.288079    2.138156
 ---------------------------------------------------------------------
 Rotational constants (GHZ):           0.0961135           0.0921164           0.0603173
 General basis read from cards:  (5D, 7F)
 There are   704 symmetry adapted cartesian basis functions of A   symmetry.
 There are   661 symmetry adapted basis functions of A   symmetry.
   661 basis functions,  1342 primitive gaussians,   704 cartesian basis functions
   155 alpha electrons      150 beta electrons
       nuclear repulsion energy      5583.9667407913 Hartrees.
 NAtoms=   75 NActive=   75 NUniq=   75 SFac= 1.00D+00 NAtFMM=   60 NAOKFM=T Big=T
 Integral buffers will be    131072 words long.
 Raffenetti 2 integral format.
 Two-electron integral symmetry is turned on.
 R6APFD:  NTU= -4 IXU= 1 FactS= 1.050
 Nuclear repulsion after empirical dispersion term =     5583.8314029496 Hartrees.
 One-electron integrals computed using PRISM.
 NBasis=   661 RedAO= T EigKep=  3.11D-04  NBF=   661
 NBsUse=   661 1.00D-06 EigRej= -1.00D+00 NBFU=   661
 ExpMin= 4.20D-02 ExpMax= 3.01D+05 ExpMxC= 2.91D+03 IAcc=3 IRadAn=         5 AccDes= 0.00D+00
 Harris functional with IExCor= 3731 and IRadAn=       5 diagonalized for initial guess.
 HarFok:  IExCor= 3731 AccDes= 0.00D+00 IRadAn=         5 IDoV= 1 UseB2=F ITyADJ=14
 ICtDFT=  3500011 ScaDFX=  1.000000  1.000000  1.000000  1.000000
 FoFCou: FMM=F IPFlag=           0 FMFlag=      100000 FMFlg1=        2001
         NFxFlg=           0 DoJE=T BraDBF=F KetDBF=T FulRan=T
         wScrn=  0.000000 ICntrl=       500 IOpCl=  0 I1Cent=   200000004 NGrid=           0
         NMat0=    1 NMatS0=      1 NMatT0=    0 NMatD0=    1 NMtDS0=    0 NMtDT0=    0
 Petite list used in FoFCou.
 Initial guess <Sx>= 0.0000 <Sy>= 0.0000 <Sz>= 2.5000 <S**2>= 8.7500 S= 2.5000
 Requested convergence on RMS density matrix=1.00D-08 within 999 cycles.
 Requested convergence on MAX density matrix=1.00D-06.
 Requested convergence on             energy=1.00D-06.
 No special actions if energy rises.
 EnCoef did   100 forward-backward iterations
 EnCoef did   100 forward-backward iterations
 EnCoef did   100 forward-backward iterations
 EnCoef did    15 forward-backward iterations
 Restarting incremental Fock formation.
 SCF Done:  E(UAPFD) =  -2906.82832396     A.U. after   29 cycles
            NFock= 29  Conv=0.99D-08     -V/T= 2.0035
 <Sx>= 0.0000 <Sy>= 0.0000 <Sz>= 2.5000 <S**2>= 8.7607 S= 2.5018
 <L.S>=  0.00000000000    
 Annihilation of the first spin contaminant:
 S**2 before annihilation     8.7607,   after     8.7500

 **********************************************************************

            Population analysis using the SCF Density.

 **********************************************************************

 Orbital symmetries:
 Alpha Orbitals:
       Occupied  (A) (A) (A) (A) (A) (A) (A) (A) (A) (A) (A) (A)
                 (A) (A) (A) (A) (A) (A) (A) (A) (A) (A) (A) (A)
                 (A) (A) (A) (A) (A) (A) (A) (A) (A) (A) (A) (A)
                 (A) (A) (A) (A) (A) (A) (A) (A) (A) (A) (A) (A)
                 (A) (A) (A) (A) (A) (A) (A) (A) (A) (A) (A) (A)
                 (A) (A) (A) (A) (A) (A) (A) (A) (A) (A) (A) (A)
                 (A) (A) (A) (A) (A) (A) (A) (A) (A) (A) (A) (A)
                 (A) (A) (A) (A) (A) (A) (A) (A) (A) (A) (A) (A)
                 (A) (A) (A) (A) (A) (A) (A) (A) (A) (A) (A) (A)
                 (A) (A) (A) (A) (A) (A) (A) (A) (A) (A) (A) (A)
                 (A) (A) (A) (A) (A) (A) (A) (A) (A) (A) (A) (A)
                 (A) (A) (A) (A) (A) (A) (A) (A) (A) (A) (A) (A)
                 (A) (A) (A) (A) (A) (A) (A) (A) (A) (A) (A)
       Virtual   (A) (A) (A) (A) (A) (A) (A) (A) (A) (A) (A) (A)
                 (A) (A) (A) (A) (A) (A) (A) (A) (A) (A) (A) (A)
                 (A) (A) (A) (A) (A) (A) (A) (A) (A) (A) (A) (A)
                 (A) (A) (A) (A) (A) (A) (A) (A) (A) (A) (A) (A)
                 (A) (A) (A) (A) (A) (A) (A) (A) (A) (A) (A) (A)
                 (A) (A) (A) (A) (A) (A) (A) (A) (A) (A) (A) (A)
                 (A) (A) (A) (A) (A) (A) (A) (A) (A) (A) (A) (A)
                 (A) (A) (A) (A) (A) (A) (A) (A) (A) (A) (A) (A)
                 (A) (A) (A) (A) (A) (A) (A) (A) (A) (A) (A) (A)
                 (A) (A) (A) (A) (A) (A) (A) (A) (A) (A) (A) (A)
                 (A) (A) (A) (A) (A) (A) (A) (A) (A) (A) (A) (A)
                 (A) (A) (A) (A) (A) (A) (A) (A) (A) (A) (A) (A)
                 (A) (A) (A) (A) (A) (A) (A) (A) (A) (A) (A) (A)
                 (A) (A) (A) (A) (A) (A) (A) (A) (A) (A) (A) (A)
                 (A) (A) (A) (A) (A) (A) (A) (A) (A) (A) (A) (A)
                 (A) (A) (A) (A) (A) (A) (A) (A) (A) (A) (A) (A)
                 (A) (A) (A) (A) (A) (A) (A) (A) (A) (A) (A) (A)
                 (A) (A) (A) (A) (A) (A) (A) (A) (A) (A) (A) (A)
                 (A) (A) (A) (A) (A) (A) (A) (A) (A) (A) (A) (A)
                 (A) (A) (A) (A) (A) (A) (A) (A) (A) (A) (A) (A)
                 (A) (A) (A) (A) (A) (A) (A) (A) (A) (A) (A) (A)
                 (A) (A) (A) (A) (A) (A) (A) (A) (A) (A) (A) (A)
                 (A) (A) (A) (A) (A) (A) (A) (A) (A) (A) (A) (A)
                 (A) (A) (A) (A) (A) (A) (A) (A) (A) (A) (A) (A)
                 (A) (A) (A) (A) (A) (A) (A) (A) (A) (A) (A) (A)
                 (A) (A) (A) (A) (A) (A) (A) (A) (A) (A) (A) (A)
                 (A) (A) (A) (A) (A) (A) (A) (A) (A) (A) (A) (A)
                 (A) (A) (A) (A) (A) (A) (A) (A) (A) (A) (A) (A)
                 (A) (A) (A) (A) (A) (A) (A) (A) (A) (A) (A) (A)
                 (A) (A) (A) (A) (A) (A) (A) (A) (A) (A) (A) (A)
                 (A) (A) (A) (A) (A) (A) (A) (A) (A) (A) (A) (A)
                 (A) (A) (A) (A) (A) (A) (A) (A) (A) (A) (A) (A)
                 (A) (A) (A) (A) (A) (A) (A) (A) (A) (A) (A) (A)
                 (A) (A) (A) (A) (A) (A) (A) (A) (A) (A) (A) (A)
                 (A) (A) (A) (A) (A) (A) (A) (A) (A) (A) (A) (A)
                 (A) (A) (A) (A) (A) (A) (A) (A) (A) (A) (A) (A)
                 (A) (A) (A) (A) (A) (A) (A) (A) (A) (A) (A) (A)
                 (A) (A) (A) (A) (A) (A) (A) (A) (A) (A) (A) (A)
                 (A) (A) (A) (A) (A) (A) (A) (A) (A) (A) (A) (A)
                 (A) (A) (A) (A) (A) (A) (A) (A) (A) (A) (A) (A)
                 (A) (A) (A) (A) (A) (A) (A) (A) (A) (A) (A) (A)
                 (A) (A) (A) (A) (A) (A) (A) (A) (A) (A) (A) (A)
                 (A) (A)
 Beta  Orbitals:
       Occupied  (A) (A) (A) (A) (A) (A) (A) (A) (A) (A) (A) (A)
                 (A) (A) (A) (A) (A) (A) (A) (A) (A) (A) (A) (A)
                 (A) (A) (A) (A) (A) (A) (A) (A) (A) (A) (A) (A)
                 (A) (A) (A) (A) (A) (A) (A) (A) (A) (A) (A) (A)
                 (A) (A) (A) (A) (A) (A) (A) (A) (A) (A) (A) (A)
                 (A) (A) (A) (A) (A) (A) (A) (A) (A) (A) (A) (A)
                 (A) (A) (A) (A) (A) (A) (A) (A) (A) (A) (A) (A)
                 (A) (A) (A) (A) (A) (A) (A) (A) (A) (A) (A) (A)
                 (A) (A) (A) (A) (A) (A) (A) (A) (A) (A) (A) (A)
                 (A) (A) (A) (A) (A) (A) (A) (A) (A) (A) (A) (A)
                 (A) (A) (A) (A) (A) (A) (A) (A) (A) (A) (A) (A)
                 (A) (A) (A) (A) (A) (A) (A) (A) (A) (A) (A) (A)
                 (A) (A) (A) (A) (A) (A)
       Virtual   (A) (A) (A) (A) (A) (A) (A) (A) (A) (A) (A) (A)
                 (A) (A) (A) (A) (A) (A) (A) (A) (A) (A) (A) (A)
                 (A) (A) (A) (A) (A) (A) (A) (A) (A) (A) (A) (A)
                 (A) (A) (A) (A) (A) (A) (A) (A) (A) (A) (A) (A)
                 (A) (A) (A) (A) (A) (A) (A) (A) (A) (A) (A) (A)
                 (A) (A) (A) (A) (A) (A) (A) (A) (A) (A) (A) (A)
                 (A) (A) (A) (A) (A) (A) (A) (A) (A) (A) (A) (A)
                 (A) (A) (A) (A) (A) (A) (A) (A) (A) (A) (A) (A)
                 (A) (A) (A) (A) (A) (A) (A) (A) (A) (A) (A) (A)
                 (A) (A) (A) (A) (A) (A) (A) (A) (A) (A) (A) (A)
                 (A) (A) (A) (A) (A) (A) (A) (A) (A) (A) (A) (A)
                 (A) (A) (A) (A) (A) (A) (A) (A) (A) (A) (A) (A)
                 (A) (A) (A) (A) (A) (A) (A) (A) (A) (A) (A) (A)
                 (A) (A) (A) (A) (A) (A) (A) (A) (A) (A) (A) (A)
                 (A) (A) (A) (A) (A) (A) (A) (A) (A) (A) (A) (A)
                 (A) (A) (A) (A) (A) (A) (A) (A) (A) (A) (A) (A)
                 (A) (A) (A) (A) (A) (A) (A) (A) (A) (A) (A) (A)
                 (A) (A) (A) (A) (A) (A) (A) (A) (A) (A) (A) (A)
                 (A) (A) (A) (A) (A) (A) (A) (A) (A) (A) (A) (A)
                 (A) (A) (A) (A) (A) (A) (A) (A) (A) (A) (A) (A)
                 (A) (A) (A) (A) (A) (A) (A) (A) (A) (A) (A) (A)
                 (A) (A) (A) (A) (A) (A) (A) (A) (A) (A) (A) (A)
                 (A) (A) (A) (A) (A) (A) (A) (A) (A) (A) (A) (A)
                 (A) (A) (A) (A) (A) (A) (A) (A) (A) (A) (A) (A)
                 (A) (A) (A) (A) (A) (A) (A) (A) (A) (A) (A) (A)
                 (A) (A) (A) (A) (A) (A) (A) (A) (A) (A) (A) (A)
                 (A) (A) (A) (A) (A) (A) (A) (A) (A) (A) (A) (A)
                 (A) (A) (A) (A) (A) (A) (A) (A) (A) (A) (A) (A)
                 (A) (A) (A) (A) (A) (A) (A) (A) (A) (A) (A) (A)
                 (A) (A) (A) (A) (A) (A) (A) (A) (A) (A) (A) (A)
                 (A) (A) (A) (A) (A) (A) (A) (A) (A) (A) (A) (A)
                 (A) (A) (A) (A) (A) (A) (A) (A) (A) (A) (A) (A)
                 (A) (A) (A) (A) (A) (A) (A) (A) (A) (A) (A) (A)
                 (A) (A) (A) (A) (A) (A) (A) (A) (A) (A) (A) (A)
                 (A) (A) (A) (A) (A) (A) (A) (A) (A) (A) (A) (A)
                 (A) (A) (A) (A) (A) (A) (A) (A) (A) (A) (A) (A)
                 (A) (A) (A) (A) (A) (A) (A) (A) (A) (A) (A) (A)
                 (A) (A) (A) (A) (A) (A) (A) (A) (A) (A) (A) (A)
                 (A) (A) (A) (A) (A) (A) (A) (A) (A) (A) (A) (A)
                 (A) (A) (A) (A) (A) (A) (A) (A) (A) (A) (A) (A)
                 (A) (A) (A) (A) (A) (A) (A) (A) (A) (A) (A) (A)
                 (A) (A) (A) (A) (A) (A) (A) (A) (A) (A) (A) (A)
                 (A) (A) (A) (A) (A) (A) (A)
 The electronic state is 6-A.
 Alpha  occ. eigenvalues -- -256.42171 -30.33171 -26.16218 -26.16073 -26.16020
 Alpha  occ. eigenvalues --  -14.54562 -14.50247 -14.47347 -14.47126 -14.46731
 Alpha  occ. eigenvalues --  -14.46589 -10.38729 -10.35790 -10.34172 -10.33855
 Alpha  occ. eigenvalues --  -10.33800 -10.33770 -10.33484 -10.33452 -10.33449
 Alpha  occ. eigenvalues --  -10.33362 -10.33232 -10.30962 -10.30928 -10.30876
 Alpha  occ. eigenvalues --  -10.30835 -10.30735 -10.30609 -10.30411 -10.30385
 Alpha  occ. eigenvalues --  -10.30380 -10.30366 -10.30316 -10.30293 -10.30282
 Alpha  occ. eigenvalues --  -10.29692 -10.29653 -10.28547 -10.28455 -10.28400
 Alpha  occ. eigenvalues --  -10.28392 -10.28343 -10.28333 -10.28289 -10.28256
 Alpha  occ. eigenvalues --   -3.78537  -2.55224  -2.55122  -2.54998  -1.17321
 Alpha  occ. eigenvalues --   -1.09459  -1.08408  -1.08201  -1.07181  -1.03229
 Alpha  occ. eigenvalues --   -0.93818  -0.92668  -0.92335  -0.91618  -0.91228
 Alpha  occ. eigenvalues --   -0.91082  -0.90989  -0.90875  -0.87097  -0.86010
 Alpha  occ. eigenvalues --   -0.85396  -0.84469  -0.83046  -0.82597  -0.81437
 Alpha  occ. eigenvalues --   -0.80466  -0.78812  -0.78566  -0.78334  -0.76626
 Alpha  occ. eigenvalues --   -0.75424  -0.75232  -0.72856  -0.71486  -0.70541
 Alpha  occ. eigenvalues --   -0.68718  -0.68642  -0.67437  -0.65352  -0.65099
 Alpha  occ. eigenvalues --   -0.64223  -0.63882  -0.62566  -0.61899  -0.61641
 Alpha  occ. eigenvalues --   -0.61373  -0.60303  -0.58908  -0.58730  -0.58415
 Alpha  occ. eigenvalues --   -0.57937  -0.56710  -0.56453  -0.56269  -0.55892
 Alpha  occ. eigenvalues --   -0.55763  -0.55183  -0.54912  -0.54744  -0.54238
 Alpha  occ. eigenvalues --   -0.53949  -0.53717  -0.53469  -0.53380  -0.52981
 Alpha  occ. eigenvalues --   -0.52878  -0.52548  -0.52332  -0.52065  -0.51660
 Alpha  occ. eigenvalues --   -0.51010  -0.50724  -0.50618  -0.50531  -0.50348
 Alpha  occ. eigenvalues --   -0.50150  -0.49872  -0.49680  -0.49457  -0.49237
 Alpha  occ. eigenvalues --   -0.49047  -0.48910  -0.48371  -0.48133  -0.47735
 Alpha  occ. eigenvalues --   -0.47380  -0.46944  -0.46575  -0.45888  -0.45272
 Alpha  occ. eigenvalues --   -0.44940  -0.44056  -0.43770  -0.43438  -0.42922
 Alpha  occ. eigenvalues --   -0.42359  -0.41828  -0.41213  -0.39428  -0.39099
 Alpha  occ. eigenvalues --   -0.37564  -0.37416  -0.35070  -0.33866  -0.33703
 Alpha  occ. eigenvalues --   -0.32823  -0.32556  -0.32523  -0.29701  -0.28827
 Alpha virt. eigenvalues --   -0.17749  -0.17617  -0.11783  -0.09479  -0.08355
 Alpha virt. eigenvalues --   -0.07342  -0.05276  -0.05059  -0.03594  -0.02081
 Alpha virt. eigenvalues --   -0.02029  -0.01430   0.00248   0.00911   0.01632
 Alpha virt. eigenvalues --    0.02056   0.02588   0.03033   0.03251   0.03822
 Alpha virt. eigenvalues --    0.04153   0.04383   0.04486   0.04901   0.05273
 Alpha virt. eigenvalues --    0.05625   0.06035   0.06304   0.06935   0.07274
 Alpha virt. eigenvalues --    0.07613   0.07749   0.07947   0.08260   0.08492
 Alpha virt. eigenvalues --    0.09032   0.09144   0.09312   0.09439   0.09796
 Alpha virt. eigenvalues --    0.09913   0.10481   0.10604   0.11232   0.11415
 Alpha virt. eigenvalues --    0.11639   0.11941   0.12225   0.12431   0.12774
 Alpha virt. eigenvalues --    0.13025   0.13793   0.14235   0.14442   0.14578
 Alpha virt. eigenvalues --    0.15079   0.15315   0.15994   0.16378   0.16785
 Alpha virt. eigenvalues --    0.17312   0.17720   0.17880   0.19077   0.19432
 Alpha virt. eigenvalues --    0.19866   0.20765   0.21232   0.21830   0.22273
 Alpha virt. eigenvalues --    0.23400   0.24148   0.25297   0.25529   0.25902
 Alpha virt. eigenvalues --    0.26367   0.26508   0.27081   0.28815   0.29759
 Alpha virt. eigenvalues --    0.30174   0.30841   0.31731   0.32616   0.33121
 Alpha virt. eigenvalues --    0.33723   0.34228   0.35312   0.36649   0.37325
 Alpha virt. eigenvalues --    0.37766   0.38233   0.38966   0.39245   0.39867
 Alpha virt. eigenvalues --    0.39967   0.40549   0.41142   0.41508   0.41865
 Alpha virt. eigenvalues --    0.42188   0.42500   0.42947   0.43240   0.43314
 Alpha virt. eigenvalues --    0.43959   0.44465   0.44647   0.44729   0.45433
 Alpha virt. eigenvalues --    0.45623   0.46205   0.46776   0.47148   0.47498
 Alpha virt. eigenvalues --    0.47819   0.48629   0.48700   0.49231   0.49477
 Alpha virt. eigenvalues --    0.49962   0.50336   0.50821   0.51203   0.51562
 Alpha virt. eigenvalues --    0.52226   0.52562   0.53303   0.53455   0.53579
 Alpha virt. eigenvalues --    0.54097   0.54479   0.54764   0.54900   0.55803
 Alpha virt. eigenvalues --    0.56222   0.56429   0.56891   0.57309   0.57447
 Alpha virt. eigenvalues --    0.57513   0.57959   0.58821   0.59260   0.59729
 Alpha virt. eigenvalues --    0.59828   0.60353   0.60843   0.61329   0.61865
 Alpha virt. eigenvalues --    0.62103   0.62769   0.63295   0.63622   0.63735
 Alpha virt. eigenvalues --    0.64792   0.65119   0.66041   0.66228   0.66350
 Alpha virt. eigenvalues --    0.67001   0.67169   0.67788   0.68218   0.68497
 Alpha virt. eigenvalues --    0.68668   0.69124   0.69269   0.69482   0.70074
 Alpha virt. eigenvalues --    0.70987   0.71165   0.71821   0.72134   0.72705
 Alpha virt. eigenvalues --    0.73219   0.74018   0.74538   0.74740   0.76208
 Alpha virt. eigenvalues --    0.76381   0.77088   0.77773   0.78021   0.78218
 Alpha virt. eigenvalues --    0.78834   0.79063   0.79283   0.79527   0.80427
 Alpha virt. eigenvalues --    0.80662   0.80854   0.81300   0.81647   0.82319
 Alpha virt. eigenvalues --    0.82563   0.82733   0.82787   0.83173   0.83648
 Alpha virt. eigenvalues --    0.83875   0.83906   0.84422   0.84909   0.85198
 Alpha virt. eigenvalues --    0.85547   0.85859   0.86253   0.86795   0.86955
 Alpha virt. eigenvalues --    0.87429   0.87799   0.88604   0.88797   0.89240
 Alpha virt. eigenvalues --    0.89852   0.90031   0.90585   0.90651   0.91483
 Alpha virt. eigenvalues --    0.91621   0.92097   0.92206   0.92690   0.93207
 Alpha virt. eigenvalues --    0.94335   0.94560   0.95073   0.95864   0.96020
 Alpha virt. eigenvalues --    0.96881   0.97866   0.98065   0.98792   1.00436
 Alpha virt. eigenvalues --    1.01244   1.02023   1.03092   1.03213   1.04007
 Alpha virt. eigenvalues --    1.04704   1.04848   1.06135   1.06617   1.06809
 Alpha virt. eigenvalues --    1.07482   1.08071   1.08572   1.09247   1.09468
 Alpha virt. eigenvalues --    1.10305   1.10664   1.10946   1.11547   1.11917
 Alpha virt. eigenvalues --    1.12350   1.13045   1.14291   1.15175   1.15807
 Alpha virt. eigenvalues --    1.16790   1.16974   1.19302   1.19345   1.20157
 Alpha virt. eigenvalues --    1.21146   1.21820   1.22309   1.23607   1.23827
 Alpha virt. eigenvalues --    1.24298   1.24836   1.25701   1.26236   1.26441
 Alpha virt. eigenvalues --    1.27477   1.27856   1.28691   1.28903   1.29644
 Alpha virt. eigenvalues --    1.30010   1.30629   1.30927   1.31719   1.32623
 Alpha virt. eigenvalues --    1.32995   1.34276   1.35353   1.35813   1.37908
 Alpha virt. eigenvalues --    1.38141   1.39107   1.39793   1.40435   1.41205
 Alpha virt. eigenvalues --    1.41732   1.43610   1.44109   1.44758   1.45073
 Alpha virt. eigenvalues --    1.45422   1.46048   1.47082   1.47263   1.48929
 Alpha virt. eigenvalues --    1.49491   1.50854   1.50965   1.51372   1.52550
 Alpha virt. eigenvalues --    1.54139   1.54683   1.55228   1.56690   1.57992
 Alpha virt. eigenvalues --    1.58881   1.59736   1.60714   1.61385   1.63352
 Alpha virt. eigenvalues --    1.64998   1.65976   1.66923   1.67660   1.68630
 Alpha virt. eigenvalues --    1.69027   1.69434   1.70227   1.70586   1.70982
 Alpha virt. eigenvalues --    1.71346   1.71664   1.72271   1.72812   1.73550
 Alpha virt. eigenvalues --    1.74372   1.74610   1.75004   1.75440   1.76370
 Alpha virt. eigenvalues --    1.77062   1.77737   1.78317   1.78704   1.79237
 Alpha virt. eigenvalues --    1.79835   1.80261   1.81257   1.81661   1.81933
 Alpha virt. eigenvalues --    1.82631   1.83164   1.83809   1.83982   1.84885
 Alpha virt. eigenvalues --    1.85570   1.86874   1.87955   1.89287   1.89775
 Alpha virt. eigenvalues --    1.90119   1.90382   1.90412   1.91340   1.91963
 Alpha virt. eigenvalues --    1.92780   1.93801   1.94511   1.95180   1.95633
 Alpha virt. eigenvalues --    1.96216   1.97062   1.97675   1.98210   1.98710
 Alpha virt. eigenvalues --    2.00284   2.00661   2.01274   2.02477   2.03607
 Alpha virt. eigenvalues --    2.03786   2.04117   2.04906   2.05735   2.05911
 Alpha virt. eigenvalues --    2.07004   2.07540   2.08352   2.08763   2.09860
 Alpha virt. eigenvalues --    2.10689   2.10954   2.11788   2.13092   2.13735
 Alpha virt. eigenvalues --    2.14113   2.14751   2.15300   2.15559   2.16359
 Alpha virt. eigenvalues --    2.16852   2.16939   2.17649   2.18040   2.18592
 Alpha virt. eigenvalues --    2.19414   2.19665   2.20042   2.20620   2.21041
 Alpha virt. eigenvalues --    2.21496   2.21624   2.22159   2.22749   2.23934
 Alpha virt. eigenvalues --    2.24384   2.25099   2.25970   2.26308   2.27084
 Alpha virt. eigenvalues --    2.27860   2.28048   2.29160   2.29685   2.30136
 Alpha virt. eigenvalues --    2.30819   2.31021   2.31998   2.32253   2.32533
 Alpha virt. eigenvalues --    2.33269   2.34124   2.34735   2.35963   2.36841
 Alpha virt. eigenvalues --    2.37812   2.38266   2.39598   2.40494   2.42343
 Alpha virt. eigenvalues --    2.42735   2.43024   2.43176   2.44334   2.45383
 Alpha virt. eigenvalues --    2.45776   2.46627   2.47315   2.48615   2.49762
 Alpha virt. eigenvalues --    2.50540   2.50639   2.52492   2.54181   2.54835
 Alpha virt. eigenvalues --    2.56753   2.57517   2.58313   2.59854   2.61040
 Alpha virt. eigenvalues --    2.61868   2.63393   2.63920   2.66059   2.66830
 Alpha virt. eigenvalues --    2.68053   2.69159   2.70129   2.71197   2.73382
 Alpha virt. eigenvalues --    2.75563   2.76374   2.77092   2.79863   2.80433
 Alpha virt. eigenvalues --    2.81995   2.83355   2.84669   2.85999   2.86782
 Alpha virt. eigenvalues --    2.87506   2.87885   2.88361   2.89085   2.93608
 Alpha virt. eigenvalues --    2.94947   2.95748   3.01813   3.02519   3.04496
 Alpha virt. eigenvalues --    3.07817   3.12147   3.12851   3.17960   3.19665
 Alpha virt. eigenvalues --    3.26034   3.26568   3.28407   3.29320   3.33514
 Alpha virt. eigenvalues --    3.34856   3.36956   3.42293   3.66089   3.82524
 Alpha virt. eigenvalues --    3.97957
  Beta  occ. eigenvalues -- -256.42005 -30.23701 -26.08372 -26.08111 -26.08069
  Beta  occ. eigenvalues --  -14.54545 -14.49896 -14.47020 -14.46801 -14.46413
  Beta  occ. eigenvalues --  -14.46266 -10.38707 -10.35773 -10.34155 -10.33840
  Beta  occ. eigenvalues --  -10.33783 -10.33753 -10.33474 -10.33441 -10.33436
  Beta  occ. eigenvalues --  -10.33350 -10.33228 -10.30948 -10.30887 -10.30834
  Beta  occ. eigenvalues --  -10.30833 -10.30693 -10.30563 -10.30395 -10.30368
  Beta  occ. eigenvalues --  -10.30353 -10.30335 -10.30287 -10.30283 -10.30249
  Beta  occ. eigenvalues --  -10.29701 -10.29663 -10.28547 -10.28455 -10.28392
  Beta  occ. eigenvalues --  -10.28379 -10.28342 -10.28310 -10.28289 -10.28256
  Beta  occ. eigenvalues --   -3.56234  -2.31754  -2.31123  -2.31015  -1.17123
  Beta  occ. eigenvalues --   -1.09019  -1.07971  -1.07803  -1.06763  -1.02862
  Beta  occ. eigenvalues --   -0.93740  -0.92461  -0.92131  -0.91464  -0.91053
  Beta  occ. eigenvalues --   -0.91009  -0.90866  -0.90733  -0.87033  -0.85918
  Beta  occ. eigenvalues --   -0.85302  -0.84404  -0.83012  -0.82502  -0.81313
  Beta  occ. eigenvalues --   -0.80297  -0.78679  -0.78423  -0.78134  -0.76250
  Beta  occ. eigenvalues --   -0.75327  -0.75128  -0.72741  -0.71255  -0.70355
  Beta  occ. eigenvalues --   -0.68579  -0.68199  -0.67246  -0.65216  -0.64941
  Beta  occ. eigenvalues --   -0.63957  -0.63074  -0.61915  -0.61643  -0.61168
  Beta  occ. eigenvalues --   -0.59253  -0.59037  -0.58416  -0.58209  -0.57966
  Beta  occ. eigenvalues --   -0.56342  -0.55758  -0.54996  -0.54758  -0.54443
  Beta  occ. eigenvalues --   -0.54171  -0.53813  -0.53803  -0.53320  -0.53286
  Beta  occ. eigenvalues --   -0.53116  -0.52886  -0.52303  -0.52210  -0.51759
  Beta  occ. eigenvalues --   -0.51101  -0.50789  -0.50697  -0.50585  -0.50466
  Beta  occ. eigenvalues --   -0.50223  -0.50073  -0.49827  -0.49643  -0.49487
  Beta  occ. eigenvalues --   -0.49300  -0.48774  -0.48375  -0.48100  -0.47804
  Beta  occ. eigenvalues --   -0.47429  -0.47390  -0.47320  -0.46615  -0.46361
  Beta  occ. eigenvalues --   -0.45723  -0.44845  -0.44392  -0.44041  -0.43470
  Beta  occ. eigenvalues --   -0.43046  -0.42693  -0.41905  -0.41467  -0.39372
  Beta  occ. eigenvalues --   -0.39025  -0.37582  -0.37394  -0.35140  -0.34226
  Beta  occ. eigenvalues --   -0.33453  -0.33175  -0.32316  -0.29812  -0.28764
  Beta virt. eigenvalues --   -0.21385  -0.21300  -0.19892  -0.17306  -0.16548
  Beta virt. eigenvalues --   -0.16345  -0.11729  -0.11536  -0.08933  -0.08129
  Beta virt. eigenvalues --   -0.07125  -0.04883  -0.04685  -0.02355  -0.01836
  Beta virt. eigenvalues --   -0.01571  -0.00918   0.00468   0.01116   0.01708
  Beta virt. eigenvalues --    0.02077   0.02840   0.03100   0.03290   0.03992
  Beta virt. eigenvalues --    0.04222   0.04654   0.04708   0.05011   0.05410
  Beta virt. eigenvalues --    0.05714   0.06101   0.06492   0.06973   0.07347
  Beta virt. eigenvalues --    0.07643   0.07883   0.08121   0.08342   0.08573
  Beta virt. eigenvalues --    0.09104   0.09206   0.09437   0.09722   0.09873
  Beta virt. eigenvalues --    0.10021   0.10726   0.10963   0.11402   0.11706
  Beta virt. eigenvalues --    0.11922   0.12221   0.12564   0.12815   0.12957
  Beta virt. eigenvalues --    0.13148   0.13998   0.14544   0.14738   0.14966
  Beta virt. eigenvalues --    0.15565   0.15722   0.16303   0.16635   0.16924
  Beta virt. eigenvalues --    0.17599   0.17805   0.18010   0.19709   0.19941
  Beta virt. eigenvalues --    0.20443   0.21046   0.21850   0.22384   0.22842
  Beta virt. eigenvalues --    0.23612   0.24403   0.25605   0.25694   0.26062
  Beta virt. eigenvalues --    0.26677   0.26945   0.27346   0.28978   0.29985
  Beta virt. eigenvalues --    0.30694   0.31507   0.32108   0.32852   0.33282
  Beta virt. eigenvalues --    0.33907   0.34455   0.35781   0.37000   0.37794
  Beta virt. eigenvalues --    0.38037   0.38530   0.39258   0.39607   0.40210
  Beta virt. eigenvalues --    0.40416   0.40781   0.41531   0.41836   0.42054
  Beta virt. eigenvalues --    0.42299   0.42647   0.43024   0.43303   0.43411
  Beta virt. eigenvalues --    0.44168   0.44639   0.44802   0.45031   0.45580
  Beta virt. eigenvalues --    0.45935   0.46486   0.46896   0.47355   0.47643
  Beta virt. eigenvalues --    0.47936   0.48706   0.48807   0.49429   0.49653
  Beta virt. eigenvalues --    0.50039   0.50530   0.51007   0.51464   0.51687
  Beta virt. eigenvalues --    0.52312   0.52718   0.53478   0.53643   0.53754
  Beta virt. eigenvalues --    0.54283   0.54868   0.55001   0.55421   0.55942
  Beta virt. eigenvalues --    0.56386   0.56667   0.57046   0.57562   0.57607
  Beta virt. eigenvalues --    0.57766   0.58067   0.58941   0.59463   0.59945
  Beta virt. eigenvalues --    0.60125   0.60872   0.61552   0.61741   0.62113
  Beta virt. eigenvalues --    0.62351   0.62888   0.63508   0.63835   0.64139
  Beta virt. eigenvalues --    0.64971   0.65260   0.66177   0.66358   0.66533
  Beta virt. eigenvalues --    0.67184   0.67601   0.68306   0.68417   0.68651
  Beta virt. eigenvalues --    0.68847   0.69428   0.69612   0.69720   0.70428
  Beta virt. eigenvalues --    0.71134   0.71500   0.72163   0.72391   0.72955
  Beta virt. eigenvalues --    0.73386   0.74182   0.74901   0.75008   0.76302
  Beta virt. eigenvalues --    0.76541   0.77206   0.77953   0.78152   0.78384
  Beta virt. eigenvalues --    0.78937   0.79207   0.79423   0.79815   0.80555
  Beta virt. eigenvalues --    0.80758   0.80951   0.81459   0.81745   0.82482
  Beta virt. eigenvalues --    0.82720   0.82983   0.83165   0.83536   0.83804
  Beta virt. eigenvalues --    0.84141   0.84240   0.84652   0.85035   0.85288
  Beta virt. eigenvalues --    0.85763   0.85976   0.86356   0.86961   0.87078
  Beta virt. eigenvalues --    0.87638   0.88329   0.88780   0.88983   0.89479
  Beta virt. eigenvalues --    0.90111   0.90368   0.90683   0.90898   0.91590
  Beta virt. eigenvalues --    0.92019   0.92214   0.92365   0.92823   0.93772
  Beta virt. eigenvalues --    0.94723   0.95112   0.95466   0.95954   0.96276
  Beta virt. eigenvalues --    0.97323   0.97967   0.98355   0.99265   1.00652
  Beta virt. eigenvalues --    1.02115   1.03127   1.03324   1.04012   1.04181
  Beta virt. eigenvalues --    1.05199   1.06090   1.06683   1.07095   1.07580
  Beta virt. eigenvalues --    1.08003   1.08407   1.08701   1.09405   1.10021
  Beta virt. eigenvalues --    1.10384   1.10991   1.11349   1.11907   1.12245
  Beta virt. eigenvalues --    1.12948   1.13195   1.14583   1.15544   1.16176
  Beta virt. eigenvalues --    1.17160   1.17596   1.19512   1.19583   1.20346
  Beta virt. eigenvalues --    1.21328   1.21930   1.22526   1.23894   1.24030
  Beta virt. eigenvalues --    1.24494   1.24988   1.25885   1.26397   1.26576
  Beta virt. eigenvalues --    1.27611   1.28155   1.28935   1.29275   1.29819
  Beta virt. eigenvalues --    1.30180   1.30900   1.31410   1.32107   1.32990
  Beta virt. eigenvalues --    1.33185   1.34477   1.35672   1.36178   1.38130
  Beta virt. eigenvalues --    1.38293   1.39364   1.40043   1.40843   1.41359
  Beta virt. eigenvalues --    1.42243   1.43780   1.44350   1.44907   1.45357
  Beta virt. eigenvalues --    1.45800   1.46216   1.47497   1.47711   1.49354
  Beta virt. eigenvalues --    1.49977   1.51227   1.51290   1.51798   1.52892
  Beta virt. eigenvalues --    1.54522   1.55331   1.55556   1.57265   1.58193
  Beta virt. eigenvalues --    1.59067   1.59948   1.60880   1.61636   1.63527
  Beta virt. eigenvalues --    1.65228   1.66268   1.67659   1.68123   1.68903
  Beta virt. eigenvalues --    1.69247   1.69780   1.70333   1.71077   1.71185
  Beta virt. eigenvalues --    1.71562   1.71915   1.72557   1.73129   1.73762
  Beta virt. eigenvalues --    1.74609   1.74722   1.75265   1.75669   1.76609
  Beta virt. eigenvalues --    1.77280   1.77874   1.78505   1.79107   1.79347
  Beta virt. eigenvalues --    1.80126   1.80472   1.81648   1.81806   1.82237
  Beta virt. eigenvalues --    1.83108   1.83496   1.84172   1.84422   1.85211
  Beta virt. eigenvalues --    1.86061   1.88330   1.88810   1.89844   1.89962
  Beta virt. eigenvalues --    1.90223   1.90655   1.90803   1.91457   1.92240
  Beta virt. eigenvalues --    1.93041   1.94163   1.94834   1.95423   1.96089
  Beta virt. eigenvalues --    1.96540   1.97352   1.97967   1.98435   1.99046
  Beta virt. eigenvalues --    2.00595   2.00917   2.01633   2.02667   2.04005
  Beta virt. eigenvalues --    2.04171   2.04403   2.05505   2.06093   2.07322
  Beta virt. eigenvalues --    2.07971   2.08474   2.08850   2.09172   2.10164
  Beta virt. eigenvalues --    2.11075   2.12033   2.13060   2.13441   2.14245
  Beta virt. eigenvalues --    2.14519   2.15148   2.15467   2.16229   2.16504
  Beta virt. eigenvalues --    2.17164   2.17307   2.18142   2.18704   2.19318
  Beta virt. eigenvalues --    2.19911   2.20059   2.20252   2.21163   2.21702
  Beta virt. eigenvalues --    2.21765   2.22063   2.22686   2.23001   2.24105
  Beta virt. eigenvalues --    2.24695   2.25274   2.26100   2.26596   2.27387
  Beta virt. eigenvalues --    2.27998   2.28364   2.29639   2.29823   2.30343
  Beta virt. eigenvalues --    2.30997   2.31200   2.32364   2.32491   2.32754
  Beta virt. eigenvalues --    2.33504   2.34204   2.34899   2.36471   2.37077
  Beta virt. eigenvalues --    2.37989   2.38497   2.40273   2.40654   2.42564
  Beta virt. eigenvalues --    2.42945   2.43128   2.43362   2.44471   2.45751
  Beta virt. eigenvalues --    2.46021   2.46800   2.47503   2.48897   2.50029
  Beta virt. eigenvalues --    2.50761   2.50968   2.52780   2.54511   2.55010
  Beta virt. eigenvalues --    2.56947   2.57735   2.58576   2.60203   2.61241
  Beta virt. eigenvalues --    2.62122   2.63644   2.64430   2.66228   2.67402
  Beta virt. eigenvalues --    2.68157   2.69275   2.70213   2.71398   2.73594
  Beta virt. eigenvalues --    2.75782   2.76639   2.77335   2.80109   2.80733
  Beta virt. eigenvalues --    2.82306   2.83590   2.84855   2.86366   2.86977
  Beta virt. eigenvalues --    2.87836   2.88361   2.88789   2.89290   2.93827
  Beta virt. eigenvalues --    2.95358   2.95975   3.02060   3.02765   3.04594
  Beta virt. eigenvalues --    3.07991   3.12470   3.13325   3.18082   3.19758
  Beta virt. eigenvalues --    3.26413   3.26948   3.29769   3.33490   3.35252
  Beta virt. eigenvalues --    3.38013   3.49800   3.54927   3.78074   3.93277
  Beta virt. eigenvalues --    4.08396
          Condensed to atoms (all electrons):
          Atomic-Atomic Spin Densities.
 Mulliken charges and spin densities:
               1          2
     1  Fe   1.166237   4.260384
     2  N   -0.717229   0.092641
     3  N   -0.756213   0.099199
     4  N   -0.768893   0.098164
     5  N   -0.712910   0.091379
     6  C    0.303187  -0.001743
     7  C    0.042229   0.020567
     8  C    0.044103   0.013973
     9  C    0.337267   0.002695
    10  C    0.346265   0.001077
    11  C    0.054651   0.024689
    12  C   -0.003679   0.023989
    13  C    0.324072   0.002599
    14  C    0.322815   0.002127
    15  C    0.042935   0.024499
    16  C    0.002895   0.026844
    17  C    0.344783   0.000069
    18  C    0.299649   0.000322
    19  C    0.044739   0.017332
    20  C    0.042626   0.019415
    21  C    0.315522  -0.000493
    22  C   -0.300163   0.011888
    23  H    0.192448  -0.000388
    24  C   -0.298197   0.009961
    25  H    0.192882  -0.000236
    26  C   -0.315298   0.009657
    27  H    0.190834  -0.000442
    28  C   -0.280422   0.008581
    29  H    0.198971  -0.000079
    30  C   -0.613638  -0.000457
    31  H    0.204302   0.000359
    32  H    0.209849   0.000646
    33  H    0.202175   0.000601
    34  C   -0.611928  -0.000911
    35  H    0.197908   0.000826
    36  H    0.209744   0.000882
    37  H    0.205202   0.000404
    38  C   -0.616374  -0.001242
    39  H    0.196506   0.000778
    40  H    0.212514   0.001451
    41  H    0.212311   0.000537
    42  C   -0.150255  -0.007887
    43  H    0.175854   0.000713
    44  C   -0.385567   0.014586
    45  H    0.192697  -0.000707
    46  H    0.196012  -0.000515
    47  C   -0.606596  -0.001233
    48  H    0.198943   0.001019
    49  H    0.215915   0.001265
    50  H    0.205724   0.000432
    51  C   -0.158687  -0.008592
    52  H    0.187924   0.001122
    53  C   -0.389662   0.015806
    54  H    0.188136  -0.000697
    55  H    0.196626  -0.000796
    56  C   -0.615013  -0.000718
    57  H    0.206498   0.000725
    58  H    0.207994   0.000791
    59  H    0.203720   0.000373
    60  C   -0.610929  -0.000839
    61  H    0.196980   0.000807
    62  H    0.204981   0.000404
    63  H    0.210600   0.000856
    64  C   -0.602632   0.000762
    65  H    0.221827   0.000054
    66  H    0.214670   0.000304
    67  H    0.216425   0.000281
    68  N   -0.628450   0.005014
    69  H    0.388277   0.001377
    70  C    0.283533   0.007412
    71  C    0.268026   0.007043
    72  H    0.234873   0.000149
    73  N   -0.508683   0.100577
    74  C   -0.038120  -0.003244
    75  H    0.213678   0.000810
 Sum of Mulliken charges =   1.00000   5.00000
 Mulliken charges and spin densities with hydrogens summed into heavy atoms:
               1          2
     1  Fe   1.166237   4.260384
     2  N   -0.717229   0.092641
     3  N   -0.756213   0.099199
     4  N   -0.768893   0.098164
     5  N   -0.712910   0.091379
     6  C    0.303187  -0.001743
     7  C    0.042229   0.020567
     8  C    0.044103   0.013973
     9  C    0.337267   0.002695
    10  C    0.346265   0.001077
    11  C    0.054651   0.024689
    12  C   -0.003679   0.023989
    13  C    0.324072   0.002599
    14  C    0.322815   0.002127
    15  C    0.042935   0.024499
    16  C    0.002895   0.026844
    17  C    0.344783   0.000069
    18  C    0.299649   0.000322
    19  C    0.044739   0.017332
    20  C    0.042626   0.019415
    21  C    0.315522  -0.000493
    22  C   -0.107714   0.011500
    24  C   -0.105315   0.009725
    26  C   -0.124464   0.009215
    28  C   -0.081452   0.008503
    30  C    0.002688   0.001149
    34  C    0.000926   0.001201
    38  C    0.004957   0.001524
    42  C    0.025599  -0.007174
    44  C    0.003142   0.013364
    47  C    0.013986   0.001484
    51  C    0.029237  -0.007470
    53  C   -0.004900   0.014313
    56  C    0.003199   0.001171
    60  C    0.001632   0.001229
    64  C    0.050290   0.001401
    68  N   -0.240172   0.006391
    70  C    0.283533   0.007412
    71  C    0.502899   0.007192
    73  N   -0.508683   0.100577
    74  C    0.175558  -0.002434
 Electronic spatial extent (au):  <R**2>=          19517.6899
 Charge=              1.0000 electrons
 Dipole moment (field-independent basis, Debye):
    X=             -0.4648    Y=              1.3579    Z=              5.8725  Tot=              6.0454
 Quadrupole moment (field-independent basis, Debye-Ang):
   XX=           -174.0312   YY=           -175.0617   ZZ=           -205.2143
   XY=             -3.9566   XZ=             -2.8914   YZ=              2.8847
 Traceless Quadrupole moment (field-independent basis, Debye-Ang):
   XX=             10.7379   YY=              9.7074   ZZ=            -20.4452
   XY=             -3.9566   XZ=             -2.8914   YZ=              2.8847
 Octapole moment (field-independent basis, Debye-Ang**2):
  XXX=              8.7326  YYY=             12.3552  ZZZ=            207.5674  XYY=            -15.0339
  XXY=            -11.5941  XXZ=            -62.4620  XZZ=             -5.1741  YZZ=             28.0819
  YYZ=            -11.6003  XYZ=            -27.5652
 Hexadecapole moment (field-independent basis, Debye-Ang**3):
 XXXX=          -9934.9527 YYYY=          -9446.2550 ZZZZ=          -2400.7017 XXXY=           -135.9668
 XXXZ=           -143.9008 YYYX=            120.0355 YYYZ=            -63.8387 ZZZX=            -20.4942
 ZZZY=             86.5739 XXYY=          -3285.1487 XXZZ=          -2445.5076 YYZZ=          -2402.3697
 XXYZ=             53.0332 YYXZ=             40.5291 ZZXY=            -36.5680
 N-N= 5.583831402950D+03 E-N=-1.796094220182D+04  KE= 2.896796962747D+03
                          Isotropic Fermi Contact Couplings
        Atom                 a.u.       MegaHertz       Gauss      10(-4) cm-1
     1  Fe(57)             0.58485      16.96538       6.05367       5.65904
     2  N(14)              0.13692       8.84763       3.15705       2.95125
     3  N(14)              0.12567       8.12123       2.89786       2.70895
     4  N(14)              0.12390       8.00645       2.85690       2.67066
     5  N(14)              0.13144       8.49352       3.03070       2.83313
     6  C(13)              0.00457       1.02711       0.36650       0.34261
     7  C(13)              0.00597       1.34335       0.47934       0.44809
     8  C(13)              0.00495       1.11242       0.39694       0.37106
     9  C(13)              0.00416       0.93470       0.33352       0.31178
    10  C(13)              0.00581       1.30569       0.46590       0.43553
    11  C(13)              0.00649       1.45835       0.52037       0.48645
    12  C(13)              0.00642       1.44413       0.51530       0.48171
    13  C(13)              0.00410       0.92120       0.32871       0.30728
    14  C(13)              0.00436       0.98051       0.34987       0.32706
    15  C(13)              0.00613       1.37887       0.49202       0.45994
    16  C(13)              0.00745       1.67405       0.59734       0.55840
    17  C(13)              0.00568       1.27817       0.45608       0.42635
    18  C(13)              0.00382       0.85928       0.30661       0.28663
    19  C(13)              0.00536       1.20434       0.42974       0.40173
    20  C(13)              0.00581       1.30695       0.46635       0.43595
    21  C(13)              0.00476       1.07116       0.38221       0.35730
    22  C(13)              0.00117       0.26238       0.09362       0.08752
    23  H(1)              -0.00012      -0.10814      -0.03859      -0.03607
    24  C(13)              0.00076       0.17100       0.06102       0.05704
    25  H(1)              -0.00006      -0.05284      -0.01885      -0.01762
    26  C(13)              0.00141       0.31643       0.11291       0.10555
    27  H(1)              -0.00011      -0.10193      -0.03637      -0.03400
    28  C(13)              0.00020       0.04515       0.01611       0.01506
    29  H(1)              -0.00003      -0.02796      -0.00998      -0.00933
    30  C(13)             -0.00002      -0.00398      -0.00142      -0.00133
    31  H(1)               0.00014       0.12331       0.04400       0.04113
    32  H(1)               0.00033       0.29539       0.10540       0.09853
    33  H(1)               0.00031       0.27366       0.09765       0.09128
    34  C(13)             -0.00012      -0.02690      -0.00960      -0.00897
    35  H(1)               0.00043       0.38652       0.13792       0.12893
    36  H(1)               0.00047       0.42029       0.14997       0.14019
    37  H(1)               0.00015       0.13800       0.04924       0.04603
    38  C(13)             -0.00029      -0.06553      -0.02338      -0.02186
    39  H(1)               0.00038       0.34314       0.12244       0.11446
    40  H(1)               0.00076       0.67985       0.24259       0.22677
    41  H(1)               0.00019       0.16572       0.05913       0.05528
    42  C(13)             -0.00124      -0.27955      -0.09975      -0.09325
    43  H(1)               0.00026       0.23451       0.08368       0.07822
    44  C(13)              0.00238       0.53592       0.19123       0.17876
    45  H(1)              -0.00021      -0.18972      -0.06770      -0.06328
    46  H(1)              -0.00014      -0.12854      -0.04587      -0.04288
    47  C(13)             -0.00027      -0.06111      -0.02180      -0.02038
    48  H(1)               0.00050       0.44632       0.15926       0.14888
    49  H(1)               0.00066       0.58716       0.20951       0.19585
    50  H(1)               0.00017       0.15613       0.05571       0.05208
    51  C(13)             -0.00115      -0.25943      -0.09257      -0.08654
    52  H(1)               0.00047       0.42376       0.15121       0.14135
    53  C(13)              0.00235       0.52790       0.18837       0.17609
    54  H(1)              -0.00023      -0.20638      -0.07364      -0.06884
    55  H(1)              -0.00025      -0.22017      -0.07856      -0.07344
    56  C(13)             -0.00011      -0.02580      -0.00921      -0.00861
    57  H(1)               0.00036       0.32328       0.11535       0.10783
    58  H(1)               0.00042       0.37851       0.13506       0.12626
    59  H(1)               0.00015       0.13017       0.04645       0.04342
    60  C(13)             -0.00012      -0.02686      -0.00958      -0.00896
    61  H(1)               0.00042       0.37268       0.13298       0.12431
    62  H(1)               0.00015       0.13786       0.04919       0.04599
    63  H(1)               0.00044       0.39438       0.14072       0.13155
    64  C(13)              0.00047       0.10608       0.03785       0.03539
    65  H(1)               0.00005       0.04295       0.01533       0.01433
    66  H(1)               0.00017       0.15473       0.05521       0.05161
    67  H(1)               0.00016       0.14239       0.05081       0.04750
    68  N(14)              0.00824       0.53234       0.18995       0.17757
    69  H(1)               0.00057       0.51020       0.18205       0.17019
    70  C(13)              0.00534       1.20007       0.42822       0.40030
    71  C(13)              0.00746       1.67785       0.59870       0.55967
    72  H(1)               0.00014       0.12679       0.04524       0.04229
    73  N(14)              0.17925      11.58302       4.13311       3.86368
    74  C(13)              0.00212       0.47576       0.16976       0.15869
    75  H(1)               0.00049       0.43613       0.15562       0.14548
 --------------------------------------------------------
       Center         ----  Spin Dipole Couplings  ----
                      3XX-RR        3YY-RR        3ZZ-RR
 --------------------------------------------------------
     1   Atom        0.102231      0.110799     -0.213030
     2   Atom       -0.178732      0.239071     -0.060340
     3   Atom        0.227048     -0.192560     -0.034489
     4   Atom       -0.188974      0.243035     -0.054062
     5   Atom        0.237067     -0.176660     -0.060407
     6   Atom       -0.013686      0.044518     -0.030832
     7   Atom       -0.018691      0.012682      0.006009
     8   Atom       -0.014937      0.014581      0.000356
     9   Atom       -0.003103      0.029615     -0.026511
    10   Atom        0.045085     -0.015103     -0.029982
    11   Atom        0.010591     -0.021935      0.011344
    12   Atom        0.010462     -0.020611      0.010148
    13   Atom        0.030985      0.000202     -0.031186
    14   Atom       -0.017535      0.049689     -0.032154
    15   Atom       -0.022178      0.011411      0.010767
    16   Atom       -0.020384      0.009075      0.011309
    17   Atom        0.002092      0.029811     -0.031903
    18   Atom        0.046145     -0.016784     -0.029361
    19   Atom        0.014246     -0.017578      0.003333
    20   Atom        0.011903     -0.016979      0.005076
    21   Atom        0.029106      0.000643     -0.029749
    22   Atom       -0.001109      0.009281     -0.008171
    23   Atom        0.001367      0.006616     -0.007983
    24   Atom        0.009095      0.001738     -0.010833
    25   Atom        0.006292      0.001948     -0.008240
    26   Atom        0.000988      0.013642     -0.014631
    27   Atom        0.001820      0.007296     -0.009116
    28   Atom        0.013180     -0.000496     -0.012684
    29   Atom        0.007215      0.001238     -0.008453
    30   Atom       -0.002000      0.006392     -0.004392
    31   Atom       -0.002074      0.005137     -0.003062
    32   Atom       -0.000944      0.004150     -0.003206
    33   Atom       -0.000688      0.004412     -0.003723
    34   Atom       -0.003950      0.008148     -0.004198
    35   Atom       -0.002476      0.006039     -0.003563
    36   Atom       -0.002389      0.005689     -0.003300
    37   Atom       -0.002777      0.005835     -0.003058
    38   Atom        0.008491     -0.004069     -0.004422
    39   Atom        0.006325     -0.002081     -0.004244
    40   Atom        0.005461     -0.002755     -0.002706
    41   Atom        0.006264     -0.002902     -0.003363
    42   Atom        0.008190     -0.000639     -0.007552
    43   Atom        0.004631     -0.000288     -0.004343
    44   Atom        0.003335     -0.005236      0.001901
    45   Atom        0.003653     -0.001726     -0.001927
    46   Atom        0.002664     -0.000558     -0.002106
    47   Atom       -0.004278      0.008891     -0.004613
    48   Atom       -0.002569      0.006220     -0.003651
    49   Atom       -0.002535      0.006288     -0.003753
    50   Atom       -0.003002      0.006324     -0.003323
    51   Atom       -0.001652      0.007924     -0.006272
    52   Atom       -0.001724      0.005013     -0.003289
    53   Atom        0.002514     -0.000333     -0.002181
    54   Atom       -0.000233      0.002854     -0.002620
    55   Atom       -0.000036      0.002516     -0.002480
    56   Atom        0.008329     -0.003967     -0.004363
    57   Atom        0.006242     -0.002539     -0.003703
    58   Atom        0.005842     -0.002523     -0.003320
    59   Atom        0.005881     -0.002784     -0.003097
    60   Atom        0.006127     -0.001906     -0.004221
    61   Atom        0.004157     -0.000517     -0.003639
    62   Atom        0.005088     -0.002032     -0.003056
    63   Atom        0.003926     -0.000751     -0.003175
    64   Atom       -0.004380     -0.004608      0.008988
    65   Atom       -0.002684     -0.002801      0.005485
    66   Atom       -0.003056     -0.002827      0.005884
    67   Atom       -0.002499     -0.003115      0.005613
    68   Atom       -0.011276     -0.011396      0.022671
    69   Atom       -0.005317     -0.004708      0.010024
    70   Atom       -0.010081     -0.010819      0.020900
    71   Atom       -0.018295     -0.013373      0.031668
    72   Atom       -0.008363     -0.003802      0.012166
    73   Atom       -0.167451     -0.169782      0.337233
    74   Atom       -0.021967     -0.022482      0.044449
    75   Atom       -0.007441     -0.008378      0.015818
 --------------------------------------------------------
                        XY            XZ            YZ
 --------------------------------------------------------
     1   Atom       -0.001467      0.016098     -0.006544
     2   Atom        0.043130      0.002627     -0.045042
     3   Atom       -0.046981     -0.048077      0.005272
     4   Atom        0.049624     -0.014154      0.036702
     5   Atom       -0.049898      0.048839      0.002535
     6   Atom       -0.026645     -0.000960     -0.001071
     7   Atom        0.000806      0.000813     -0.001000
     8   Atom        0.005884      0.000195     -0.000474
     9   Atom        0.036242     -0.002338     -0.005167
    10   Atom        0.030682     -0.010384     -0.003928
    11   Atom       -0.000549     -0.004241      0.001039
    12   Atom       -0.006441     -0.002408      0.002897
    13   Atom       -0.041664     -0.008064      0.007197
    14   Atom       -0.030043      0.002603     -0.003771
    15   Atom        0.000661     -0.002694      0.000380
    16   Atom        0.006558     -0.005203     -0.000146
    17   Atom        0.041450      0.002840      0.004031
    18   Atom        0.025493      0.001859     -0.000497
    19   Atom       -0.001358      0.000293      0.000551
    20   Atom       -0.006145      0.001312      0.000359
    21   Atom       -0.036865      0.003649     -0.002023
    22   Atom       -0.021785      0.001513     -0.003585
    23   Atom       -0.011251      0.000574     -0.000805
    24   Atom        0.022918     -0.003442     -0.004638
    25   Atom        0.011633     -0.001570     -0.001303
    26   Atom       -0.025250      0.000961      0.002356
    27   Atom       -0.012481      0.000735     -0.000833
    28   Atom        0.022556      0.004052      0.002032
    29   Atom        0.011467      0.001160      0.000892
    30   Atom        0.005363     -0.000276     -0.000659
    31   Atom        0.002407     -0.000125     -0.000384
    32   Atom        0.004386     -0.001365     -0.002031
    33   Atom        0.004738      0.000739      0.000934
    34   Atom       -0.003123      0.000094     -0.000364
    35   Atom       -0.003148     -0.000665      0.001385
    36   Atom       -0.003041      0.000835     -0.001940
    37   Atom       -0.000650      0.000012     -0.000243
    38   Atom        0.003370     -0.001350     -0.000143
    39   Atom        0.004006      0.000389      0.000336
    40   Atom        0.002451     -0.002648     -0.000919
    41   Atom        0.000789     -0.000064      0.000041
    42   Atom       -0.007781     -0.004741     -0.002379
    43   Atom       -0.005502      0.000171     -0.000272
    44   Atom        0.001769      0.006703      0.006717
    45   Atom       -0.000866     -0.001932     -0.000096
    46   Atom       -0.002655     -0.000333      0.000516
    47   Atom       -0.003449      0.000068     -0.000453
    48   Atom       -0.003397      0.000971     -0.002141
    49   Atom       -0.003311     -0.000759      0.001560
    50   Atom       -0.000695      0.000027     -0.000365
    51   Atom        0.008238      0.004894     -0.002106
    52   Atom        0.003000      0.000106     -0.000469
    53   Atom       -0.002011     -0.008395      0.007176
    54   Atom        0.004426      0.002152      0.002022
    55   Atom        0.003392      0.000262      0.001154
    56   Atom        0.003005      0.000454      0.000131
    57   Atom        0.003098     -0.001276     -0.000584
    58   Atom        0.002910      0.002135      0.000855
    59   Atom        0.000577      0.000321      0.000019
    60   Atom       -0.005464      0.000743     -0.000344
    61   Atom       -0.004727     -0.000925      0.000781
    62   Atom       -0.002502      0.000411     -0.000142
    63   Atom       -0.004451      0.001963     -0.001409
    64   Atom       -0.000478      0.002908     -0.002261
    65   Atom       -0.001204      0.003236     -0.002990
    66   Atom       -0.000028      0.000331     -0.001867
    67   Atom        0.000071      0.002505      0.000023
    68   Atom        0.003510     -0.002144      0.004355
    69   Atom       -0.001101     -0.003116      0.004359
    70   Atom        0.001914      0.002412     -0.001058
    71   Atom       -0.009177     -0.021578      0.027324
    72   Atom       -0.014656     -0.018960      0.022542
    73   Atom        0.018749      0.006812      0.024475
    74   Atom       -0.013359      0.024271     -0.021505
    75   Atom       -0.013624      0.021896     -0.021020
 --------------------------------------------------------


 ---------------------------------------------------------------------------------
              Anisotropic Spin Dipole Couplings in Principal Axis System
 ---------------------------------------------------------------------------------

       Atom             a.u.   MegaHertz   Gauss  10(-4) cm-1        Axes

              Baa    -0.2140    -3.705    -1.322    -1.236 -0.0507  0.0199  0.9985
     1 Fe(57) Bbb     0.1027     1.777     0.634     0.593  0.9761  0.2124  0.0454
              Bcc     0.1113     1.927     0.688     0.643 -0.2112  0.9770 -0.0302
 
              Baa    -0.1836    -7.080    -2.526    -2.362  0.9923 -0.1077 -0.0605
     2 N(14)  Bbb    -0.0663    -2.557    -0.912    -0.853  0.0749  0.1351  0.9880
              Bcc     0.2499     9.637     3.439     3.215  0.0982  0.9850 -0.1422
 
              Baa    -0.1978    -7.627    -2.722    -2.544  0.1100  0.9939  0.0003
     3 N(14)  Bbb    -0.0430    -1.658    -0.592    -0.553  0.1720 -0.0193  0.9849
              Bcc     0.2407     9.285     3.313     3.097  0.9789 -0.1082 -0.1731
 
              Baa    -0.1970    -7.596    -2.711    -2.534  0.9842 -0.1217  0.1287
     4 N(14)  Bbb    -0.0557    -2.147    -0.766    -0.716 -0.1410 -0.0976  0.9852
              Bcc     0.2526     9.744     3.477     3.250  0.1074  0.9877  0.1132
 
              Baa    -0.1832    -7.065    -2.521    -2.357  0.1257  0.9896 -0.0704
     5 N(14)  Bbb    -0.0673    -2.596    -0.926    -0.866 -0.1437  0.0884  0.9857
              Bcc     0.2505     9.660     3.447     3.222  0.9816 -0.1138  0.1533
 
              Baa    -0.0311    -4.169    -1.488    -1.391  0.1646  0.0720  0.9837
     6 C(13)  Bbb    -0.0238    -3.195    -1.140    -1.066  0.9175  0.3550 -0.1795
              Bcc     0.0549     7.364     2.628     2.456 -0.3621  0.9321 -0.0076
 
              Baa    -0.0187    -2.515    -0.897    -0.839  0.9991 -0.0267 -0.0339
     7 C(13)  Bbb     0.0059     0.791     0.282     0.264  0.0373  0.1414  0.9893
              Bcc     0.0128     1.723     0.615     0.575  0.0216  0.9896 -0.1422
 
              Baa    -0.0161    -2.157    -0.770    -0.719  0.9819 -0.1887 -0.0171
     8 C(13)  Bbb     0.0003     0.047     0.017     0.016  0.0220  0.0242  0.9995
              Bcc     0.0157     2.110     0.753     0.704  0.1882  0.9817 -0.0279
 
              Baa    -0.0276    -3.699    -1.320    -1.234 -0.4914  0.3822  0.7826
     9 C(13)  Bbb    -0.0258    -3.468    -1.238    -1.157  0.6829 -0.3886  0.6185
              Bcc     0.0534     7.167     2.558     2.391  0.5405  0.8384 -0.0700
 
              Baa    -0.0314    -4.214    -1.504    -1.406  0.1573 -0.0584  0.9858
    10 C(13)  Bbb    -0.0279    -3.749    -1.338    -1.251 -0.3710  0.9216  0.1138
              Bcc     0.0593     7.964     2.842     2.656  0.9152  0.3837 -0.1233
 
              Baa    -0.0220    -2.949    -1.052    -0.984  0.0130  0.9995 -0.0295
    11 C(13)  Bbb     0.0067     0.901     0.321     0.300  0.7386  0.0103  0.6741
              Bcc     0.0153     2.048     0.731     0.683 -0.6740  0.0306  0.7381
 
              Baa    -0.0221    -2.961    -1.057    -0.988  0.1884  0.9793 -0.0740
    12 C(13)  Bbb     0.0080     1.078     0.384     0.359  0.6179 -0.0597  0.7840
              Bcc     0.0140     1.884     0.672     0.628  0.7633 -0.1934 -0.6164
 
              Baa    -0.0328    -4.407    -1.573    -1.470 -0.0846 -0.3127  0.9461
    13 C(13)  Bbb    -0.0284    -3.813    -1.360    -1.272  0.5745  0.7605  0.3027
              Bcc     0.0613     8.220     2.933     2.742  0.8141 -0.5692 -0.1153
 
              Baa    -0.0327    -4.386    -1.565    -1.463 -0.2805 -0.0584  0.9581
    14 C(13)  Bbb    -0.0287    -3.849    -1.373    -1.284  0.8911  0.3552  0.2825
              Bcc     0.0614     8.235     2.939     2.747 -0.3568  0.9330 -0.0476
 
              Baa    -0.0224    -3.007    -1.073    -1.003  0.9965 -0.0204  0.0811
    15 C(13)  Bbb     0.0108     1.451     0.518     0.484 -0.0812 -0.4692  0.8793
              Bcc     0.0116     1.556     0.555     0.519 -0.0202  0.8829  0.4692
 
              Baa    -0.0225    -3.024    -1.079    -1.009  0.9685 -0.2002  0.1480
    16 C(13)  Bbb     0.0098     1.317     0.470     0.439  0.1096  0.8767  0.4684
              Bcc     0.0127     1.707     0.609     0.569 -0.2236 -0.4375  0.8710
 
              Baa    -0.0322    -4.317    -1.540    -1.440 -0.0220 -0.0502  0.9985
    17 C(13)  Bbb    -0.0278    -3.724    -1.329    -1.242  0.8118 -0.5838 -0.0114
              Bcc     0.0599     8.041     2.869     2.682  0.5835  0.8104  0.0536
 
              Baa    -0.0297    -3.985    -1.422    -1.329 -0.1072  0.2487  0.9626
    18 C(13)  Bbb    -0.0255    -3.423    -1.221    -1.142 -0.3165  0.9093 -0.2701
              Bcc     0.0552     7.408     2.643     2.471  0.9425  0.3336  0.0188
 
              Baa    -0.0177    -2.369    -0.845    -0.790  0.0428  0.9987 -0.0268
    19 C(13)  Bbb     0.0033     0.448     0.160     0.150 -0.0234  0.0278  0.9993
              Bcc     0.0143     1.920     0.685     0.641  0.9988 -0.0421  0.0245
 
              Baa    -0.0182    -2.449    -0.874    -0.817  0.2007  0.9793 -0.0264
    20 C(13)  Bbb     0.0049     0.659     0.235     0.220 -0.1375  0.0548  0.9890
              Bcc     0.0133     1.789     0.639     0.597  0.9699 -0.1949  0.1457
 
              Baa    -0.0300    -4.023    -1.436    -1.342 -0.0822 -0.0331  0.9961
    21 C(13)  Bbb    -0.0246    -3.303    -1.179    -1.102  0.5609  0.8246  0.0737
              Bcc     0.0546     7.326     2.614     2.444  0.8238 -0.5647  0.0492
 
              Baa    -0.0184    -2.471    -0.882    -0.824  0.7752  0.6231  0.1035
    22 C(13)  Bbb    -0.0085    -1.136    -0.405    -0.379 -0.1473  0.0190  0.9889
              Bcc     0.0269     3.607     1.287     1.203 -0.6143  0.7819 -0.1065
 
              Baa    -0.0080    -4.285    -1.529    -1.429  0.0592  0.1001  0.9932
    23 H(1)   Bbb    -0.0076    -4.031    -1.438    -1.345  0.7816  0.6143 -0.1085
              Bcc     0.0156     8.316     2.967     2.774 -0.6210  0.7827 -0.0419
 
              Baa    -0.0181    -2.422    -0.864    -0.808 -0.6182  0.7615  0.1945
    24 C(13)  Bbb    -0.0114    -1.525    -0.544    -0.509  0.2311 -0.0604  0.9711
              Bcc     0.0294     3.947     1.408     1.317  0.7513  0.6453 -0.1386
 
              Baa    -0.0084    -4.488    -1.601    -1.497  0.0650  0.0524  0.9965
    25 H(1)   Bbb    -0.0077    -4.116    -1.469    -1.373 -0.6388  0.7693  0.0012
              Bcc     0.0161     8.603     3.070     2.870  0.7666  0.6367 -0.0834
 
              Baa    -0.0197    -2.642    -0.943    -0.881  0.7159  0.5708 -0.4022
    26 C(13)  Bbb    -0.0137    -1.838    -0.656    -0.613  0.3323  0.2281  0.9152
              Bcc     0.0334     4.479     1.598     1.494 -0.6141  0.7888  0.0264
 
              Baa    -0.0092    -4.890    -1.745    -1.631 -0.0675 -0.0007  0.9977
    27 H(1)   Bbb    -0.0082    -4.384    -1.564    -1.462  0.7767  0.6277  0.0530
              Bcc     0.0174     9.274     3.309     3.094 -0.6263  0.7785 -0.0418
 
              Baa    -0.0174    -2.331    -0.832    -0.778 -0.5996  0.7797  0.1802
    28 C(13)  Bbb    -0.0130    -1.745    -0.623    -0.582  0.0261 -0.2060  0.9782
              Bcc     0.0304     4.076     1.454     1.360  0.7999  0.5912  0.1032
 
              Baa    -0.0085    -4.556    -1.626    -1.520 -0.0489 -0.0337  0.9982
    29 H(1)   Bbb    -0.0076    -4.068    -1.451    -1.357 -0.6113  0.7914 -0.0033
              Bcc     0.0162     8.624     3.077     2.877  0.7899  0.6104  0.0593
 
              Baa    -0.0046    -0.620    -0.221    -0.207  0.8748 -0.4383 -0.2063
    30 C(13)  Bbb    -0.0044    -0.593    -0.212    -0.198  0.2085 -0.0438  0.9770
              Bcc     0.0090     1.214     0.433     0.405  0.4373  0.8978 -0.0530
 
              Baa    -0.0031    -1.644    -0.587    -0.548  0.0415  0.0345  0.9985
    31 H(1)   Bbb    -0.0028    -1.496    -0.534    -0.499  0.9562 -0.2913 -0.0297
              Bcc     0.0059     3.140     1.120     1.047  0.2898  0.9560 -0.0450
 
              Baa    -0.0038    -2.053    -0.733    -0.685  0.4495 -0.0197  0.8931
    32 H(1)   Bbb    -0.0034    -1.812    -0.647    -0.605  0.7476 -0.5389 -0.3882
              Bcc     0.0072     3.866     1.379     1.289  0.4889  0.8421 -0.2275
 
              Baa    -0.0039    -2.086    -0.744    -0.696 -0.3655  0.1043  0.9249
    33 H(1)   Bbb    -0.0035    -1.845    -0.658    -0.615  0.7778 -0.5116  0.3651
              Bcc     0.0074     3.931     1.403     1.311  0.5113  0.8529  0.1059
 
              Baa    -0.0047    -0.632    -0.225    -0.211  0.9718  0.2358 -0.0098
    34 C(13)  Bbb    -0.0042    -0.565    -0.202    -0.188  0.0028  0.0302  0.9995
              Bcc     0.0089     1.197     0.427     0.399 -0.2360  0.9713 -0.0286
 
              Baa    -0.0039    -2.071    -0.739    -0.691  0.4845  0.0317  0.8742
    35 H(1)   Bbb    -0.0034    -1.819    -0.649    -0.607  0.8171  0.3404 -0.4652
              Bcc     0.0073     3.890     1.388     1.297 -0.3123  0.9397  0.1391
 
              Baa    -0.0038    -2.028    -0.724    -0.676 -0.4383  0.0431  0.8978
    36 H(1)   Bbb    -0.0033    -1.777    -0.634    -0.593  0.8422  0.3686  0.3935
              Bcc     0.0071     3.805     1.358     1.269 -0.3140  0.9286 -0.1978
 
              Baa    -0.0031    -1.635    -0.584    -0.545  0.0227  0.0290  0.9993
    37 H(1)   Bbb    -0.0028    -1.508    -0.538    -0.503  0.9969  0.0741 -0.0248
              Bcc     0.0059     3.143     1.122     1.048 -0.0748  0.9968 -0.0272
 
              Baa    -0.0050    -0.671    -0.239    -0.224 -0.2598  0.8835 -0.3898
    38 C(13)  Bbb    -0.0045    -0.600    -0.214    -0.200 -0.0090  0.4014  0.9159
              Bcc     0.0095     1.271     0.453     0.424  0.9656  0.2414 -0.0964
 
              Baa    -0.0043    -2.299    -0.820    -0.767  0.0608 -0.2549  0.9650
    39 H(1)   Bbb    -0.0036    -1.941    -0.693    -0.648 -0.3690  0.8926  0.2590
              Bcc     0.0079     4.240     1.513     1.414  0.9274  0.3718  0.0398
 
              Baa    -0.0037    -1.950    -0.696    -0.650  0.0443  0.6525  0.7565
    40 H(1)   Bbb    -0.0033    -1.757    -0.627    -0.586 -0.3783  0.7118 -0.5918
              Bcc     0.0069     3.707     1.323     1.236  0.9246  0.2599 -0.2784
 
              Baa    -0.0034    -1.797    -0.641    -0.600  0.0159 -0.1135  0.9934
    41 H(1)   Bbb    -0.0030    -1.581    -0.564    -0.527 -0.0838  0.9899  0.1145
              Bcc     0.0063     3.379     1.206     1.127  0.9964  0.0851 -0.0062
 
              Baa    -0.0112    -1.501    -0.536    -0.501  0.3815  0.4621  0.8006
    42 C(13)  Bbb    -0.0020    -0.264    -0.094    -0.088  0.3063  0.7539 -0.5811
              Bcc     0.0132     1.765     0.630     0.589  0.8721 -0.4669 -0.1461
 
              Baa    -0.0044    -2.339    -0.835    -0.780  0.1162  0.2204  0.9685
    43 H(1)   Bbb    -0.0038    -2.038    -0.727    -0.680  0.5321  0.8095 -0.2481
              Bcc     0.0082     4.378     1.562     1.460  0.8387 -0.5441  0.0232
 
              Baa    -0.0096    -1.294    -0.462    -0.432  0.1871  0.7980 -0.5729
    44 C(13)  Bbb    -0.0018    -0.248    -0.089    -0.083  0.7456 -0.4951 -0.4460
              Bcc     0.0115     1.542     0.550     0.514  0.6395  0.3437  0.6876
 
              Baa    -0.0027    -1.427    -0.509    -0.476  0.3174  0.3780  0.8697
    45 H(1)   Bbb    -0.0017    -0.900    -0.321    -0.300  0.0040  0.9166 -0.3998
              Bcc     0.0044     2.327     0.830     0.776  0.9483 -0.1303 -0.2894
 
              Baa    -0.0024    -1.277    -0.456    -0.426 -0.2601 -0.5913  0.7633
    46 H(1)   Bbb    -0.0018    -0.967    -0.345    -0.323  0.4265  0.6389  0.6402
              Bcc     0.0042     2.244     0.801     0.748  0.8663 -0.4921 -0.0860
 
              Baa    -0.0051    -0.688    -0.246    -0.230  0.9670  0.2406  0.0841
    47 C(13)  Bbb    -0.0046    -0.620    -0.221    -0.207 -0.0893  0.0106  0.9960
              Bcc     0.0098     1.309     0.467     0.437 -0.2387  0.9706 -0.0317
 
              Baa    -0.0042    -2.255    -0.805    -0.752 -0.4452  0.0386  0.8946
    48 H(1)   Bbb    -0.0036    -1.936    -0.691    -0.646  0.8362  0.3753  0.3999
              Bcc     0.0079     4.191     1.496     1.398 -0.3203  0.9261 -0.1994
 
              Baa    -0.0041    -2.196    -0.784    -0.733  0.4449  0.0073  0.8956
    49 H(1)   Bbb    -0.0035    -1.886    -0.673    -0.629  0.8381  0.3491 -0.4192
              Bcc     0.0077     4.082     1.457     1.362 -0.3157  0.9371  0.1491
 
              Baa    -0.0033    -1.780    -0.635    -0.594 -0.0035  0.0375  0.9993
    50 H(1)   Bbb    -0.0031    -1.629    -0.581    -0.543  0.9973  0.0739  0.0007
              Bcc     0.0064     3.409     1.216     1.137 -0.0739  0.9966 -0.0377
 
              Baa    -0.0116    -1.561    -0.557    -0.521 -0.6247  0.3389  0.7035
    51 C(13)  Bbb    -0.0011    -0.141    -0.050    -0.047  0.5940 -0.3786  0.7098
              Bcc     0.0127     1.702     0.607     0.568  0.5069  0.8613  0.0352
 
              Baa    -0.0034    -1.831    -0.653    -0.611 -0.3842  0.1867  0.9042
    52 H(1)   Bbb    -0.0027    -1.462    -0.522    -0.488  0.8525 -0.3041  0.4251
              Bcc     0.0062     3.293     1.175     1.098  0.3543  0.9342 -0.0424
 
              Baa    -0.0109    -1.458    -0.520    -0.486  0.4238 -0.4533  0.7842
    53 C(13)  Bbb    -0.0011    -0.151    -0.054    -0.050  0.6399  0.7626  0.0949
              Bcc     0.0120     1.609     0.574     0.537  0.6410 -0.4616 -0.6133
 
              Baa    -0.0040    -2.136    -0.762    -0.712 -0.6641  0.2179  0.7152
    54 H(1)   Bbb    -0.0029    -1.536    -0.548    -0.513  0.4869 -0.5998  0.6349
              Bcc     0.0069     3.672     1.310     1.225  0.5673  0.7699  0.2922
 
              Baa    -0.0030    -1.583    -0.565    -0.528  0.4301 -0.4327  0.7923
    55 H(1)   Bbb    -0.0021    -1.098    -0.392    -0.366  0.7113 -0.3781 -0.5926
              Bcc     0.0050     2.681     0.957     0.894  0.5560  0.8184  0.1452
 
              Baa    -0.0047    -0.626    -0.223    -0.209 -0.2214  0.9710 -0.0901
    56 C(13)  Bbb    -0.0044    -0.587    -0.210    -0.196 -0.0545  0.0800  0.9953
              Bcc     0.0090     1.213     0.433     0.405  0.9737  0.2253  0.0352
 
              Baa    -0.0039    -2.105    -0.751    -0.702 -0.0027  0.3885  0.9215
    57 H(1)   Bbb    -0.0035    -1.843    -0.658    -0.615 -0.3266  0.8706 -0.3680
              Bcc     0.0074     3.948     1.409     1.317  0.9452  0.3019 -0.1245
 
              Baa    -0.0039    -2.072    -0.739    -0.691 -0.0801 -0.4018  0.9122
    58 H(1)   Bbb    -0.0034    -1.798    -0.641    -0.600 -0.3550  0.8666  0.3506
              Bcc     0.0073     3.870     1.381     1.291  0.9314  0.2958  0.2120
 
              Baa    -0.0031    -1.659    -0.592    -0.553 -0.0360  0.0044  0.9993
    59 H(1)   Bbb    -0.0028    -1.506    -0.537    -0.502 -0.0659  0.9978 -0.0068
              Bcc     0.0059     3.165     1.129     1.056  0.9972  0.0661  0.0356
 
              Baa    -0.0047    -0.627    -0.224    -0.209  0.4542  0.8882 -0.0700
    60 C(13)  Bbb    -0.0043    -0.573    -0.204    -0.191 -0.0236  0.0905  0.9956
              Bcc     0.0089     1.200     0.428     0.400  0.8906 -0.4505  0.0621
 
              Baa    -0.0038    -2.053    -0.733    -0.685 -0.1288 -0.3960  0.9092
    61 H(1)   Bbb    -0.0034    -1.801    -0.643    -0.601  0.5216  0.7527  0.4018
              Bcc     0.0072     3.855     1.375     1.286  0.8434 -0.5260 -0.1096
 
              Baa    -0.0031    -1.642    -0.586    -0.548 -0.0328  0.0567  0.9978
    62 H(1)   Bbb    -0.0028    -1.506    -0.537    -0.502  0.3033  0.9519 -0.0441
              Bcc     0.0059     3.148     1.123     1.050  0.9523 -0.3012  0.0485
 
              Baa    -0.0038    -2.041    -0.728    -0.681  0.0514  0.4766  0.8776
    63 H(1)   Bbb    -0.0034    -1.788    -0.638    -0.596  0.5531  0.7181 -0.4224
              Bcc     0.0072     3.829     1.366     1.277  0.8315 -0.5072  0.2267
 
              Baa    -0.0050    -0.669    -0.239    -0.223  0.8987  0.4222 -0.1187
    64 C(13)  Bbb    -0.0050    -0.667    -0.238    -0.223 -0.3896  0.8929  0.2258
              Bcc     0.0100     1.337     0.477     0.446  0.2013 -0.1567  0.9669
 
              Baa    -0.0040    -2.108    -0.752    -0.703  0.7493  0.6606 -0.0477
    65 H(1)   Bbb    -0.0037    -1.951    -0.696    -0.651 -0.5810  0.6902  0.4314
              Bcc     0.0076     4.059     1.448     1.354  0.3179 -0.2955  0.9009
 
              Baa    -0.0032    -1.718    -0.613    -0.573 -0.2484  0.9471  0.2032
    66 H(1)   Bbb    -0.0031    -1.632    -0.582    -0.544  0.9680  0.2504  0.0164
              Bcc     0.0063     3.350     1.195     1.117  0.0353 -0.2008  0.9790
 
              Baa    -0.0032    -1.729    -0.617    -0.577  0.8621 -0.4448 -0.2427
    67 H(1)   Bbb    -0.0031    -1.645    -0.587    -0.549  0.4268  0.8956 -0.1252
              Bcc     0.0063     3.374     1.204     1.126  0.2731  0.0044  0.9620
 
              Baa    -0.0154    -0.594    -0.212    -0.198 -0.6783  0.7247 -0.1211
    68 N(14)  Bbb    -0.0079    -0.304    -0.109    -0.102  0.7331  0.6786 -0.0453
              Bcc     0.0233     0.899     0.321     0.300 -0.0494  0.1195  0.9916
 
              Baa    -0.0062    -3.288    -1.173    -1.097  0.7295  0.6826 -0.0434
    69 H(1)   Bbb    -0.0057    -3.035    -1.083    -1.012 -0.6574  0.6824 -0.3197
              Bcc     0.0119     6.323     2.256     2.109 -0.1886  0.2617  0.9465
 
              Baa    -0.0126    -1.686    -0.602    -0.562 -0.6508  0.7559  0.0708
    70 C(13)  Bbb    -0.0085    -1.147    -0.409    -0.383  0.7555  0.6540 -0.0384
              Bcc     0.0211     2.833     1.011     0.945  0.0753 -0.0285  0.9968
 
              Baa    -0.0270    -3.627    -1.294    -1.210  0.6332 -0.5860  0.5056
    71 C(13)  Bbb    -0.0253    -3.395    -1.211    -1.132  0.7070  0.7037 -0.0697
              Bcc     0.0523     7.022     2.506     2.342 -0.3149  0.4016  0.8600
 
              Baa    -0.0209   -11.169    -3.985    -3.726  0.7126  0.6984 -0.0674
    72 H(1)   Bbb    -0.0190   -10.153    -3.623    -3.387  0.5432 -0.4883  0.6830
              Bcc     0.0400    21.322     7.608     7.112 -0.4441  0.5233  0.7273
 
              Baa    -0.1877    -7.241    -2.584    -2.415 -0.6738  0.7385 -0.0257
    73 N(14)  Bbb    -0.1508    -5.816    -2.075    -1.940  0.7388  0.6725 -0.0440
              Bcc     0.3385    13.056     4.659     4.355  0.0152  0.0486  0.9987
 
              Baa    -0.0357    -4.784    -1.707    -1.596  0.7335  0.6786 -0.0401
    74 C(13)  Bbb    -0.0241    -3.235    -1.154    -1.079 -0.6020  0.6759  0.4251
              Bcc     0.0598     8.019     2.862     2.675  0.3156 -0.2877  0.9042
 
              Baa    -0.0215   -11.495    -4.102    -3.834  0.7161  0.6974 -0.0273
    75 H(1)   Bbb    -0.0200   -10.669    -3.807    -3.559 -0.5198  0.5591  0.6459
              Bcc     0.0415    22.164     7.909     7.393  0.4658 -0.4484  0.7629
 

 ---------------------------------------------------------------------------------

 Unable to Open any file for archive entry.
 1\1\GINC-BGN1037\SP\UAPFD\Gen\C34H34Fe1N6(1+,6)\BECSLEIP\26-Oct-2024\0
 \\# apfd/gen scf=maxcycle=999 geom=check\\5zzg_III_H\\1,6\Fe,0,-6.0848
 927755,-6.2741186682,6.9322386537\N,0,-5.9958201184,-8.0167953166,5.86
 95026082\N,0,-5.4654356439,-5.3211293737,5.3458648017\N,0,-5.988113434
 2,-4.7032510045,8.0850681383\N,0,-6.3411402508,-7.4484962301,8.5765456
 206\C,0,-6.3369718443,-9.2729252542,6.2640833914\C,0,-6.2562949833,-10
 .2072659356,5.1645971851\C,0,-5.9219345903,-9.4758446461,4.0692475143\
 C,0,-5.7733468829,-8.1112532664,4.5242481283\C,0,-5.2106636727,-5.7688
 860518,4.0892770406\C,0,-4.818288898,-4.6956711726,3.217430973\C,0,-4.
 836782629,-3.5608940793,3.981017232\C,0,-5.1636462111,-3.979736233,5.3
 365652608\C,0,-5.8744555744,-3.4264545533,7.6220509764\C,0,-5.82788224
 4,-2.494844807,8.7157675225\C,0,-5.9594054968,-3.2349373477,9.86220442
 49\C,0,-6.0791375117,-4.6141330213,9.437301135\C,0,-6.5515513845,-6.98
 22140167,9.8438196277\C,0,-6.7509012106,-8.0792072498,10.7659607332\C,
 0,-6.804046656,-9.207342383,10.008869759\C,0,-6.5649146601,-8.79071700
 25,8.6456055111\C,0,-6.5541695522,-9.6579897332,7.5724679844\H,0,-6.75
 31570613,-10.7009580152,7.7652446015\C,0,-5.4156304266,-7.0763646524,3
 .6845368568\H,0,-5.2430615098,-7.3158909393,2.6467223064\C,0,-5.593398
 955,-3.0880463557,6.3033568744\H,0,-5.4844134333,-2.0345676668,6.09182
 33645\C,0,-6.28518952,-5.6924059926,10.2755723423\H,0,-6.3989106166,-5
 .4881655038,11.3285235247\C,0,-5.7060697532,-9.924924503,2.664924346\H
 ,0,-5.8843224144,-10.9931653051,2.5693973673\H,0,-4.6828544664,-9.7193
 200141,2.3501169898\H,0,-6.3807554235,-9.4019477962,1.9867764261\C,0,-
 6.5186476136,-11.6694509072,5.2836199427\H,0,-7.5169446744,-11.8512689
 468,5.6824259195\H,0,-5.7964056798,-12.1333039628,5.9557445876\H,0,-6.
 4429981781,-12.1555029399,4.3141011879\C,0,-4.5692573596,-4.8304059067
 ,1.7561080509\H,0,-5.2545768346,-5.5511107332,1.312525068\H,0,-3.55081
 17497,-5.1731948336,1.5666376379\H,0,-4.7064681889,-3.8701902378,1.263
 2837841\C,0,-4.5223776692,-2.2022188421,3.5909828176\H,0,-5.0688615865
 ,-1.4235431404,4.1103970883\C,0,-3.6310275897,-1.8506083326,2.67035903
 61\H,0,-3.0202672449,-2.5726805382,2.1576431553\H,0,-3.4600623336,-0.8
 169207139,2.4187836359\C,0,-5.6470738012,-1.0226849382,8.5799483473\H,
 0,-6.3652193287,-0.6089488873,7.8717850453\H,0,-4.6444562569,-0.793405
 8159,8.2166919508\H,0,-5.7791358011,-0.5304831295,9.5400733684\C,0,-5.
 9253144497,-2.7358970003,11.2221121501\H,0,-6.4244457874,-1.7847064466
 ,11.3759835189\C,0,-5.3152814907,-3.3156694918,12.2493160136\H,0,-4.75
 58599862,-4.2290880705,12.1413624251\H,0,-5.3315456683,-2.877936271,13
 .2337624508\C,0,-6.921932481,-7.9223880017,12.2376806964\H,0,-7.732133
 2383,-7.2276391654,12.4586680743\H,0,-6.0095976212,-7.5309694354,12.68
 80989438\H,0,-7.1494996485,-8.8775675457,12.7046603027\C,0,-7.01170429
 53,-10.6217198831,10.4303150591\H,0,-7.8737388687,-11.0528322916,9.920
 3889082\H,0,-7.1824371351,-10.6840427244,11.5021070517\H,0,-6.13801275
 16,-11.2264398496,10.186634256\C,0,-11.1121179884,-4.2471481457,5.5641
 314093\H,0,-10.7337213676,-3.2492109709,5.3674088451\H,0,-11.876146791
 8,-4.1859656592,6.338734069\H,0,-11.5778158019,-4.6285834125,4.6554567
 673\N,0,-10.1857939752,-6.4336094445,6.3583373856\H,0,-11.0681771343,-
 6.9184759181,6.3703885836\C,0,-9.9959972787,-5.1265642382,5.9941358822
 \C,0,-8.9807515927,-6.9465407908,6.693506287\H,0,-8.8260306487,-7.9555
 799348,7.0192040231\N,0,-8.0356862924,-6.0434679867,6.5635682349\C,0,-
 8.6552012237,-4.9053431262,6.1280741542\H,0,-8.0959047872,-4.010827298
 3,5.9411246621\\Version=ES64L-G16RevC.02\State=6-A\HF=-2906.828324\S2=
 8.760698\S2-1=0.\S2A=8.750034\RMSD=9.895e-09\Dipole=-2.3309591,-0.1882
 245,-0.4337158\Quadrupole=-12.8663432,8.2149976,4.6513456,6.8289557,-4
 .0743119,-0.864088\PG=C01 [X(C34H34Fe1N6)]\\@
 The archive entry for this job was punched.


 SIC AS THE CAWSE OF EWERY THING IS, SIC WILBE THE EFFECT.
 -- PROVERBS AND REASONS OF THE YEAR 1585
           AS REPRINTED IN PAISLEY MAGAZINE 1828.
 Job cpu time:       0 days  1 hours 34 minutes 21.8 seconds.
 Elapsed time:       0 days  0 hours  1 minutes 39.0 seconds.
 File lengths (MBytes):  RWF=    408 Int=      0 D2E=      0 Chk=    150 Scr=      1
 Normal termination of Gaussian 16 at Sat Oct 26 07:59:05 2024.
