 Entering Gaussian System, Link 0=g16
 Input=5zzg12re.com
 Output=5zzg12re.log
 Initial command:
 /sw/chem/gaussian/g16_C02/a100/g16/l1.exe "/local/becsleip_8060444/Gau-950909.inp" -scrdir="/local/becsleip_8060444/"
 Entering Link 1 = /sw/chem/gaussian/g16_C02/a100/g16/l1.exe PID=    950910.
  
 Copyright (c) 1988-2021, Gaussian, Inc.  All Rights Reserved.
  
 This is part of the Gaussian(R) 16 program.  It is based on
 the Gaussian(R) 09 system (copyright 2009, Gaussian, Inc.),
 the Gaussian(R) 03 system (copyright 2003, Gaussian, Inc.),
 the Gaussian(R) 98 system (copyright 1998, Gaussian, Inc.),
 the Gaussian(R) 94 system (copyright 1995, Gaussian, Inc.),
 the Gaussian 92(TM) system (copyright 1992, Gaussian, Inc.),
 the Gaussian 90(TM) system (copyright 1990, Gaussian, Inc.),
 the Gaussian 88(TM) system (copyright 1988, Gaussian, Inc.),
 the Gaussian 86(TM) system (copyright 1986, Carnegie Mellon
 University), and the Gaussian 82(TM) system (copyright 1983,
 Carnegie Mellon University). Gaussian is a federally registered
 trademark of Gaussian, Inc.
  
 This software contains proprietary and confidential information,
 including trade secrets, belonging to Gaussian, Inc.
  
 This software is provided under written license and may be
 used, copied, transmitted, or stored only in accord with that
 written license.
  
 The following legend is applicable only to US Government
 contracts under FAR:
  
                    RESTRICTED RIGHTS LEGEND
  
 Use, reproduction and disclosure by the US Government is
 subject to restrictions as set forth in subparagraphs (a)
 and (c) of the Commercial Computer Software - Restricted
 Rights clause in FAR 52.227-19.
  
 Gaussian, Inc.
 340 Quinnipiac St., Bldg. 40, Wallingford CT 06492
  
  
 ---------------------------------------------------------------
 Warning -- This program may not be used in any manner that
 competes with the business of Gaussian, Inc. or will provide
 assistance to any competitor of Gaussian, Inc.  The licensee
 of this program is prohibited from giving any competitor of
 Gaussian, Inc. access to this program.  By using this program,
 the user acknowledges that Gaussian, Inc. is engaged in the
 business of creating and licensing software in the field of
 computational chemistry and represents and warrants to the
 licensee that it is not a competitor of Gaussian, Inc. and that
 it will not use this program in any manner prohibited above.
 ---------------------------------------------------------------
  

 Cite this work as:
 Gaussian 16, Revision C.02,
 M. J. Frisch, G. W. Trucks, H. B. Schlegel, G. E. Scuseria, 
 M. A. Robb, J. R. Cheeseman, G. Scalmani, V. Barone, 
 G. A. Petersson, H. Nakatsuji, X. Li, M. Caricato, A. V. Marenich, 
 J. Bloino, B. G. Janesko, R. Gomperts, B. Mennucci, H. P. Hratchian, 
 J. V. Ortiz, A. F. Izmaylov, J. L. Sonnenberg, D. Williams-Young, 
 F. Ding, F. Lipparini, F. Egidi, J. Goings, B. Peng, A. Petrone, 
 T. Henderson, D. Ranasinghe, V. G. Zakrzewski, J. Gao, N. Rega, 
 G. Zheng, W. Liang, M. Hada, M. Ehara, K. Toyota, R. Fukuda, 
 J. Hasegawa, M. Ishida, T. Nakajima, Y. Honda, O. Kitao, H. Nakai, 
 T. Vreven, K. Throssell, J. A. Montgomery, Jr., J. E. Peralta, 
 F. Ogliaro, M. J. Bearpark, J. J. Heyd, E. N. Brothers, K. N. Kudin, 
 V. N. Staroverov, T. A. Keith, R. Kobayashi, J. Normand, 
 K. Raghavachari, A. P. Rendell, J. C. Burant, S. S. Iyengar, 
 J. Tomasi, M. Cossi, J. M. Millam, M. Klene, C. Adamo, R. Cammi, 
 J. W. Ochterski, R. L. Martin, K. Morokuma, O. Farkas, 
 J. B. Foresman, and D. J. Fox, Gaussian, Inc., Wallingford CT, 2019.
 
 ******************************************
 Gaussian 16:  ES64L-G16RevC.02  7-Dec-2021
                25-Oct-2024 
 ******************************************
 %mem=16GB
 %CPU=0-71
 SetSPE:  set environment variable "OMP_PROC_BIND" = "true"
 SetSPE:  set environment variable "OMP_PLACES" = "{0},{1},{2},{3},{4},{5},{6},{7},{8},{9},{10},{11},{12},{13},{14},{15},{16},{17},{18},{19},{20},{21},{22},{23},{24},{25},{26},{27},{28},{29},{30},{31},{32},{33},{34},{35},{36},{37},{38},{39},{40},{41},{42},{43},{44},{45},{46},{47},{48},{49},{50},{51},{52},{53},{54},{55},{56},{57},{58},{59},{60},{61},{62},{63},{64},{65},{66},{67},{68},{69},{70},{71}"
 Will use up to   72 processors via shared memory.
 %gpucpu=0,1,2,3=0,1,2,3
 Will use    4 GPUs:
 Thread  CPU   GPU
      0    0     0
      1    1     1
      2    2     2
      3    3     3
      4    4    -1
      5    5    -1
      6    6    -1
      7    7    -1
      8    8    -1
      9    9    -1
     10   10    -1
     11   11    -1
     12   12    -1
     13   13    -1
     14   14    -1
     15   15    -1
     16   16    -1
     17   17    -1
     18   18    -1
     19   19    -1
     20   20    -1
     21   21    -1
     22   22    -1
     23   23    -1
     24   24    -1
     25   25    -1
     26   26    -1
     27   27    -1
     28   28    -1
     29   29    -1
     30   30    -1
     31   31    -1
     32   32    -1
     33   33    -1
     34   34    -1
     35   35    -1
     36   36    -1
     37   37    -1
     38   38    -1
     39   39    -1
     40   40    -1
     41   41    -1
     42   42    -1
     43   43    -1
     44   44    -1
     45   45    -1
     46   46    -1
     47   47    -1
     48   48    -1
     49   49    -1
     50   50    -1
     51   51    -1
     52   52    -1
     53   53    -1
     54   54    -1
     55   55    -1
     56   56    -1
     57   57    -1
     58   58    -1
     59   59    -1
     60   60    -1
     61   61    -1
     62   62    -1
     63   63    -1
     64   64    -1
     65   65    -1
     66   66    -1
     67   67    -1
     68   68    -1
     69   69    -1
     70   70    -1
     71   71    -1
 SetGPE:  set environment variable "OMP_PROC_BIND" = "true"
 SetGPE:  set environment variable "OMP_PLACES" = "{0},{1},{2},{3},{4},{5},{6},{7},{8},{9},{10},{11},{12},{13},{14},{15},{16},{17},{18},{19},{20},{21},{22},{23},{24},{25},{26},{27},{28},{29},{30},{31},{32},{33},{34},{35},{36},{37},{38},{39},{40},{41},{42},{43},{44},{45},{46},{47},{48},{49},{50},{51},{52},{53},{54},{55},{56},{57},{58},{59},{60},{61},{62},{63},{64},{65},{66},{67},{68},{69},{70},{71}"
 %oldchk=5zzg_II_S.chk
 %chk=5zzg_II_Sre.chk
 Properties for Device   0
 Minimum vector length:                              32
 Maximum vector length:                            1024
 Number of SMPs:                                    108
 Maximum number of threads per SMP:                2048
 Number of ASync Engines:                             5
 Memory:                                           9207742464
 Properties for Device   1
 Minimum vector length:                              32
 Maximum vector length:                            1024
 Number of SMPs:                                    108
 Maximum number of threads per SMP:                2048
 Number of ASync Engines:                             5
 Memory:                                           9207742464
 Properties for Device   2
 Minimum vector length:                              32
 Maximum vector length:                            1024
 Number of SMPs:                                    108
 Maximum number of threads per SMP:                2048
 Number of ASync Engines:                             5
 Memory:                                           9207742464
 Properties for Device   3
 Minimum vector length:                              32
 Maximum vector length:                            1024
 Number of SMPs:                                    108
 Maximum number of threads per SMP:                2048
 Number of ASync Engines:                             5
 Memory:                                           9207742464
   8286968217 words of memory will be used on each GPU.
 Copying data from "5zzg_II_S.chk" to current chk file "5zzg_II_Sre.chk"
 IOpt=  2 FromEx=T IUOpen= 4 IOptOp= 5 NList=   0 IFRang= 0 IUIn= 4 IUOut= 2.
 --------------------------------------
 # apfd/gen scf=maxcycle=999 geom=check
 --------------------------------------
 1/29=2,38=1,172=1/1;
 2/12=2,40=1/2;
 3/5=7,11=2,14=-4,25=1,30=1,74=-44/1,2,3;
 4//1;
 5/5=2,7=999,38=5/2;
 6/7=2,8=2,9=2,10=2,28=1/1;
 99/5=1,9=1/99;
 ----------
 5zzg_III_D
 ----------
 Structure from the checkpoint file:  "5zzg_II_Sre.chk"
 Charge =  1 Multiplicity = 2
 Z-Matrix found in chk file.
 Fe,0,-6.0848927755,-6.2741186682,6.9322386537
 N,0,-5.9958201184,-8.0167953166,5.8695026082
 N,0,-5.4654356439,-5.3211293737,5.3458648017
 N,0,-5.9881134342,-4.7032510045,8.0850681383
 N,0,-6.3411402508,-7.4484962301,8.5765456206
 C,0,-6.3369718443,-9.2729252542,6.2640833914
 C,0,-6.2562949833,-10.2072659356,5.1645971851
 C,0,-5.9219345903,-9.4758446461,4.0692475143
 C,0,-5.7733468829,-8.1112532664,4.5242481283
 C,0,-5.2106636727,-5.7688860518,4.0892770406
 C,0,-4.818288898,-4.6956711726,3.217430973
 C,0,-4.836782629,-3.5608940793,3.981017232
 C,0,-5.1636462111,-3.979736233,5.3365652608
 C,0,-5.8744555744,-3.4264545533,7.6220509764
 C,0,-5.827882244,-2.494844807,8.7157675225
 C,0,-5.9594054968,-3.2349373477,9.8622044249
 C,0,-6.0791375117,-4.6141330213,9.437301135
 C,0,-6.5515513845,-6.9822140167,9.8438196277
 C,0,-6.7509012106,-8.0792072498,10.7659607332
 C,0,-6.804046656,-9.207342383,10.008869759
 C,0,-6.5649146601,-8.7907170025,8.6456055111
 C,0,-6.5541695522,-9.6579897332,7.5724679844
 H,0,-6.7531570613,-10.7009580152,7.7652446015
 C,0,-5.4156304266,-7.0763646524,3.6845368568
 H,0,-5.2430615098,-7.3158909393,2.6467223064
 C,0,-5.593398955,-3.0880463557,6.3033568744
 H,0,-5.4844134333,-2.0345676668,6.0918233645
 C,0,-6.28518952,-5.6924059926,10.2755723423
 H,0,-6.3989106166,-5.4881655038,11.3285235247
 C,0,-5.7060697532,-9.924924503,2.664924346
 H,0,-5.8843224144,-10.9931653051,2.5693973673
 H,0,-4.6828544664,-9.7193200141,2.3501169898
 H,0,-6.3807554235,-9.4019477962,1.9867764261
 C,0,-6.5186476136,-11.6694509072,5.2836199427
 H,0,-7.5169446744,-11.8512689468,5.6824259195
 H,0,-5.7964056798,-12.1333039628,5.9557445876
 H,0,-6.4429981781,-12.1555029399,4.3141011879
 C,0,-4.5692573596,-4.8304059067,1.7561080509
 H,0,-5.2545768346,-5.5511107332,1.312525068
 H,0,-3.5508117497,-5.1731948336,1.5666376379
 H,0,-4.7064681889,-3.8701902378,1.2632837841
 C,0,-4.5223776692,-2.2022188421,3.5909828176
 H,0,-5.0688615865,-1.4235431404,4.1103970883
 C,0,-3.6310275897,-1.8506083326,2.6703590361
 H,0,-3.0202672449,-2.5726805382,2.1576431553
 H,0,-3.4600623336,-0.8169207139,2.4187836359
 C,0,-5.6470738012,-1.0226849382,8.5799483473
 H,0,-6.3652193287,-0.6089488873,7.8717850453
 H,0,-4.6444562569,-0.7934058159,8.2166919508
 H,0,-5.7791358011,-0.5304831295,9.5400733684
 C,0,-5.9253144497,-2.7358970003,11.2221121501
 H,0,-6.4244457874,-1.7847064466,11.3759835189
 C,0,-5.3152814907,-3.3156694918,12.2493160136
 H,0,-4.7558599862,-4.2290880705,12.1413624251
 H,0,-5.3315456683,-2.877936271,13.2337624508
 C,0,-6.921932481,-7.9223880017,12.2376806964
 H,0,-7.7321332383,-7.2276391654,12.4586680743
 H,0,-6.0095976212,-7.5309694354,12.6880989438
 H,0,-7.1494996485,-8.8775675457,12.7046603027
 C,0,-7.0117042953,-10.6217198831,10.4303150591
 H,0,-7.8737388687,-11.0528322916,9.9203889082
 H,0,-7.1824371351,-10.6840427244,11.5021070517
 H,0,-6.1380127516,-11.2264398496,10.186634256
 C,0,-11.1121179884,-4.2471481457,5.5641314093
 H,0,-10.7337213676,-3.2492109709,5.3674088451
 H,0,-11.8761467918,-4.1859656592,6.338734069
 H,0,-11.5778158019,-4.6285834125,4.6554567673
 N,0,-10.1857939752,-6.4336094445,6.3583373856
 H,0,-11.0681771343,-6.9184759181,6.3703885836
 C,0,-9.9959972787,-5.1265642382,5.9941358822
 C,0,-8.9807515927,-6.9465407908,6.693506287
 H,0,-8.8260306487,-7.9555799348,7.0192040231
 N,0,-8.0356862924,-6.0434679867,6.5635682349
 C,0,-8.6552012237,-4.9053431262,6.1280741542
 H,0,-8.0959047872,-4.0108272983,5.9411246621
 Recover connectivity data from disk.
 Stoichiometry    C34H34FeN6(1+,2)
 Framework group  C1[X(C34H34FeN6)]
 Deg. of freedom   219
 Full point group                 C1      NOp   1
 Largest Abelian subgroup         C1      NOp   1
 Largest concise Abelian subgroup C1      NOp   1
                         Standard orientation:                         
 ---------------------------------------------------------------------
 Center     Atomic      Atomic             Coordinates (Angstroms)
 Number     Number       Type             X           Y           Z
 ---------------------------------------------------------------------
      1         26           0       -0.065513    0.104402   -0.329632
      2          7           0        0.107421    2.130016   -0.532723
      3          7           0        1.868245   -0.042863   -0.547323
      4          7           0       -0.355133   -1.824788   -0.348492
      5          7           0       -2.073517    0.394133   -0.510037
      6          6           0       -0.863751    3.079213   -0.456630
      7          6           0       -0.302080    4.409272   -0.518602
      8          6           0        1.046536    4.249483   -0.566207
      9          6           0        1.284992    2.823178   -0.564018
     10          6           0        2.818428    0.918491   -0.679080
     11          6           0        4.135454    0.349018   -0.762785
     12          6           0        3.968498   -1.006106   -0.679784
     13          6           0        2.532962   -1.243684   -0.629049
     14          6           0        0.638279   -2.744147   -0.189045
     15          6           0        0.106519   -4.078198   -0.250858
     16          6           0       -1.248935   -3.949002   -0.410244
     17          6           0       -1.514212   -2.525869   -0.447394
     18          6           0       -3.015715   -0.591705   -0.420257
     19          6           0       -4.347598   -0.038426   -0.536228
     20          6           0       -4.198052    1.312932   -0.549220
     21          6           0       -2.774752    1.562319   -0.513515
     22          6           0       -2.220674    2.825937   -0.500581
     23          1           0       -2.892101    3.670760   -0.499539
     24          6           0        2.549880    2.275051   -0.624730
     25          1           0        3.384635    2.956784   -0.676065
     26          6           0        1.996603   -2.449467   -0.213247
     27          1           0        2.670606   -3.288414   -0.121977
     28          6           0       -2.765986   -1.949620   -0.541355
     29          1           0       -3.617529   -2.611461   -0.555287
     30          6           0        2.117066    5.283497   -0.638145
     31          1           0        1.690252    6.283234   -0.618302
     32          1           0        2.692690    5.175444   -1.557562
     33          1           0        2.802357    5.185631    0.204107
     34          6           0       -1.108009    5.662826   -0.510791
     35          1           0       -1.741274    5.709043    0.375517
     36          1           0       -1.752082    5.707929   -1.389245
     37          1           0       -0.462019    6.537239   -0.516576
     38          6           0        5.401891    1.129808   -0.809034
     39          1           0        5.328916    2.020982   -0.187482
     40          1           0        5.624029    1.447682   -1.828958
     41          1           0        6.229519    0.521564   -0.450163
     42          6           0        4.975684   -2.045991   -0.714280
     43          1           0        4.755659   -2.935637   -0.135582
     44          6           0        6.117631   -1.991685   -1.391547
     45          1           0        6.370085   -1.159689   -2.025064
     46          1           0        6.830506   -2.798970   -1.357923
     47          6           0        0.914810   -5.326919   -0.174990
     48          1           0        1.568948   -5.311331    0.696942
     49          1           0        1.538983   -5.431857   -1.063338
     50          1           0        0.268178   -6.198362   -0.111767
     51          6           0       -2.207314   -5.024288   -0.567796
     52          1           0       -2.022179   -5.899516    0.046429
     53          6           0       -3.235621   -5.034043   -1.407984
     54          1           0       -3.431716   -4.217805   -2.081959
     55          1           0       -3.903885   -5.877004   -1.470013
     56          6           0       -5.597325   -0.849107   -0.564189
     57          1           0       -5.648224   -1.507067    0.303241
     58          1           0       -5.629769   -1.469119   -1.460277
     59          1           0       -6.474952   -0.207242   -0.562330
     60          6           0       -5.235459    2.379735   -0.632396
     61          1           0       -5.158377    3.058858    0.217214
     62          1           0       -6.233317    1.948408   -0.635513
     63          1           0       -5.111826    2.964277   -1.544223
     64          6           0        0.996327   -0.688855    5.101442
     65          1           0        1.688013   -1.504919    4.918759
     66          1           0        0.190916   -1.048569    5.741296
     67          1           0        1.524627    0.103601    5.631508
     68          7           0       -0.476183    0.804865    3.733974
     69          1           0       -0.882572    1.290091    4.517074
     70          6           0        0.460025   -0.192582    3.809120
     71          6           0       -0.749015    1.015526    2.426783
     72          1           0       -1.448869    1.743332    2.068064
     73          7           0       -0.041490    0.211644    1.666022
     74          6           0        0.716115   -0.545809    2.515188
     75          1           0        1.390505   -1.288079    2.138156
 ---------------------------------------------------------------------
 Rotational constants (GHZ):           0.0961135           0.0921164           0.0603173
 General basis read from cards:  (5D, 7F)
 There are   704 symmetry adapted cartesian basis functions of A   symmetry.
 There are   661 symmetry adapted basis functions of A   symmetry.
   661 basis functions,  1342 primitive gaussians,   704 cartesian basis functions
   153 alpha electrons      152 beta electrons
       nuclear repulsion energy      5583.9667407913 Hartrees.
 NAtoms=   75 NActive=   75 NUniq=   75 SFac= 1.00D+00 NAtFMM=   60 NAOKFM=T Big=T
 Integral buffers will be    131072 words long.
 Raffenetti 2 integral format.
 Two-electron integral symmetry is turned on.
 R6APFD:  NTU= -4 IXU= 1 FactS= 1.050
 Nuclear repulsion after empirical dispersion term =     5583.8314029496 Hartrees.
 One-electron integrals computed using PRISM.
 NBasis=   661 RedAO= T EigKep=  3.11D-04  NBF=   661
 NBsUse=   661 1.00D-06 EigRej= -1.00D+00 NBFU=   661
 ExpMin= 4.20D-02 ExpMax= 3.01D+05 ExpMxC= 2.91D+03 IAcc=3 IRadAn=         5 AccDes= 0.00D+00
 Harris functional with IExCor= 3731 and IRadAn=       5 diagonalized for initial guess.
 HarFok:  IExCor= 3731 AccDes= 0.00D+00 IRadAn=         5 IDoV= 1 UseB2=F ITyADJ=14
 ICtDFT=  3500011 ScaDFX=  1.000000  1.000000  1.000000  1.000000
 FoFCou: FMM=F IPFlag=           0 FMFlag=      100000 FMFlg1=        2001
         NFxFlg=           0 DoJE=T BraDBF=F KetDBF=T FulRan=T
         wScrn=  0.000000 ICntrl=       500 IOpCl=  0 I1Cent=   200000004 NGrid=           0
         NMat0=    1 NMatS0=      1 NMatT0=    0 NMatD0=    1 NMtDS0=    0 NMtDT0=    0
 Petite list used in FoFCou.
 Initial guess <Sx>= 0.0000 <Sy>= 0.0000 <Sz>= 0.5000 <S**2>= 0.7500 S= 0.5000
 Requested convergence on RMS density matrix=1.00D-08 within 999 cycles.
 Requested convergence on MAX density matrix=1.00D-06.
 Requested convergence on             energy=1.00D-06.
 No special actions if energy rises.
 EnCoef did   100 forward-backward iterations
 EnCoef did   100 forward-backward iterations
 EnCoef did   100 forward-backward iterations
 EnCoef did   100 forward-backward iterations
 EnCoef did     9 forward-backward iterations
 Restarting incremental Fock formation.
 Rare condition: small coef for last iteration:  0.000D+00
 Rare condition: small coef for last iteration:  0.000D+00
 Rare condition: small coef for last iteration:  0.000D+00
 Rare condition: small coef for last iteration:  0.000D+00
 Rare condition: small coef for last iteration:  0.000D+00
 Rare condition: small coef for last iteration:  0.000D+00
 Rare condition: small coef for last iteration:  0.000D+00
 Rare condition: small coef for last iteration:  0.000D+00
 Rare condition: small coef for last iteration:  0.000D+00
 Rare condition: small coef for last iteration:  0.000D+00
 Rare condition: small coef for last iteration:  0.000D+00
 Restarting incremental Fock formation.
 Restarting incremental Fock formation.
 Restarting incremental Fock formation.
 SCF Done:  E(UAPFD) =  -2906.81725023     A.U. after   98 cycles
            NFock= 98  Conv=0.35D-08     -V/T= 2.0038
 <Sx>= 0.0000 <Sy>= 0.0000 <Sz>= 0.5000 <S**2>= 0.9042 S= 0.5743
 <L.S>=  0.00000000000    
 Annihilation of the first spin contaminant:
 S**2 before annihilation     0.9042,   after     0.7566

 **********************************************************************

            Population analysis using the SCF Density.

 **********************************************************************

 Orbital symmetries:
 Alpha Orbitals:
       Occupied  (A) (A) (A) (A) (A) (A) (A) (A) (A) (A) (A) (A)
                 (A) (A) (A) (A) (A) (A) (A) (A) (A) (A) (A) (A)
                 (A) (A) (A) (A) (A) (A) (A) (A) (A) (A) (A) (A)
                 (A) (A) (A) (A) (A) (A) (A) (A) (A) (A) (A) (A)
                 (A) (A) (A) (A) (A) (A) (A) (A) (A) (A) (A) (A)
                 (A) (A) (A) (A) (A) (A) (A) (A) (A) (A) (A) (A)
                 (A) (A) (A) (A) (A) (A) (A) (A) (A) (A) (A) (A)
                 (A) (A) (A) (A) (A) (A) (A) (A) (A) (A) (A) (A)
                 (A) (A) (A) (A) (A) (A) (A) (A) (A) (A) (A) (A)
                 (A) (A) (A) (A) (A) (A) (A) (A) (A) (A) (A) (A)
                 (A) (A) (A) (A) (A) (A) (A) (A) (A) (A) (A) (A)
                 (A) (A) (A) (A) (A) (A) (A) (A) (A) (A) (A) (A)
                 (A) (A) (A) (A) (A) (A) (A) (A) (A)
       Virtual   (A) (A) (A) (A) (A) (A) (A) (A) (A) (A) (A) (A)
                 (A) (A) (A) (A) (A) (A) (A) (A) (A) (A) (A) (A)
                 (A) (A) (A) (A) (A) (A) (A) (A) (A) (A) (A) (A)
                 (A) (A) (A) (A) (A) (A) (A) (A) (A) (A) (A) (A)
                 (A) (A) (A) (A) (A) (A) (A) (A) (A) (A) (A) (A)
                 (A) (A) (A) (A) (A) (A) (A) (A) (A) (A) (A) (A)
                 (A) (A) (A) (A) (A) (A) (A) (A) (A) (A) (A) (A)
                 (A) (A) (A) (A) (A) (A) (A) (A) (A) (A) (A) (A)
                 (A) (A) (A) (A) (A) (A) (A) (A) (A) (A) (A) (A)
                 (A) (A) (A) (A) (A) (A) (A) (A) (A) (A) (A) (A)
                 (A) (A) (A) (A) (A) (A) (A) (A) (A) (A) (A) (A)
                 (A) (A) (A) (A) (A) (A) (A) (A) (A) (A) (A) (A)
                 (A) (A) (A) (A) (A) (A) (A) (A) (A) (A) (A) (A)
                 (A) (A) (A) (A) (A) (A) (A) (A) (A) (A) (A) (A)
                 (A) (A) (A) (A) (A) (A) (A) (A) (A) (A) (A) (A)
                 (A) (A) (A) (A) (A) (A) (A) (A) (A) (A) (A) (A)
                 (A) (A) (A) (A) (A) (A) (A) (A) (A) (A) (A) (A)
                 (A) (A) (A) (A) (A) (A) (A) (A) (A) (A) (A) (A)
                 (A) (A) (A) (A) (A) (A) (A) (A) (A) (A) (A) (A)
                 (A) (A) (A) (A) (A) (A) (A) (A) (A) (A) (A) (A)
                 (A) (A) (A) (A) (A) (A) (A) (A) (A) (A) (A) (A)
                 (A) (A) (A) (A) (A) (A) (A) (A) (A) (A) (A) (A)
                 (A) (A) (A) (A) (A) (A) (A) (A) (A) (A) (A) (A)
                 (A) (A) (A) (A) (A) (A) (A) (A) (A) (A) (A) (A)
                 (A) (A) (A) (A) (A) (A) (A) (A) (A) (A) (A) (A)
                 (A) (A) (A) (A) (A) (A) (A) (A) (A) (A) (A) (A)
                 (A) (A) (A) (A) (A) (A) (A) (A) (A) (A) (A) (A)
                 (A) (A) (A) (A) (A) (A) (A) (A) (A) (A) (A) (A)
                 (A) (A) (A) (A) (A) (A) (A) (A) (A) (A) (A) (A)
                 (A) (A) (A) (A) (A) (A) (A) (A) (A) (A) (A) (A)
                 (A) (A) (A) (A) (A) (A) (A) (A) (A) (A) (A) (A)
                 (A) (A) (A) (A) (A) (A) (A) (A) (A) (A) (A) (A)
                 (A) (A) (A) (A) (A) (A) (A) (A) (A) (A) (A) (A)
                 (A) (A) (A) (A) (A) (A) (A) (A) (A) (A) (A) (A)
                 (A) (A) (A) (A) (A) (A) (A) (A) (A) (A) (A) (A)
                 (A) (A) (A) (A) (A) (A) (A) (A) (A) (A) (A) (A)
                 (A) (A) (A) (A) (A) (A) (A) (A) (A) (A) (A) (A)
                 (A) (A) (A) (A) (A) (A) (A) (A) (A) (A) (A) (A)
                 (A) (A) (A) (A) (A) (A) (A) (A) (A) (A) (A) (A)
                 (A) (A) (A) (A) (A) (A) (A) (A) (A) (A) (A) (A)
                 (A) (A) (A) (A) (A) (A) (A) (A) (A) (A) (A) (A)
                 (A) (A) (A) (A) (A) (A) (A) (A) (A) (A) (A) (A)
                 (A) (A) (A) (A)
 Beta  Orbitals:
       Occupied  (A) (A) (A) (A) (A) (A) (A) (A) (A) (A) (A) (A)
                 (A) (A) (A) (A) (A) (A) (A) (A) (A) (A) (A) (A)
                 (A) (A) (A) (A) (A) (A) (A) (A) (A) (A) (A) (A)
                 (A) (A) (A) (A) (A) (A) (A) (A) (A) (A) (A) (A)
                 (A) (A) (A) (A) (A) (A) (A) (A) (A) (A) (A) (A)
                 (A) (A) (A) (A) (A) (A) (A) (A) (A) (A) (A) (A)
                 (A) (A) (A) (A) (A) (A) (A) (A) (A) (A) (A) (A)
                 (A) (A) (A) (A) (A) (A) (A) (A) (A) (A) (A) (A)
                 (A) (A) (A) (A) (A) (A) (A) (A) (A) (A) (A) (A)
                 (A) (A) (A) (A) (A) (A) (A) (A) (A) (A) (A) (A)
                 (A) (A) (A) (A) (A) (A) (A) (A) (A) (A) (A) (A)
                 (A) (A) (A) (A) (A) (A) (A) (A) (A) (A) (A) (A)
                 (A) (A) (A) (A) (A) (A) (A) (A)
       Virtual   (A) (A) (A) (A) (A) (A) (A) (A) (A) (A) (A) (A)
                 (A) (A) (A) (A) (A) (A) (A) (A) (A) (A) (A) (A)
                 (A) (A) (A) (A) (A) (A) (A) (A) (A) (A) (A) (A)
                 (A) (A) (A) (A) (A) (A) (A) (A) (A) (A) (A) (A)
                 (A) (A) (A) (A) (A) (A) (A) (A) (A) (A) (A) (A)
                 (A) (A) (A) (A) (A) (A) (A) (A) (A) (A) (A) (A)
                 (A) (A) (A) (A) (A) (A) (A) (A) (A) (A) (A) (A)
                 (A) (A) (A) (A) (A) (A) (A) (A) (A) (A) (A) (A)
                 (A) (A) (A) (A) (A) (A) (A) (A) (A) (A) (A) (A)
                 (A) (A) (A) (A) (A) (A) (A) (A) (A) (A) (A) (A)
                 (A) (A) (A) (A) (A) (A) (A) (A) (A) (A) (A) (A)
                 (A) (A) (A) (A) (A) (A) (A) (A) (A) (A) (A) (A)
                 (A) (A) (A) (A) (A) (A) (A) (A) (A) (A) (A) (A)
                 (A) (A) (A) (A) (A) (A) (A) (A) (A) (A) (A) (A)
                 (A) (A) (A) (A) (A) (A) (A) (A) (A) (A) (A) (A)
                 (A) (A) (A) (A) (A) (A) (A) (A) (A) (A) (A) (A)
                 (A) (A) (A) (A) (A) (A) (A) (A) (A) (A) (A) (A)
                 (A) (A) (A) (A) (A) (A) (A) (A) (A) (A) (A) (A)
                 (A) (A) (A) (A) (A) (A) (A) (A) (A) (A) (A) (A)
                 (A) (A) (A) (A) (A) (A) (A) (A) (A) (A) (A) (A)
                 (A) (A) (A) (A) (A) (A) (A) (A) (A) (A) (A) (A)
                 (A) (A) (A) (A) (A) (A) (A) (A) (A) (A) (A) (A)
                 (A) (A) (A) (A) (A) (A) (A) (A) (A) (A) (A) (A)
                 (A) (A) (A) (A) (A) (A) (A) (A) (A) (A) (A) (A)
                 (A) (A) (A) (A) (A) (A) (A) (A) (A) (A) (A) (A)
                 (A) (A) (A) (A) (A) (A) (A) (A) (A) (A) (A) (A)
                 (A) (A) (A) (A) (A) (A) (A) (A) (A) (A) (A) (A)
                 (A) (A) (A) (A) (A) (A) (A) (A) (A) (A) (A) (A)
                 (A) (A) (A) (A) (A) (A) (A) (A) (A) (A) (A) (A)
                 (A) (A) (A) (A) (A) (A) (A) (A) (A) (A) (A) (A)
                 (A) (A) (A) (A) (A) (A) (A) (A) (A) (A) (A) (A)
                 (A) (A) (A) (A) (A) (A) (A) (A) (A) (A) (A) (A)
                 (A) (A) (A) (A) (A) (A) (A) (A) (A) (A) (A) (A)
                 (A) (A) (A) (A) (A) (A) (A) (A) (A) (A) (A) (A)
                 (A) (A) (A) (A) (A) (A) (A) (A) (A) (A) (A) (A)
                 (A) (A) (A) (A) (A) (A) (A) (A) (A) (A) (A) (A)
                 (A) (A) (A) (A) (A) (A) (A) (A) (A) (A) (A) (A)
                 (A) (A) (A) (A) (A) (A) (A) (A) (A) (A) (A) (A)
                 (A) (A) (A) (A) (A) (A) (A) (A) (A) (A) (A) (A)
                 (A) (A) (A) (A) (A) (A) (A) (A) (A) (A) (A) (A)
                 (A) (A) (A) (A) (A) (A) (A) (A) (A) (A) (A) (A)
                 (A) (A) (A) (A) (A) (A) (A) (A) (A) (A) (A) (A)
                 (A) (A) (A) (A) (A)
 The electronic state is 2-A.
 Alpha  occ. eigenvalues -- -256.37243 -30.24202 -26.08685 -26.08583 -26.06137
 Alpha  occ. eigenvalues --  -14.54860 -14.51945 -14.48564 -14.48086 -14.48064
 Alpha  occ. eigenvalues --  -14.47466 -10.39052 -10.36140 -10.34206 -10.33884
 Alpha  occ. eigenvalues --  -10.33744 -10.33719 -10.33670 -10.33594 -10.33537
 Alpha  occ. eigenvalues --  -10.33511 -10.33417 -10.31316 -10.31069 -10.30925
 Alpha  occ. eigenvalues --  -10.30857 -10.30844 -10.30682 -10.30654 -10.30471
 Alpha  occ. eigenvalues --  -10.30465 -10.30374 -10.30173 -10.30168 -10.30104
 Alpha  occ. eigenvalues --  -10.29662 -10.29415 -10.28491 -10.28412 -10.28342
 Alpha  occ. eigenvalues --  -10.28342 -10.28332 -10.28316 -10.28285 -10.28016
 Alpha  occ. eigenvalues --   -3.63573  -2.41735  -2.41422  -2.35953  -1.17657
 Alpha  occ. eigenvalues --   -1.09284  -1.08329  -1.08084  -1.07108  -1.03457
 Alpha  occ. eigenvalues --   -0.93888  -0.92502  -0.91977  -0.91600  -0.91330
 Alpha  occ. eigenvalues --   -0.91147  -0.91014  -0.90896  -0.86999  -0.85866
 Alpha  occ. eigenvalues --   -0.85483  -0.84425  -0.83071  -0.82842  -0.81325
 Alpha  occ. eigenvalues --   -0.80197  -0.78742  -0.78496  -0.78184  -0.76674
 Alpha  occ. eigenvalues --   -0.75491  -0.75273  -0.73103  -0.71171  -0.70346
 Alpha  occ. eigenvalues --   -0.68680  -0.68512  -0.67596  -0.65328  -0.64982
 Alpha  occ. eigenvalues --   -0.64071  -0.63071  -0.62053  -0.61801  -0.61151
 Alpha  occ. eigenvalues --   -0.59642  -0.59037  -0.58782  -0.58299  -0.58098
 Alpha  occ. eigenvalues --   -0.56369  -0.55859  -0.55136  -0.55106  -0.54689
 Alpha  occ. eigenvalues --   -0.54347  -0.54176  -0.53950  -0.53487  -0.53390
 Alpha  occ. eigenvalues --   -0.53242  -0.53010  -0.52616  -0.52293  -0.52049
 Alpha  occ. eigenvalues --   -0.51068  -0.50910  -0.50743  -0.50619  -0.50507
 Alpha  occ. eigenvalues --   -0.50381  -0.50218  -0.50105  -0.49888  -0.49651
 Alpha  occ. eigenvalues --   -0.49526  -0.48861  -0.48643  -0.48283  -0.48251
 Alpha  occ. eigenvalues --   -0.47766  -0.47678  -0.47451  -0.46747  -0.46626
 Alpha  occ. eigenvalues --   -0.45836  -0.45738  -0.44912  -0.44475  -0.43912
 Alpha  occ. eigenvalues --   -0.43528  -0.43365  -0.42758  -0.41966  -0.41587
 Alpha  occ. eigenvalues --   -0.39933  -0.39250  -0.39155  -0.38874  -0.37349
 Alpha  occ. eigenvalues --   -0.37062  -0.35284  -0.34217  -0.33155  -0.32544
 Alpha  occ. eigenvalues --   -0.31916  -0.30171  -0.28988
 Alpha virt. eigenvalues --   -0.22414  -0.17495  -0.17343  -0.14621  -0.11651
 Alpha virt. eigenvalues --   -0.09622  -0.08216  -0.07157  -0.05439  -0.04953
 Alpha virt. eigenvalues --   -0.02728  -0.02056  -0.01838  -0.01195   0.00434
 Alpha virt. eigenvalues --    0.01006   0.01686   0.02010   0.02755   0.02954
 Alpha virt. eigenvalues --    0.03218   0.03865   0.04221   0.04491   0.04539
 Alpha virt. eigenvalues --    0.04907   0.05253   0.05534   0.06021   0.06399
 Alpha virt. eigenvalues --    0.07036   0.07291   0.07631   0.07855   0.08100
 Alpha virt. eigenvalues --    0.08284   0.08561   0.08941   0.09038   0.09396
 Alpha virt. eigenvalues --    0.09671   0.09860   0.10024   0.10627   0.10775
 Alpha virt. eigenvalues --    0.11448   0.11686   0.11821   0.12128   0.12300
 Alpha virt. eigenvalues --    0.12627   0.12820   0.13055   0.13925   0.14364
 Alpha virt. eigenvalues --    0.14713   0.14807   0.15425   0.15583   0.16235
 Alpha virt. eigenvalues --    0.16440   0.16839   0.17574   0.17711   0.17967
 Alpha virt. eigenvalues --    0.19576   0.19789   0.20265   0.20977   0.21669
 Alpha virt. eigenvalues --    0.22301   0.22728   0.23527   0.24379   0.25489
 Alpha virt. eigenvalues --    0.25660   0.25978   0.26581   0.26809   0.27298
 Alpha virt. eigenvalues --    0.28930   0.29901   0.30545   0.31295   0.31875
 Alpha virt. eigenvalues --    0.32750   0.33178   0.33818   0.34342   0.35628
 Alpha virt. eigenvalues --    0.36935   0.37686   0.38016   0.38490   0.39133
 Alpha virt. eigenvalues --    0.39463   0.40068   0.40223   0.40627   0.41323
 Alpha virt. eigenvalues --    0.41668   0.41924   0.42125   0.42458   0.43051
 Alpha virt. eigenvalues --    0.43229   0.43273   0.44079   0.44512   0.44773
 Alpha virt. eigenvalues --    0.44925   0.45519   0.45772   0.46397   0.46829
 Alpha virt. eigenvalues --    0.47282   0.47403   0.47763   0.48610   0.48721
 Alpha virt. eigenvalues --    0.49354   0.49507   0.49983   0.50414   0.50887
 Alpha virt. eigenvalues --    0.51371   0.51565   0.52285   0.52619   0.53496
 Alpha virt. eigenvalues --    0.53510   0.53669   0.54187   0.54700   0.54881
 Alpha virt. eigenvalues --    0.55144   0.55773   0.56327   0.56515   0.56985
 Alpha virt. eigenvalues --    0.57397   0.57471   0.57696   0.57967   0.58920
 Alpha virt. eigenvalues --    0.59342   0.59825   0.59968   0.60775   0.61445
 Alpha virt. eigenvalues --    0.61633   0.62022   0.62341   0.62986   0.63481
 Alpha virt. eigenvalues --    0.63791   0.64049   0.64928   0.65171   0.66084
 Alpha virt. eigenvalues --    0.66209   0.66488   0.67052   0.67427   0.68159
 Alpha virt. eigenvalues --    0.68319   0.68483   0.68772   0.69253   0.69491
 Alpha virt. eigenvalues --    0.69571   0.70337   0.71077   0.71368   0.71985
 Alpha virt. eigenvalues --    0.72293   0.72830   0.73256   0.74092   0.74751
 Alpha virt. eigenvalues --    0.74851   0.76150   0.76386   0.77103   0.77872
 Alpha virt. eigenvalues --    0.78075   0.78241   0.78908   0.79132   0.79419
 Alpha virt. eigenvalues --    0.79656   0.80475   0.80679   0.80994   0.81367
 Alpha virt. eigenvalues --    0.81666   0.82404   0.82683   0.82880   0.83027
 Alpha virt. eigenvalues --    0.83333   0.83748   0.84025   0.84143   0.84579
 Alpha virt. eigenvalues --    0.85025   0.85251   0.85705   0.85983   0.86294
 Alpha virt. eigenvalues --    0.86792   0.87023   0.87579   0.88106   0.88763
 Alpha virt. eigenvalues --    0.88901   0.89447   0.89963   0.90267   0.90638
 Alpha virt. eigenvalues --    0.90850   0.91612   0.91932   0.92213   0.92292
 Alpha virt. eigenvalues --    0.92860   0.93669   0.94616   0.94888   0.95339
 Alpha virt. eigenvalues --    0.95917   0.96158   0.97192   0.97869   0.98165
 Alpha virt. eigenvalues --    0.99109   1.00566   1.01995   1.02998   1.03243
 Alpha virt. eigenvalues --    1.03745   1.04037   1.05143   1.05946   1.06661
 Alpha virt. eigenvalues --    1.06932   1.07471   1.07828   1.08317   1.08652
 Alpha virt. eigenvalues --    1.09316   1.09897   1.10402   1.10865   1.11268
 Alpha virt. eigenvalues --    1.11793   1.12166   1.12980   1.13189   1.14572
 Alpha virt. eigenvalues --    1.15480   1.16099   1.17112   1.17557   1.19416
 Alpha virt. eigenvalues --    1.19473   1.20251   1.21232   1.21770   1.22442
 Alpha virt. eigenvalues --    1.23633   1.23919   1.24390   1.25030   1.25845
 Alpha virt. eigenvalues --    1.26366   1.26463   1.27469   1.28184   1.28874
 Alpha virt. eigenvalues --    1.29123   1.29779   1.30053   1.30838   1.31274
 Alpha virt. eigenvalues --    1.32046   1.32842   1.33096   1.34353   1.35469
 Alpha virt. eigenvalues --    1.36093   1.38028   1.38305   1.39230   1.39982
 Alpha virt. eigenvalues --    1.40567   1.41043   1.42087   1.43750   1.44379
 Alpha virt. eigenvalues --    1.44891   1.45320   1.45750   1.46209   1.47377
 Alpha virt. eigenvalues --    1.47659   1.49269   1.49728   1.51092   1.51233
 Alpha virt. eigenvalues --    1.51631   1.52790   1.54330   1.55082   1.55430
 Alpha virt. eigenvalues --    1.57028   1.58104   1.58952   1.59987   1.60839
 Alpha virt. eigenvalues --    1.61514   1.63449   1.65111   1.66121   1.67541
 Alpha virt. eigenvalues --    1.67994   1.68816   1.69222   1.69711   1.70239
 Alpha virt. eigenvalues --    1.70895   1.71059   1.71524   1.71808   1.72396
 Alpha virt. eigenvalues --    1.73049   1.73543   1.74530   1.74795   1.75213
 Alpha virt. eigenvalues --    1.75513   1.76618   1.77154   1.77787   1.78361
 Alpha virt. eigenvalues --    1.78973   1.79156   1.79973   1.80231   1.81461
 Alpha virt. eigenvalues --    1.81763   1.82116   1.83012   1.83319   1.84083
 Alpha virt. eigenvalues --    1.84319   1.85055   1.85971   1.87894   1.88707
 Alpha virt. eigenvalues --    1.89699   1.89926   1.90217   1.90601   1.90661
 Alpha virt. eigenvalues --    1.91412   1.92137   1.92991   1.94062   1.94701
 Alpha virt. eigenvalues --    1.95441   1.95776   1.96436   1.97101   1.97865
 Alpha virt. eigenvalues --    1.98299   1.98850   2.00362   2.00751   2.01324
 Alpha virt. eigenvalues --    2.02540   2.03906   2.04063   2.04099   2.05374
 Alpha virt. eigenvalues --    2.05966   2.07182   2.07651   2.08192   2.08801
 Alpha virt. eigenvalues --    2.09021   2.10044   2.10916   2.11669   2.12581
 Alpha virt. eigenvalues --    2.13280   2.14016   2.14364   2.15002   2.15357
 Alpha virt. eigenvalues --    2.16079   2.16361   2.16981   2.17137   2.18139
 Alpha virt. eigenvalues --    2.18510   2.19235   2.19736   2.19955   2.20025
 Alpha virt. eigenvalues --    2.21057   2.21609   2.21730   2.21920   2.22425
 Alpha virt. eigenvalues --    2.22957   2.24047   2.24575   2.25126   2.25987
 Alpha virt. eigenvalues --    2.26514   2.27282   2.27742   2.28025   2.29592
 Alpha virt. eigenvalues --    2.29700   2.30137   2.30889   2.31117   2.32256
 Alpha virt. eigenvalues --    2.32338   2.32723   2.33433   2.34177   2.34829
 Alpha virt. eigenvalues --    2.36372   2.36981   2.37757   2.38344   2.39972
 Alpha virt. eigenvalues --    2.40695   2.42433   2.42786   2.43127   2.43295
 Alpha virt. eigenvalues --    2.44418   2.45569   2.45854   2.46772   2.47410
 Alpha virt. eigenvalues --    2.48675   2.49973   2.50537   2.50670   2.52637
 Alpha virt. eigenvalues --    2.54457   2.54898   2.56774   2.57577   2.58368
 Alpha virt. eigenvalues --    2.59964   2.61130   2.62014   2.63307   2.64039
 Alpha virt. eigenvalues --    2.66180   2.67242   2.68291   2.69315   2.70215
 Alpha virt. eigenvalues --    2.71383   2.73561   2.75592   2.76297   2.77145
 Alpha virt. eigenvalues --    2.80119   2.80618   2.82162   2.83526   2.84763
 Alpha virt. eigenvalues --    2.86225   2.86941   2.87784   2.88180   2.88412
 Alpha virt. eigenvalues --    2.89101   2.93741   2.94967   2.95960   3.01961
 Alpha virt. eigenvalues --    3.02695   3.04224   3.08025   3.12332   3.13186
 Alpha virt. eigenvalues --    3.18099   3.19666   3.26259   3.26791   3.29586
 Alpha virt. eigenvalues --    3.33165   3.35133   3.35749   3.45332   3.51388
 Alpha virt. eigenvalues --    3.75205   3.91514   4.08237
  Beta  occ. eigenvalues -- -256.37196 -30.21655 -26.05988 -26.05758 -26.05281
  Beta  occ. eigenvalues --  -14.54859 -14.52061 -14.48683 -14.48233 -14.48214
  Beta  occ. eigenvalues --  -14.47602 -10.39037 -10.36145 -10.34170 -10.33851
  Beta  occ. eigenvalues --  -10.33723 -10.33688 -10.33673 -10.33563 -10.33514
  Beta  occ. eigenvalues --  -10.33485 -10.33382 -10.31387 -10.31070 -10.31000
  Beta  occ. eigenvalues --  -10.30926 -10.30838 -10.30713 -10.30654 -10.30479
  Beta  occ. eigenvalues --  -10.30448 -10.30361 -10.30171 -10.30164 -10.30104
  Beta  occ. eigenvalues --  -10.29671 -10.29418 -10.28492 -10.28413 -10.28344
  Beta  occ. eigenvalues --  -10.28342 -10.28318 -10.28316 -10.28285 -10.28012
  Beta  occ. eigenvalues --   -3.57354  -2.33452  -2.33051  -2.32743  -1.17687
  Beta  occ. eigenvalues --   -1.09398  -1.08417  -1.08235  -1.07221  -1.03537
  Beta  occ. eigenvalues --   -0.93953  -0.92491  -0.92021  -0.91616  -0.91337
  Beta  occ. eigenvalues --   -0.91193  -0.91095  -0.90970  -0.86996  -0.85905
  Beta  occ. eigenvalues --   -0.85620  -0.84429  -0.83084  -0.82852  -0.81332
  Beta  occ. eigenvalues --   -0.80221  -0.78743  -0.78522  -0.78222  -0.76726
  Beta  occ. eigenvalues --   -0.75511  -0.75296  -0.73114  -0.71174  -0.70346
  Beta  occ. eigenvalues --   -0.68686  -0.68570  -0.67609  -0.65338  -0.65010
  Beta  occ. eigenvalues --   -0.64086  -0.63060  -0.62087  -0.61824  -0.61190
  Beta  occ. eigenvalues --   -0.59644  -0.59023  -0.58759  -0.58303  -0.58122
  Beta  occ. eigenvalues --   -0.56375  -0.55910  -0.55162  -0.55116  -0.54641
  Beta  occ. eigenvalues --   -0.54332  -0.54140  -0.53975  -0.53454  -0.53412
  Beta  occ. eigenvalues --   -0.53204  -0.53034  -0.52589  -0.52300  -0.52032
  Beta  occ. eigenvalues --   -0.51043  -0.50793  -0.50693  -0.50608  -0.50466
  Beta  occ. eigenvalues --   -0.50382  -0.50155  -0.49989  -0.49852  -0.49689
  Beta  occ. eigenvalues --   -0.49469  -0.48841  -0.48513  -0.48299  -0.48029
  Beta  occ. eigenvalues --   -0.47638  -0.47502  -0.47406  -0.46700  -0.46415
  Beta  occ. eigenvalues --   -0.45744  -0.44932  -0.44437  -0.43898  -0.43809
  Beta  occ. eigenvalues --   -0.43260  -0.42935  -0.42109  -0.41908  -0.39594
  Beta  occ. eigenvalues --   -0.39081  -0.38415  -0.37912  -0.36795  -0.36551
  Beta  occ. eigenvalues --   -0.35184  -0.34127  -0.33377  -0.32743  -0.31689
  Beta  occ. eigenvalues --   -0.30281  -0.28747
  Beta virt. eigenvalues --   -0.19963  -0.17683  -0.17324  -0.16358  -0.11746
  Beta virt. eigenvalues --   -0.11286  -0.09422  -0.08122  -0.07216  -0.05391
  Beta virt. eigenvalues --   -0.04961  -0.02435  -0.01953  -0.01607  -0.01029
  Beta virt. eigenvalues --    0.00518   0.01074   0.01698   0.01995   0.02802
  Beta virt. eigenvalues --    0.02949   0.03217   0.03857   0.04199   0.04436
  Beta virt. eigenvalues --    0.04528   0.04938   0.05255   0.05552   0.06016
  Beta virt. eigenvalues --    0.06422   0.07038   0.07294   0.07637   0.07859
  Beta virt. eigenvalues --    0.08108   0.08295   0.08556   0.08923   0.09017
  Beta virt. eigenvalues --    0.09409   0.09714   0.09864   0.10036   0.10629
  Beta virt. eigenvalues --    0.10832   0.11465   0.11723   0.11845   0.12162
  Beta virt. eigenvalues --    0.12319   0.12778   0.13036   0.13108   0.13969
  Beta virt. eigenvalues --    0.14420   0.14766   0.14938   0.15454   0.15732
  Beta virt. eigenvalues --    0.16241   0.16541   0.16874   0.17623   0.17741
  Beta virt. eigenvalues --    0.17991   0.19624   0.19865   0.20494   0.21046
  Beta virt. eigenvalues --    0.21774   0.22398   0.22873   0.23566   0.24427
  Beta virt. eigenvalues --    0.25542   0.25656   0.25990   0.26672   0.26859
  Beta virt. eigenvalues --    0.27343   0.28947   0.29938   0.30591   0.31413
  Beta virt. eigenvalues --    0.31953   0.32783   0.33200   0.33811   0.34357
  Beta virt. eigenvalues --    0.35693   0.36982   0.37823   0.38038   0.38527
  Beta virt. eigenvalues --    0.39164   0.39484   0.40105   0.40242   0.40663
  Beta virt. eigenvalues --    0.41429   0.41729   0.41968   0.42115   0.42467
  Beta virt. eigenvalues --    0.43062   0.43229   0.43278   0.44101   0.44585
  Beta virt. eigenvalues --    0.44791   0.45014   0.45553   0.45806   0.46435
  Beta virt. eigenvalues --    0.46822   0.47347   0.47420   0.47768   0.48593
  Beta virt. eigenvalues --    0.48689   0.49397   0.49506   0.49949   0.50458
  Beta virt. eigenvalues --    0.50894   0.51365   0.51588   0.52259   0.52614
  Beta virt. eigenvalues --    0.53511   0.53526   0.53692   0.54170   0.54731
  Beta virt. eigenvalues --    0.54877   0.55294   0.55790   0.56351   0.56592
  Beta virt. eigenvalues --    0.56961   0.57369   0.57542   0.57675   0.57990
  Beta virt. eigenvalues --    0.58915   0.59354   0.59884   0.59999   0.60814
  Beta virt. eigenvalues --    0.61526   0.61860   0.62130   0.62366   0.63011
  Beta virt. eigenvalues --    0.63525   0.63844   0.64140   0.64949   0.65194
  Beta virt. eigenvalues --    0.66070   0.66221   0.66517   0.67082   0.67476
  Beta virt. eigenvalues --    0.68272   0.68404   0.68554   0.68767   0.69307
  Beta virt. eigenvalues --    0.69572   0.69757   0.70431   0.71107   0.71515
  Beta virt. eigenvalues --    0.72135   0.72418   0.72869   0.73299   0.74095
  Beta virt. eigenvalues --    0.74749   0.74925   0.76172   0.76387   0.77124
  Beta virt. eigenvalues --    0.77885   0.78100   0.78315   0.78907   0.79137
  Beta virt. eigenvalues --    0.79461   0.79767   0.80470   0.80675   0.81001
  Beta virt. eigenvalues --    0.81371   0.81696   0.82423   0.82697   0.82907
  Beta virt. eigenvalues --    0.83058   0.83404   0.83779   0.84015   0.84190
  Beta virt. eigenvalues --    0.84599   0.85031   0.85251   0.85700   0.85995
  Beta virt. eigenvalues --    0.86286   0.86803   0.87054   0.87594   0.88284
  Beta virt. eigenvalues --    0.88789   0.88911   0.89470   0.90047   0.90355
  Beta virt. eigenvalues --    0.90643   0.90854   0.91625   0.91960   0.92213
  Beta virt. eigenvalues --    0.92288   0.92887   0.93645   0.94626   0.95089
  Beta virt. eigenvalues --    0.95415   0.95930   0.96169   0.97243   0.97851
  Beta virt. eigenvalues --    0.98263   0.99160   1.00569   1.02079   1.03198
  Beta virt. eigenvalues --    1.03269   1.03940   1.04108   1.05215   1.06077
  Beta virt. eigenvalues --    1.06801   1.07068   1.07522   1.08039   1.08447
  Beta virt. eigenvalues --    1.08771   1.09328   1.09994   1.10397   1.10877
  Beta virt. eigenvalues --    1.11307   1.11808   1.12172   1.13093   1.13203
  Beta virt. eigenvalues --    1.14591   1.15505   1.16149   1.17120   1.17773
  Beta virt. eigenvalues --    1.19413   1.19488   1.20283   1.21250   1.21758
  Beta virt. eigenvalues --    1.22477   1.23696   1.23933   1.24416   1.25015
  Beta virt. eigenvalues --    1.25836   1.26359   1.26483   1.27477   1.28191
  Beta virt. eigenvalues --    1.28891   1.29163   1.29770   1.30056   1.30830
  Beta virt. eigenvalues --    1.31356   1.32117   1.32848   1.33096   1.34282
  Beta virt. eigenvalues --    1.35480   1.36093   1.38040   1.38308   1.39253
  Beta virt. eigenvalues --    1.40000   1.40535   1.41045   1.42135   1.43762
  Beta virt. eigenvalues --    1.44399   1.44897   1.45323   1.45797   1.46206
  Beta virt. eigenvalues --    1.47465   1.47723   1.49268   1.49862   1.51090
  Beta virt. eigenvalues --    1.51240   1.51694   1.52817   1.54392   1.55306
  Beta virt. eigenvalues --    1.55500   1.57106   1.58137   1.58962   1.60004
  Beta virt. eigenvalues --    1.60858   1.61533   1.63427   1.65102   1.66126
  Beta virt. eigenvalues --    1.67575   1.68056   1.68828   1.69221   1.69733
  Beta virt. eigenvalues --    1.70236   1.70979   1.71085   1.71541   1.71819
  Beta virt. eigenvalues --    1.72435   1.73027   1.73530   1.74548   1.74754
  Beta virt. eigenvalues --    1.75193   1.75496   1.76649   1.77169   1.77779
  Beta virt. eigenvalues --    1.78313   1.79046   1.79139   1.79997   1.80241
  Beta virt. eigenvalues --    1.81487   1.81757   1.82173   1.83059   1.83374
  Beta virt. eigenvalues --    1.84076   1.84391   1.85022   1.85997   1.88376
  Beta virt. eigenvalues --    1.88844   1.89763   1.89968   1.90233   1.90677
  Beta virt. eigenvalues --    1.90756   1.91410   1.92167   1.92997   1.94092
  Beta virt. eigenvalues --    1.94749   1.95462   1.95818   1.96425   1.97101
  Beta virt. eigenvalues --    1.97845   1.98309   1.98861   2.00411   2.00735
  Beta virt. eigenvalues --    2.01404   2.02572   2.03949   2.04046   2.04094
  Beta virt. eigenvalues --    2.05461   2.06016   2.07368   2.07960   2.08453
  Beta virt. eigenvalues --    2.08838   2.09143   2.10090   2.11007   2.11808
  Beta virt. eigenvalues --    2.13054   2.13376   2.14199   2.14450   2.15036
  Beta virt. eigenvalues --    2.15370   2.16195   2.16340   2.16997   2.17252
  Beta virt. eigenvalues --    2.18124   2.18727   2.19270   2.19807   2.20007
  Beta virt. eigenvalues --    2.20103   2.21170   2.21638   2.21744   2.22080
  Beta virt. eigenvalues --    2.22620   2.22996   2.24046   2.24663   2.25164
  Beta virt. eigenvalues --    2.26007   2.26525   2.27313   2.27736   2.28015
  Beta virt. eigenvalues --    2.29627   2.29718   2.30132   2.30901   2.31102
  Beta virt. eigenvalues --    2.32285   2.32416   2.32766   2.33507   2.34199
  Beta virt. eigenvalues --    2.34848   2.36458   2.36985   2.37754   2.38402
  Beta virt. eigenvalues --    2.40194   2.40695   2.42437   2.42812   2.43132
  Beta virt. eigenvalues --    2.43298   2.44408   2.45586   2.45853   2.46778
  Beta virt. eigenvalues --    2.47417   2.48699   2.49991   2.50553   2.50683
  Beta virt. eigenvalues --    2.52626   2.54448   2.54848   2.56759   2.57534
  Beta virt. eigenvalues --    2.58299   2.59904   2.61074   2.61965   2.63318
  Beta virt. eigenvalues --    2.64069   2.66142   2.67226   2.68281   2.69295
  Beta virt. eigenvalues --    2.70215   2.71364   2.73523   2.75551   2.76257
  Beta virt. eigenvalues --    2.77096   2.80128   2.80642   2.82191   2.83482
  Beta virt. eigenvalues --    2.84736   2.86244   2.86951   2.87762   2.88193
  Beta virt. eigenvalues --    2.88430   2.89099   2.93720   2.94987   2.95950
  Beta virt. eigenvalues --    3.01959   3.02696   3.04229   3.08015   3.12379
  Beta virt. eigenvalues --    3.13226   3.18103   3.19683   3.26262   3.26812
  Beta virt. eigenvalues --    3.29685   3.33332   3.35131   3.39044   3.49882
  Beta virt. eigenvalues --    3.55791   3.77890   3.94277   4.10234
          Condensed to atoms (all electrons):
          Atomic-Atomic Spin Densities.
 Mulliken charges and spin densities:
               1          2
     1  Fe   0.884994   1.292167
     2  N   -0.646268  -0.063635
     3  N   -0.692366  -0.062490
     4  N   -0.679768  -0.076747
     5  N   -0.658843  -0.066734
     6  C    0.293465   0.018534
     7  C    0.039792   0.004290
     8  C    0.042743  -0.002260
     9  C    0.327543   0.025980
    10  C    0.337782   0.024328
    11  C    0.054306   0.011745
    12  C   -0.005451   0.018684
    13  C    0.320373   0.022126
    14  C    0.312063   0.022744
    15  C    0.040381  -0.005801
    16  C    0.000539   0.003323
    17  C    0.331999   0.016716
    18  C    0.291767   0.016080
    19  C    0.044080   0.011526
    20  C    0.042905   0.008066
    21  C    0.308949   0.022957
    22  C   -0.292093  -0.056691
    23  H    0.196027   0.002670
    24  C   -0.289079  -0.061304
    25  H    0.196186   0.002881
    26  C   -0.310142  -0.052015
    27  H    0.193797   0.002399
    28  C   -0.270793  -0.044868
    29  H    0.201865   0.002277
    30  C   -0.613374  -0.000066
    31  H    0.204320  -0.000140
    32  H    0.208439   0.000053
    33  H    0.200437   0.000061
    34  C   -0.611562  -0.000642
    35  H    0.196011   0.000295
    36  H    0.208121   0.000323
    37  H    0.205457  -0.000134
    38  C   -0.616161  -0.001445
    39  H    0.195419   0.000503
    40  H    0.212326   0.001057
    41  H    0.213018  -0.000001
    42  C   -0.150416  -0.007064
    43  H    0.175016   0.000626
    44  C   -0.386158   0.011037
    45  H    0.192351  -0.000535
    46  H    0.195717  -0.000452
    47  C   -0.606173   0.000238
    48  H    0.196054  -0.000042
    49  H    0.213703  -0.000161
    50  H    0.205527  -0.000135
    51  C   -0.158100  -0.001956
    52  H    0.186630  -0.000069
    53  C   -0.392917   0.003104
    54  H    0.185704  -0.000245
    55  H    0.194991  -0.000159
    56  C   -0.614978  -0.001391
    57  H    0.206494   0.000783
    58  H    0.208454   0.000737
    59  H    0.204288  -0.000096
    60  C   -0.610893  -0.000999
    61  H    0.196520   0.000647
    62  H    0.205752  -0.000132
    63  H    0.210518   0.000613
    64  C   -0.602479  -0.000265
    65  H    0.222983  -0.000042
    66  H    0.216020   0.000046
    67  H    0.217632  -0.000170
    68  N   -0.629705   0.000457
    69  H    0.390369   0.000090
    70  C    0.284141  -0.001603
    71  C    0.267514   0.008567
    72  H    0.235585   0.000071
    73  N   -0.456083  -0.049138
    74  C   -0.038491   0.000293
    75  H    0.215226   0.000528
 Sum of Mulliken charges =   1.00000   1.00000
 Mulliken charges and spin densities with hydrogens summed into heavy atoms:
               1          2
     1  Fe   0.884994   1.292167
     2  N   -0.646268  -0.063635
     3  N   -0.692366  -0.062490
     4  N   -0.679768  -0.076747
     5  N   -0.658843  -0.066734
     6  C    0.293465   0.018534
     7  C    0.039792   0.004290
     8  C    0.042743  -0.002260
     9  C    0.327543   0.025980
    10  C    0.337782   0.024328
    11  C    0.054306   0.011745
    12  C   -0.005451   0.018684
    13  C    0.320373   0.022126
    14  C    0.312063   0.022744
    15  C    0.040381  -0.005801
    16  C    0.000539   0.003323
    17  C    0.331999   0.016716
    18  C    0.291767   0.016080
    19  C    0.044080   0.011526
    20  C    0.042905   0.008066
    21  C    0.308949   0.022957
    22  C   -0.096066  -0.054021
    24  C   -0.092893  -0.058423
    26  C   -0.116345  -0.049616
    28  C   -0.068928  -0.042591
    30  C   -0.000179  -0.000091
    34  C   -0.001973  -0.000158
    38  C    0.004602   0.000114
    42  C    0.024600  -0.006437
    44  C    0.001909   0.010049
    47  C    0.009111  -0.000100
    51  C    0.028530  -0.002025
    53  C   -0.012221   0.002700
    56  C    0.004258   0.000033
    60  C    0.001897   0.000130
    64  C    0.054155  -0.000431
    68  N   -0.239335   0.000548
    70  C    0.284141  -0.001603
    71  C    0.503099   0.008638
    73  N   -0.456083  -0.049138
    74  C    0.176735   0.000820
 Electronic spatial extent (au):  <R**2>=          19516.5913
 Charge=              1.0000 electrons
 Dipole moment (field-independent basis, Debye):
    X=             -0.5113    Y=              1.6422    Z=              6.2162  Tot=              6.4497
 Quadrupole moment (field-independent basis, Debye-Ang):
   XX=           -172.7057   YY=           -176.4918   ZZ=           -203.6319
   XY=             -4.5352   XZ=             -2.7717   YZ=              2.5358
 Traceless Quadrupole moment (field-independent basis, Debye-Ang):
   XX=             11.5707   YY=              7.7847   ZZ=            -19.3554
   XY=             -4.5352   XZ=             -2.7717   YZ=              2.5358
 Octapole moment (field-independent basis, Debye-Ang**2):
  XXX=              5.3060  YYY=             18.8351  ZZZ=            211.8283  XYY=            -13.2477
  XXY=             -8.7564  XXZ=            -62.2482  XZZ=             -4.7624  YZZ=             28.6412
  YYZ=            -10.2458  XYZ=            -27.1426
 Hexadecapole moment (field-independent basis, Debye-Ang**3):
 XXXX=          -9937.6463 YYYY=          -9526.0653 ZZZZ=          -2377.1791 XXXY=           -137.9150
 XXXZ=           -140.7547 YYYX=            102.8858 YYYZ=            -69.4582 ZZZX=            -18.3074
 ZZZY=             84.4954 XXYY=          -3294.1871 XXZZ=          -2444.5828 YYZZ=          -2405.1108
 XXYZ=             49.1458 YYXZ=             37.2605 ZZXY=            -38.5771
 N-N= 5.583831402950D+03 E-N=-1.796146390031D+04  KE= 2.895883561373D+03
                          Isotropic Fermi Contact Couplings
        Atom                 a.u.       MegaHertz       Gauss      10(-4) cm-1
     1  Fe(57)             0.18404      26.69251       9.52455       8.90366
     2  N(14)             -0.03665     -11.84175      -4.22543      -3.94998
     3  N(14)             -0.03342     -10.79756      -3.85284      -3.60168
     4  N(14)             -0.03299     -10.65769      -3.80293      -3.55502
     5  N(14)             -0.02633      -8.50578      -3.03508      -2.83722
     6  C(13)              0.00242       2.72133       0.97104       0.90774
     7  C(13)             -0.00030      -0.34123      -0.12176      -0.11382
     8  C(13)             -0.00129      -1.44494      -0.51559      -0.48198
     9  C(13)              0.00384       4.31190       1.53859       1.43829
    10  C(13)              0.00281       3.16052       1.12775       1.05424
    11  C(13)              0.00075       0.84748       0.30240       0.28269
    12  C(13)              0.00201       2.25902       0.80608       0.75353
    13  C(13)              0.00452       5.08341       1.81389       1.69564
    14  C(13)              0.00422       4.74212       1.69211       1.58180
    15  C(13)             -0.00142      -1.59416      -0.56884      -0.53176
    16  C(13)             -0.00049      -0.55163      -0.19684      -0.18401
    17  C(13)              0.00246       2.76612       0.98702       0.92268
    18  C(13)              0.00371       4.17198       1.48867       1.39162
    19  C(13)              0.00095       1.07342       0.38302       0.35805
    20  C(13)              0.00018       0.19871       0.07090       0.06628
    21  C(13)              0.00333       3.74668       1.33691       1.24976
    22  C(13)             -0.00736      -8.27498      -2.95272      -2.76024
    23  H(1)               0.00090       4.03392       1.43940       1.34557
    24  C(13)             -0.00830      -9.33071      -3.32943      -3.11239
    25  H(1)               0.00099       4.40674       1.57244       1.46993
    26  C(13)             -0.00808      -9.08707      -3.24249      -3.03112
    27  H(1)               0.00078       3.48531       1.24365       1.16257
    28  C(13)             -0.00561      -6.30852      -2.25104      -2.10430
    29  H(1)               0.00073       3.26265       1.16419       1.08830
    30  C(13)             -0.00008      -0.09139      -0.03261      -0.03048
    31  H(1)              -0.00006      -0.25943      -0.09257      -0.08654
    32  H(1)               0.00007       0.33231       0.11858       0.11085
    33  H(1)               0.00007       0.30129       0.10751       0.10050
    34  C(13)             -0.00028      -0.31029      -0.11072      -0.10350
    35  H(1)               0.00017       0.75430       0.26915       0.25161
    36  H(1)               0.00019       0.85814       0.30620       0.28624
    37  H(1)              -0.00006      -0.24859      -0.08870      -0.08292
    38  C(13)             -0.00052      -0.58427      -0.20848      -0.19489
    39  H(1)               0.00024       1.06175       0.37886       0.35416
    40  H(1)               0.00053       2.35934       0.84187       0.78699
    41  H(1)               0.00000       0.00610       0.00218       0.00204
    42  C(13)             -0.00133      -1.49850      -0.53470      -0.49985
    43  H(1)               0.00023       1.04148       0.37163       0.34740
    44  C(13)              0.00181       2.03177       0.72499       0.67772
    45  H(1)              -0.00016      -0.72234      -0.25775      -0.24095
    46  H(1)              -0.00014      -0.63078      -0.22508      -0.21040
    47  C(13)              0.00010       0.11221       0.04004       0.03743
    48  H(1)              -0.00007      -0.29557      -0.10547      -0.09859
    49  H(1)              -0.00014      -0.62376      -0.22257      -0.20806
    50  H(1)              -0.00006      -0.26020      -0.09285      -0.08679
    51  C(13)             -0.00043      -0.48342      -0.17250      -0.16125
    52  H(1)              -0.00003      -0.13613      -0.04857      -0.04541
    53  C(13)              0.00037       0.41967       0.14975       0.13999
    54  H(1)              -0.00005      -0.21482      -0.07665      -0.07166
    55  H(1)              -0.00005      -0.21168      -0.07553      -0.07061
    56  C(13)             -0.00048      -0.53831      -0.19208      -0.17956
    57  H(1)               0.00032       1.43930       0.51358       0.48010
    58  H(1)               0.00031       1.40050       0.49973       0.46716
    59  H(1)              -0.00005      -0.21141      -0.07544      -0.07052
    60  C(13)             -0.00040      -0.44814      -0.15991      -0.14948
    61  H(1)               0.00032       1.40865       0.50264       0.46987
    62  H(1)              -0.00006      -0.25923      -0.09250      -0.08647
    63  H(1)               0.00028       1.23233       0.43973       0.41106
    64  C(13)             -0.00009      -0.10309      -0.03679      -0.03439
    65  H(1)              -0.00003      -0.13026      -0.04648      -0.04345
    66  H(1)               0.00003       0.14861       0.05303       0.04957
    67  H(1)              -0.00008      -0.33878      -0.12089      -0.11300
    68  N(14)             -0.00052      -0.16761      -0.05981      -0.05591
    69  H(1)              -0.00001      -0.04363      -0.01557      -0.01455
    70  C(13)             -0.00170      -1.90872      -0.68108      -0.63668
    71  C(13)              0.00059       0.66223       0.23630       0.22090
    72  H(1)              -0.00015      -0.68516      -0.24448      -0.22855
    73  N(14)             -0.05135     -16.59032      -5.91984      -5.53394
    74  C(13)             -0.00155      -1.73937      -0.62065      -0.58019
    75  H(1)              -0.00008      -0.34083      -0.12162      -0.11369
 --------------------------------------------------------
       Center         ----  Spin Dipole Couplings  ----
                      3XX-RR        3YY-RR        3ZZ-RR
 --------------------------------------------------------
     1   Atom        1.296659     -2.643402      1.346743
     2   Atom        0.039522      0.021371     -0.060894
     3   Atom        0.054942      0.026326     -0.081268
     4   Atom        0.058814      0.051430     -0.110244
     5   Atom        0.037995      0.036928     -0.074923
     6   Atom       -0.013753      0.002198      0.011555
     7   Atom       -0.004978     -0.001270      0.006248
     8   Atom       -0.001292      0.001179      0.000114
     9   Atom       -0.016758     -0.001665      0.018423
    10   Atom       -0.000968     -0.017589      0.018557
    11   Atom       -0.006233     -0.010045      0.016278
    12   Atom       -0.009160     -0.012489      0.021649
    13   Atom       -0.001554     -0.011884      0.013438
    14   Atom       -0.016230      0.003691      0.012538
    15   Atom        0.000015      0.004295     -0.004310
    16   Atom       -0.003101     -0.001414      0.004515
    17   Atom       -0.010717      0.001973      0.008744
    18   Atom        0.004707     -0.013126      0.008420
    19   Atom       -0.005644     -0.009329      0.014973
    20   Atom       -0.005168     -0.006512      0.011680
    21   Atom       -0.002104     -0.014265      0.016369
    22   Atom        0.026157      0.029185     -0.055343
    23   Atom        0.000649      0.000864     -0.001513
    24   Atom        0.030431      0.029483     -0.059914
    25   Atom        0.000479      0.001206     -0.001685
    26   Atom        0.023754      0.020382     -0.044136
    27   Atom        0.000745      0.000865     -0.001610
    28   Atom        0.023518      0.020977     -0.044495
    29   Atom        0.000792      0.000839     -0.001632
    30   Atom       -0.000397      0.000853     -0.000456
    31   Atom       -0.000432      0.000927     -0.000494
    32   Atom       -0.000109      0.000656     -0.000547
    33   Atom       -0.000070      0.000666     -0.000596
    34   Atom       -0.000650      0.001038     -0.000388
    35   Atom       -0.000392      0.000972     -0.000580
    36   Atom       -0.000376      0.000912     -0.000537
    37   Atom       -0.000600      0.001089     -0.000489
    38   Atom        0.001069     -0.000609     -0.000460
    39   Atom        0.000862     -0.000070     -0.000792
    40   Atom        0.001020     -0.000450     -0.000570
    41   Atom        0.001462     -0.000678     -0.000784
    42   Atom        0.002296      0.000981     -0.003277
    43   Atom        0.000676      0.000208     -0.000884
    44   Atom        0.001005     -0.003250      0.002245
    45   Atom        0.000628     -0.000139     -0.000488
    46   Atom        0.000562      0.000132     -0.000694
    47   Atom       -0.000521      0.001499     -0.000978
    48   Atom       -0.000505      0.001118     -0.000613
    49   Atom       -0.000516      0.001134     -0.000618
    50   Atom       -0.000559      0.001053     -0.000493
    51   Atom       -0.000382      0.001291     -0.000909
    52   Atom       -0.000364      0.000888     -0.000524
    53   Atom        0.000658     -0.000011     -0.000647
    54   Atom        0.000063      0.000392     -0.000454
    55   Atom       -0.000009      0.000472     -0.000463
    56   Atom        0.001266     -0.000527     -0.000739
    57   Atom        0.001046     -0.000325     -0.000722
    58   Atom        0.000976     -0.000368     -0.000608
    59   Atom        0.001340     -0.000713     -0.000627
    60   Atom        0.000649     -0.000162     -0.000487
    61   Atom        0.000497      0.000159     -0.000656
    62   Atom        0.001054     -0.000444     -0.000610
    63   Atom        0.000529      0.000070     -0.000599
    64   Atom       -0.000466     -0.000437      0.000903
    65   Atom       -0.000551     -0.000608      0.001159
    66   Atom       -0.000610     -0.000538      0.001148
    67   Atom       -0.000470     -0.000682      0.001151
    68   Atom        0.000535     -0.000247     -0.000288
    69   Atom       -0.001076     -0.001016      0.002093
    70   Atom        0.000307     -0.001908      0.001601
    71   Atom       -0.003620     -0.001268      0.004888
    72   Atom       -0.001828     -0.000797      0.002625
    73   Atom        0.020156      0.014217     -0.034373
    74   Atom       -0.005623     -0.001918      0.007541
    75   Atom       -0.002173     -0.002184      0.004357
 --------------------------------------------------------
                        XY            XZ            YZ
 --------------------------------------------------------
     1   Atom       -0.222795     -0.179462     -1.328779
     2   Atom       -0.002322     -0.001793      0.022889
     3   Atom       -0.005720      0.050815     -0.013556
     4   Atom        0.005139      0.010730     -0.043710
     5   Atom       -0.005537     -0.068626     -0.005586
     6   Atom       -0.001013     -0.000481      0.000239
     7   Atom       -0.001441      0.000778      0.001432
     8   Atom        0.001901      0.000138      0.001271
     9   Atom        0.004755      0.000571     -0.001332
    10   Atom        0.001860      0.006979      0.003291
    11   Atom        0.001811      0.000277     -0.000015
    12   Atom       -0.001857     -0.000656      0.002067
    13   Atom       -0.007367      0.000074      0.009047
    14   Atom       -0.002021     -0.000373     -0.000937
    15   Atom       -0.000966      0.000251      0.001103
    16   Atom        0.001530     -0.001344      0.002537
    17   Atom        0.004725     -0.001755      0.001162
    18   Atom        0.002881      0.004068      0.002280
    19   Atom        0.001286      0.003555     -0.001355
    20   Atom       -0.002074      0.000324      0.000192
    21   Atom       -0.005056     -0.000138     -0.000028
    22   Atom       -0.005289      0.003200      0.004128
    23   Atom        0.001156      0.000161      0.000078
    24   Atom        0.005631     -0.004186      0.002746
    25   Atom       -0.001144     -0.000048      0.000216
    26   Atom       -0.008093     -0.005063     -0.022569
    27   Atom        0.000345     -0.000529     -0.000594
    28   Atom        0.005776      0.001869      0.004154
    29   Atom       -0.000242     -0.000107      0.000059
    30   Atom        0.000817     -0.000009     -0.000049
    31   Atom        0.000479     -0.000012     -0.000053
    32   Atom        0.000883     -0.000205     -0.000256
    33   Atom        0.000911      0.000108      0.000097
    34   Atom       -0.000506      0.000023     -0.000070
    35   Atom       -0.000699     -0.000120      0.000155
    36   Atom       -0.000690      0.000136     -0.000235
    37   Atom       -0.000168     -0.000002     -0.000034
    38   Atom        0.000832     -0.000336     -0.000130
    39   Atom        0.001081      0.000083      0.000124
    40   Atom        0.000788     -0.000497     -0.000296
    41   Atom        0.000394      0.000023      0.000102
    42   Atom       -0.002838     -0.003306     -0.002001
    43   Atom       -0.001294      0.000009     -0.000079
    44   Atom        0.002796      0.006470      0.004437
    45   Atom        0.000068     -0.000439     -0.000255
    46   Atom       -0.001014      0.000138      0.000254
    47   Atom       -0.000519      0.000021      0.000153
    48   Atom       -0.000632      0.000062     -0.000306
    49   Atom       -0.000554     -0.000012      0.000132
    50   Atom       -0.000137     -0.000011     -0.000065
    51   Atom        0.001156      0.001074     -0.000327
    52   Atom        0.000551     -0.000012     -0.000032
    53   Atom       -0.000676     -0.001669      0.001431
    54   Atom        0.000849      0.000268      0.000175
    55   Atom        0.000617      0.000012      0.000191
    56   Atom        0.000787      0.000582      0.000204
    57   Atom        0.000886     -0.000234     -0.000154
    58   Atom        0.000771      0.000313      0.000212
    59   Atom        0.000302      0.000049      0.000035
    60   Atom       -0.001050      0.000226     -0.000092
    61   Atom       -0.001053     -0.000132      0.000197
    62   Atom       -0.000726      0.000074     -0.000038
    63   Atom       -0.001015      0.000263     -0.000312
    64   Atom       -0.000029      0.000213     -0.000447
    65   Atom       -0.000139      0.000581     -0.000580
    66   Atom       -0.000057      0.000102     -0.000346
    67   Atom       -0.000056      0.000458     -0.000013
    68   Atom        0.003195     -0.001882      0.000082
    69   Atom       -0.000029     -0.000612      0.000839
    70   Atom       -0.000011     -0.000342     -0.002667
    71   Atom        0.005805     -0.002262      0.005920
    72   Atom       -0.003035     -0.004170      0.005484
    73   Atom       -0.005939      0.003631      0.010187
    74   Atom        0.000464     -0.000166     -0.005046
    75   Atom       -0.002414      0.005455     -0.005622
 --------------------------------------------------------


 ---------------------------------------------------------------------------------
              Anisotropic Spin Dipole Couplings in Principal Axis System
 ---------------------------------------------------------------------------------

       Atom             a.u.   MegaHertz   Gauss  10(-4) cm-1        Axes

              Baa    -3.0616   -53.004   -18.913   -17.680  0.0608  0.9550  0.2903
     1 Fe(57) Bbb     1.2879    22.298     7.956     7.438  0.9722 -0.1225  0.1994
              Bcc     1.7736    30.707    10.957    10.243 -0.2260 -0.2702  0.9359
 
              Baa    -0.0668    -2.578    -0.920    -0.860  0.0108 -0.2509  0.9680
     2 N(14)  Bbb     0.0267     1.031     0.368     0.344  0.2063  0.9477  0.2433
              Bcc     0.0401     1.547     0.552     0.516  0.9784 -0.1971 -0.0620
 
              Baa    -0.0991    -3.823    -1.364    -1.275 -0.3091  0.0882  0.9469
     3 N(14)  Bbb     0.0253     0.976     0.348     0.325  0.2205  0.9752 -0.0189
              Bcc     0.0738     2.847     1.016     0.950  0.9251 -0.2030  0.3209
 
              Baa    -0.1221    -4.707    -1.680    -1.570 -0.0644  0.2456  0.9672
     4 N(14)  Bbb     0.0583     2.247     0.802     0.750  0.8726 -0.4565  0.1740
              Bcc     0.0638     2.460     0.878     0.821  0.4842  0.8552 -0.1849
 
              Baa    -0.1077    -4.154    -1.482    -1.386  0.4271  0.0512  0.9027
     5 N(14)  Bbb     0.0371     1.431     0.511     0.477  0.0490  0.9956 -0.0797
              Bcc     0.0706     2.723     0.972     0.908  0.9029 -0.0783 -0.4227
 
              Baa    -0.0138    -1.855    -0.662    -0.619  0.9979  0.0628  0.0183
     6 C(13)  Bbb     0.0023     0.303     0.108     0.101 -0.0623  0.9976 -0.0288
              Bcc     0.0116     1.553     0.554     0.518 -0.0201  0.0276  0.9994
 
              Baa    -0.0056    -0.751    -0.268    -0.251  0.9330  0.3449 -0.1030
     7 C(13)  Bbb    -0.0009    -0.126    -0.045    -0.042 -0.3571  0.9227 -0.1452
              Bcc     0.0065     0.877     0.313     0.292  0.0450  0.1722  0.9840
 
              Baa    -0.0024    -0.326    -0.116    -0.109  0.8322 -0.5128  0.2110
     8 C(13)  Bbb    -0.0003    -0.043    -0.015    -0.014 -0.3854 -0.2612  0.8850
              Bcc     0.0028     0.369     0.132     0.123  0.3987  0.8178  0.4150
 
              Baa    -0.0182    -2.436    -0.869    -0.813  0.9600 -0.2789 -0.0251
     9 C(13)  Bbb    -0.0004    -0.048    -0.017    -0.016  0.2799  0.9582  0.0595
              Bcc     0.0185     2.484     0.886     0.829  0.0075 -0.0641  0.9979
 
              Baa    -0.0180    -2.413    -0.861    -0.805 -0.0781  0.9942 -0.0746
    10 C(13)  Bbb    -0.0032    -0.425    -0.152    -0.142  0.9486  0.0510 -0.3125
              Bcc     0.0211     2.838     1.013     0.947  0.3068  0.0952  0.9470
 
              Baa    -0.0108    -1.445    -0.516    -0.482 -0.3711  0.9286  0.0043
    11 C(13)  Bbb    -0.0055    -0.740    -0.264    -0.247  0.9285  0.3711 -0.0116
              Bcc     0.0163     2.185     0.780     0.729  0.0123  0.0003  0.9999
 
              Baa    -0.0134    -1.797    -0.641    -0.600  0.3951  0.9174 -0.0467
    12 C(13)  Bbb    -0.0084    -1.127    -0.402    -0.376  0.9183 -0.3931  0.0471
              Bcc     0.0218     2.924     1.043     0.975 -0.0248  0.0615  0.9978
 
              Baa    -0.0179    -2.395    -0.855    -0.799  0.3992  0.8805 -0.2556
    13 C(13)  Bbb     0.0012     0.165     0.059     0.055  0.9076 -0.3400  0.2464
              Bcc     0.0166     2.231     0.796     0.744 -0.1300  0.3303  0.9349
 
              Baa    -0.0164    -2.206    -0.787    -0.736  0.9948  0.1006  0.0161
    14 C(13)  Bbb     0.0038     0.510     0.182     0.170 -0.1018  0.9896  0.1018
              Bcc     0.0126     1.696     0.605     0.566 -0.0056 -0.1029  0.9947
 
              Baa    -0.0045    -0.601    -0.215    -0.201 -0.0838 -0.1333  0.9875
    15 C(13)  Bbb    -0.0001    -0.019    -0.007    -0.006  0.9766  0.1859  0.1080
              Bcc     0.0046     0.620     0.221     0.207 -0.1980  0.9735  0.1146
 
              Baa    -0.0047    -0.630    -0.225    -0.210  0.7755 -0.5706  0.2703
    16 C(13)  Bbb    -0.0008    -0.110    -0.039    -0.037  0.6250  0.7543 -0.2011
              Bcc     0.0055     0.740     0.264     0.247 -0.0891  0.3249  0.9415
 
              Baa    -0.0125    -1.674    -0.597    -0.559  0.9439 -0.3163  0.0954
    17 C(13)  Bbb     0.0035     0.468     0.167     0.156  0.3252  0.9404 -0.0992
              Bcc     0.0090     1.207     0.431     0.403 -0.0583  0.1246  0.9905
 
              Baa    -0.0137    -1.839    -0.656    -0.613 -0.1376  0.9875 -0.0765
    18 C(13)  Bbb     0.0022     0.292     0.104     0.097  0.8236  0.0712 -0.5627
              Bcc     0.0115     1.547     0.552     0.516  0.5502  0.1404  0.8231
 
              Baa    -0.0100    -1.339    -0.478    -0.446 -0.3589  0.9278  0.1015
    19 C(13)  Bbb    -0.0056    -0.757    -0.270    -0.253  0.9192  0.3703 -0.1342
              Bcc     0.0156     2.096     0.748     0.699  0.1621 -0.0452  0.9857
 
              Baa    -0.0080    -1.077    -0.384    -0.359  0.5885  0.8083 -0.0176
    20 C(13)  Bbb    -0.0037    -0.491    -0.175    -0.164  0.8083 -0.5887 -0.0097
              Bcc     0.0117     1.568     0.560     0.523  0.0182  0.0085  0.9998
 
              Baa    -0.0161    -2.159    -0.771    -0.720  0.3400  0.9404  0.0023
    21 C(13)  Bbb    -0.0003    -0.037    -0.013    -0.012  0.9404 -0.3400  0.0072
              Bcc     0.0164     2.197     0.784     0.733 -0.0075  0.0003  1.0000
 
              Baa    -0.0557    -7.473    -2.667    -2.493 -0.0423 -0.0512  0.9978
    22 C(13)  Bbb     0.0225     3.019     1.077     1.007  0.8018  0.5941  0.0645
              Bcc     0.0332     4.454     1.589     1.486 -0.5961  0.8027  0.0159
 
              Baa    -0.0015    -0.814    -0.290    -0.271 -0.0760  0.0043  0.9971
    23 H(1)   Bbb    -0.0004    -0.214    -0.076    -0.071  0.7349 -0.6756  0.0589
              Bcc     0.0019     1.028     0.367     0.343  0.6739  0.7372  0.0482
 
              Baa    -0.0602    -8.079    -2.883    -2.695  0.0482 -0.0336  0.9983
    24 C(13)  Bbb     0.0246     3.299     1.177     1.100 -0.6710  0.7392  0.0573
              Bcc     0.0356     4.780     1.706     1.595  0.7399  0.6726 -0.0131
 
              Baa    -0.0017    -0.908    -0.324    -0.303 -0.0214 -0.0826  0.9964
    25 H(1)   Bbb    -0.0004    -0.188    -0.067    -0.063  0.8086  0.5847  0.0658
              Bcc     0.0021     1.096     0.391     0.365 -0.5880  0.8071  0.0543
 
              Baa    -0.0519    -6.971    -2.487    -2.325  0.0961  0.3063  0.9471
    26 C(13)  Bbb     0.0196     2.633     0.939     0.878  0.7832  0.5639 -0.2618
              Bcc     0.0323     4.338     1.548     1.447 -0.6143  0.7669 -0.1857
 
              Baa    -0.0018    -0.972    -0.347    -0.324  0.1734  0.1913  0.9661
    27 H(1)   Bbb     0.0005     0.243     0.087     0.081  0.7593 -0.6506 -0.0075
              Bcc     0.0014     0.730     0.260     0.243  0.6272  0.7349 -0.2580
 
              Baa    -0.0448    -6.010    -2.145    -2.005 -0.0221 -0.0611  0.9979
    28 C(13)  Bbb     0.0164     2.201     0.785     0.734 -0.6351  0.7717  0.0331
              Bcc     0.0284     3.809     1.359     1.271  0.7721  0.6330  0.0559
 
              Baa    -0.0016    -0.874    -0.312    -0.291  0.0422 -0.0197  0.9989
    29 H(1)   Bbb     0.0006     0.306     0.109     0.102  0.7376  0.6750 -0.0178
              Bcc     0.0011     0.568     0.203     0.189 -0.6740  0.7375  0.0430
 
              Baa    -0.0008    -0.107    -0.038    -0.036  0.8954 -0.4436 -0.0393
    30 C(13)  Bbb    -0.0005    -0.061    -0.022    -0.020  0.0477  0.0079  0.9988
              Bcc     0.0013     0.169     0.060     0.056  0.4428  0.8962 -0.0282
 
              Baa    -0.0006    -0.312    -0.111    -0.104  0.9510 -0.3035 -0.0586
    31 H(1)   Bbb    -0.0005    -0.265    -0.094    -0.088  0.0663  0.0152  0.9977
              Bcc     0.0011     0.576     0.206     0.192  0.3019  0.9527 -0.0346
 
              Baa    -0.0007    -0.373    -0.133    -0.124  0.8236 -0.4800  0.3021
    32 H(1)   Bbb    -0.0006    -0.318    -0.113    -0.106 -0.1644  0.3077  0.9372
              Bcc     0.0013     0.690     0.246     0.230  0.5428  0.8215 -0.1745
 
              Baa    -0.0007    -0.372    -0.133    -0.124  0.7879 -0.5008 -0.3583
    33 H(1)   Bbb    -0.0006    -0.317    -0.113    -0.106  0.2588 -0.2587  0.9306
              Bcc     0.0013     0.689     0.246     0.230  0.5587  0.8260  0.0742
 
              Baa    -0.0008    -0.106    -0.038    -0.035  0.9637  0.2667 -0.0086
    34 C(13)  Bbb    -0.0004    -0.052    -0.019    -0.018 -0.0041  0.0472  0.9989
              Bcc     0.0012     0.159     0.057     0.053 -0.2668  0.9626 -0.0466
 
              Baa    -0.0007    -0.378    -0.135    -0.126  0.8543  0.3173  0.4118
    35 H(1)   Bbb    -0.0006    -0.308    -0.110    -0.103 -0.3449 -0.2466  0.9057
              Bcc     0.0013     0.686     0.245     0.229 -0.3889  0.9157  0.1013
 
              Baa    -0.0007    -0.365    -0.130    -0.122  0.8971  0.3474 -0.2731
    36 H(1)   Bbb    -0.0006    -0.303    -0.108    -0.101  0.1956  0.2421  0.9503
              Bcc     0.0013     0.669     0.239     0.223 -0.3962  0.9059 -0.1492
 
              Baa    -0.0006    -0.329    -0.117    -0.110  0.9944  0.0986  0.0386
    37 H(1)   Bbb    -0.0005    -0.261    -0.093    -0.087 -0.0404  0.0171  0.9990
              Bcc     0.0011     0.590     0.211     0.197 -0.0978  0.9950 -0.0210
 
              Baa    -0.0010    -0.128    -0.046    -0.043 -0.3833  0.9234 -0.0186
    38 C(13)  Bbb    -0.0005    -0.071    -0.025    -0.024  0.1617  0.0870  0.9830
              Bcc     0.0015     0.198     0.071     0.066  0.9094  0.3738 -0.1827
 
              Baa    -0.0008    -0.453    -0.162    -0.151  0.3206 -0.5660  0.7595
    39 H(1)   Bbb    -0.0007    -0.390    -0.139    -0.130 -0.4503  0.6143  0.6479
              Bcc     0.0016     0.843     0.301     0.281  0.8333  0.5498  0.0579
 
              Baa    -0.0008    -0.447    -0.160    -0.149 -0.2107  0.8261  0.5227
    40 H(1)   Bbb    -0.0007    -0.364    -0.130    -0.121  0.4238 -0.4047  0.8103
              Bcc     0.0015     0.811     0.289     0.271  0.8809  0.3922 -0.2648
 
              Baa    -0.0009    -0.461    -0.165    -0.154  0.0993 -0.6311  0.7693
    41 H(1)   Bbb    -0.0007    -0.356    -0.127    -0.119 -0.1464  0.7554  0.6386
              Bcc     0.0015     0.818     0.292     0.273  0.9842  0.1761  0.0173
 
              Baa    -0.0061    -0.824    -0.294    -0.275  0.4481  0.4028  0.7981
    42 C(13)  Bbb     0.0013     0.173     0.062     0.058  0.3130  0.7656 -0.5621
              Bcc     0.0049     0.651     0.232     0.217  0.8374 -0.5017 -0.2170
 
              Baa    -0.0009    -0.498    -0.178    -0.166  0.4155  0.5224  0.7446
    43 H(1)   Bbb    -0.0008    -0.440    -0.157    -0.147 -0.4888 -0.5621  0.6671
              Bcc     0.0018     0.938     0.335     0.313  0.7671 -0.6412  0.0218
 
              Baa    -0.0059    -0.796    -0.284    -0.266  0.2855  0.7295 -0.6215
    44 C(13)  Bbb    -0.0042    -0.562    -0.201    -0.188  0.7387 -0.5807 -0.3423
              Bcc     0.0101     1.359     0.485     0.453  0.6106  0.3614  0.7047
 
              Baa    -0.0007    -0.386    -0.138    -0.129  0.2722  0.3573  0.8934
    45 H(1)   Bbb    -0.0001    -0.043    -0.015    -0.014 -0.2670  0.9201 -0.2866
              Bcc     0.0008     0.429     0.153     0.143  0.9245  0.1605 -0.3458
 
              Baa    -0.0010    -0.521    -0.186    -0.174 -0.4308 -0.5567  0.7103
    46 H(1)   Bbb    -0.0004    -0.218    -0.078    -0.073  0.4632  0.5391  0.7034
              Bcc     0.0014     0.739     0.264     0.246  0.7745 -0.6321 -0.0256
 
              Baa    -0.0010    -0.133    -0.048    -0.045 -0.1422 -0.0900  0.9857
    47 C(13)  Bbb    -0.0006    -0.086    -0.031    -0.029  0.9619  0.2223  0.1590
              Bcc     0.0016     0.219     0.078     0.073 -0.2335  0.9708  0.0550
 
              Baa    -0.0007    -0.396    -0.141    -0.132  0.8263  0.3531  0.4388
    48 H(1)   Bbb    -0.0006    -0.342    -0.122    -0.114 -0.4647 -0.0127  0.8854
              Bcc     0.0014     0.738     0.263     0.246 -0.3182  0.9355 -0.1535
 
              Baa    -0.0007    -0.371    -0.132    -0.124  0.8849  0.2940 -0.3613
    49 H(1)   Bbb    -0.0006    -0.329    -0.117    -0.110  0.3648  0.0451  0.9300
              Bcc     0.0013     0.700     0.250     0.233 -0.2897  0.9548  0.0674
 
              Baa    -0.0006    -0.306    -0.109    -0.102  0.9740  0.0905  0.2076
    50 H(1)   Bbb    -0.0005    -0.263    -0.094    -0.088 -0.2104  0.0225  0.9773
              Bcc     0.0011     0.569     0.203     0.190 -0.0838  0.9956 -0.0409
 
              Baa    -0.0021    -0.275    -0.098    -0.092 -0.6528  0.2940  0.6981
    51 C(13)  Bbb     0.0002     0.021     0.007     0.007  0.5849 -0.3901  0.7112
              Bcc     0.0019     0.255     0.091     0.085  0.4814  0.8726  0.0827
 
              Baa    -0.0006    -0.305    -0.109    -0.102  0.9355 -0.3533 -0.0047
    52 H(1)   Bbb    -0.0005    -0.280    -0.100    -0.093  0.0119  0.0182  0.9998
              Bcc     0.0011     0.585     0.209     0.195  0.3531  0.9353 -0.0212
 
              Baa    -0.0022    -0.291    -0.104    -0.097  0.3833 -0.4243  0.8204
    53 C(13)  Bbb    -0.0004    -0.053    -0.019    -0.018  0.6395  0.7628  0.0957
              Bcc     0.0026     0.344     0.123     0.115  0.6664 -0.4880 -0.5637
 
              Baa    -0.0007    -0.367    -0.131    -0.122  0.7315 -0.5005 -0.4631
    54 H(1)   Bbb    -0.0005    -0.247    -0.088    -0.082  0.2541 -0.4302  0.8662
              Bcc     0.0012     0.614     0.219     0.205  0.6328  0.7513  0.1875
 
              Baa    -0.0006    -0.297    -0.106    -0.099  0.4508 -0.4167  0.7894
    55 H(1)   Bbb    -0.0004    -0.190    -0.068    -0.063  0.7008 -0.3825 -0.6021
              Bcc     0.0009     0.487     0.174     0.163  0.5529  0.8246  0.1196
 
              Baa    -0.0009    -0.120    -0.043    -0.040 -0.2879  0.0859  0.9538
    56 C(13)  Bbb    -0.0008    -0.110    -0.039    -0.037 -0.3040  0.9363 -0.1761
              Bcc     0.0017     0.230     0.082     0.077  0.9081  0.3406  0.2435
 
              Baa    -0.0008    -0.423    -0.151    -0.141 -0.2438  0.6868  0.6848
    57 H(1)   Bbb    -0.0007    -0.386    -0.138    -0.129  0.3850 -0.5795  0.7183
              Bcc     0.0015     0.809     0.288     0.270  0.8901  0.4387 -0.1232
 
              Baa    -0.0008    -0.407    -0.145    -0.136 -0.2437  0.7824 -0.5731
    58 H(1)   Bbb    -0.0006    -0.338    -0.120    -0.113 -0.3794  0.4669  0.7988
              Bcc     0.0014     0.745     0.266     0.248  0.8926  0.4121  0.1831
 
              Baa    -0.0008    -0.407    -0.145    -0.136 -0.1344  0.9695 -0.2051
    59 H(1)   Bbb    -0.0006    -0.332    -0.119    -0.111 -0.0552  0.1994  0.9784
              Bcc     0.0014     0.739     0.264     0.246  0.9894  0.1428  0.0268
 
              Baa    -0.0009    -0.119    -0.043    -0.040  0.5721  0.8085 -0.1375
    60 C(13)  Bbb    -0.0005    -0.068    -0.024    -0.023 -0.0245  0.1845  0.9825
              Bcc     0.0014     0.188     0.067     0.063  0.8198 -0.5588  0.1254
 
              Baa    -0.0008    -0.416    -0.149    -0.139  0.5013  0.6757 -0.5405
    61 H(1)   Bbb    -0.0006    -0.341    -0.122    -0.114  0.4238  0.3529  0.8342
              Bcc     0.0014     0.758     0.270     0.253  0.7544 -0.6472 -0.1094
 
              Baa    -0.0007    -0.394    -0.141    -0.131  0.3725  0.9262  0.0577
    62 H(1)   Bbb    -0.0006    -0.327    -0.117    -0.109 -0.0609 -0.0376  0.9974
              Bcc     0.0014     0.721     0.257     0.241  0.9260 -0.3751  0.0424
 
              Baa    -0.0008    -0.424    -0.151    -0.141  0.4363  0.7115  0.5507
    63 H(1)   Bbb    -0.0006    -0.334    -0.119    -0.111 -0.4789 -0.3346  0.8116
              Bcc     0.0014     0.758     0.270     0.253  0.7618 -0.6179  0.1948
 
              Baa    -0.0006    -0.079    -0.028    -0.026 -0.3524  0.8811  0.3153
    64 C(13)  Bbb    -0.0005    -0.065    -0.023    -0.022  0.9258  0.3776 -0.0205
              Bcc     0.0011     0.143     0.051     0.048  0.1371 -0.2847  0.9488
 
              Baa    -0.0008    -0.425    -0.152    -0.142 -0.3902  0.8445  0.3668
    65 H(1)   Bbb    -0.0007    -0.379    -0.135    -0.126  0.8775  0.4618 -0.1296
              Bcc     0.0015     0.804     0.287     0.268  0.2788 -0.2713  0.9212
 
              Baa    -0.0006    -0.346    -0.123    -0.115  0.7554  0.6501  0.0823
    66 H(1)   Bbb    -0.0006    -0.307    -0.109    -0.102 -0.6525  0.7346  0.1861
              Bcc     0.0012     0.653     0.233     0.218  0.0605 -0.1943  0.9791
 
              Baa    -0.0007    -0.376    -0.134    -0.125  0.3982  0.9127 -0.0921
    67 H(1)   Bbb    -0.0006    -0.303    -0.108    -0.101  0.8812 -0.4085 -0.2381
              Bcc     0.0013     0.679     0.242     0.226  0.2549 -0.0136  0.9669
 
              Baa    -0.0036    -0.140    -0.050    -0.047  0.6648 -0.6371  0.3899
    68 N(14)  Bbb    -0.0002    -0.008    -0.003    -0.003 -0.0155  0.5101  0.8600
              Bcc     0.0038     0.148     0.053     0.049  0.7468  0.5778 -0.3293
 
              Baa    -0.0013    -0.708    -0.253    -0.236 -0.6252  0.7247 -0.2898
    69 H(1)   Bbb    -0.0011    -0.577    -0.206    -0.193  0.7617  0.6474 -0.0242
              Bcc     0.0024     1.285     0.459     0.429 -0.1701  0.2359  0.9568
 
              Baa    -0.0034    -0.450    -0.161    -0.150  0.0471  0.8782  0.4759
    70 C(13)  Bbb     0.0003     0.038     0.014     0.013  0.9932 -0.0919  0.0714
              Bcc     0.0031     0.412     0.147     0.137 -0.1064 -0.4694  0.8766
 
              Baa    -0.0104    -1.400    -0.500    -0.467  0.6719 -0.6522  0.3511
    71 C(13)  Bbb     0.0018     0.246     0.088     0.082  0.7319  0.5119 -0.4497
              Bcc     0.0086     1.155     0.412     0.385  0.1136  0.5592  0.8213
 
              Baa    -0.0048    -2.578    -0.920    -0.860 -0.0377  0.7949 -0.6056
    72 H(1)   Bbb    -0.0043    -2.274    -0.811    -0.759  0.9035  0.2860  0.3193
              Bcc     0.0091     4.852     1.731     1.618 -0.4270  0.5351  0.7289
 
              Baa    -0.0368    -1.420    -0.507    -0.474 -0.0835 -0.2044  0.9753
    73 N(14)  Bbb     0.0129     0.497     0.177     0.166  0.5509  0.8061  0.2161
              Bcc     0.0239     0.923     0.329     0.308  0.8304 -0.5553 -0.0453
 
              Baa    -0.0057    -0.766    -0.273    -0.256  0.9756 -0.2092 -0.0674
    74 C(13)  Bbb    -0.0040    -0.540    -0.193    -0.180  0.2187  0.8932  0.3928
              Bcc     0.0097     1.306     0.466     0.436 -0.0219 -0.3980  0.9171
 
              Baa    -0.0058    -3.099    -1.106    -1.034 -0.5142  0.6033  0.6096
    75 H(1)   Bbb    -0.0046    -2.448    -0.874    -0.817  0.7435  0.6678 -0.0337
              Bcc     0.0104     5.547     1.979     1.850  0.4275 -0.4359  0.7920
 

 ---------------------------------------------------------------------------------

 Unable to Open any file for archive entry.
 1\1\GINC-BGN1031\SP\UAPFD\Gen\C34H34Fe1N6(1+,2)\BECSLEIP\25-Oct-2024\0
 \\# apfd/gen scf=maxcycle=999 geom=check\\5zzg_III_D\\1,2\Fe,0,-6.0848
 927755,-6.2741186682,6.9322386537\N,0,-5.9958201184,-8.0167953166,5.86
 95026082\N,0,-5.4654356439,-5.3211293737,5.3458648017\N,0,-5.988113434
 2,-4.7032510045,8.0850681383\N,0,-6.3411402508,-7.4484962301,8.5765456
 206\C,0,-6.3369718443,-9.2729252542,6.2640833914\C,0,-6.2562949833,-10
 .2072659356,5.1645971851\C,0,-5.9219345903,-9.4758446461,4.0692475143\
 C,0,-5.7733468829,-8.1112532664,4.5242481283\C,0,-5.2106636727,-5.7688
 860518,4.0892770406\C,0,-4.818288898,-4.6956711726,3.217430973\C,0,-4.
 836782629,-3.5608940793,3.981017232\C,0,-5.1636462111,-3.979736233,5.3
 365652608\C,0,-5.8744555744,-3.4264545533,7.6220509764\C,0,-5.82788224
 4,-2.494844807,8.7157675225\C,0,-5.9594054968,-3.2349373477,9.86220442
 49\C,0,-6.0791375117,-4.6141330213,9.437301135\C,0,-6.5515513845,-6.98
 22140167,9.8438196277\C,0,-6.7509012106,-8.0792072498,10.7659607332\C,
 0,-6.804046656,-9.207342383,10.008869759\C,0,-6.5649146601,-8.79071700
 25,8.6456055111\C,0,-6.5541695522,-9.6579897332,7.5724679844\H,0,-6.75
 31570613,-10.7009580152,7.7652446015\C,0,-5.4156304266,-7.0763646524,3
 .6845368568\H,0,-5.2430615098,-7.3158909393,2.6467223064\C,0,-5.593398
 955,-3.0880463557,6.3033568744\H,0,-5.4844134333,-2.0345676668,6.09182
 33645\C,0,-6.28518952,-5.6924059926,10.2755723423\H,0,-6.3989106166,-5
 .4881655038,11.3285235247\C,0,-5.7060697532,-9.924924503,2.664924346\H
 ,0,-5.8843224144,-10.9931653051,2.5693973673\H,0,-4.6828544664,-9.7193
 200141,2.3501169898\H,0,-6.3807554235,-9.4019477962,1.9867764261\C,0,-
 6.5186476136,-11.6694509072,5.2836199427\H,0,-7.5169446744,-11.8512689
 468,5.6824259195\H,0,-5.7964056798,-12.1333039628,5.9557445876\H,0,-6.
 4429981781,-12.1555029399,4.3141011879\C,0,-4.5692573596,-4.8304059067
 ,1.7561080509\H,0,-5.2545768346,-5.5511107332,1.312525068\H,0,-3.55081
 17497,-5.1731948336,1.5666376379\H,0,-4.7064681889,-3.8701902378,1.263
 2837841\C,0,-4.5223776692,-2.2022188421,3.5909828176\H,0,-5.0688615865
 ,-1.4235431404,4.1103970883\C,0,-3.6310275897,-1.8506083326,2.67035903
 61\H,0,-3.0202672449,-2.5726805382,2.1576431553\H,0,-3.4600623336,-0.8
 169207139,2.4187836359\C,0,-5.6470738012,-1.0226849382,8.5799483473\H,
 0,-6.3652193287,-0.6089488873,7.8717850453\H,0,-4.6444562569,-0.793405
 8159,8.2166919508\H,0,-5.7791358011,-0.5304831295,9.5400733684\C,0,-5.
 9253144497,-2.7358970003,11.2221121501\H,0,-6.4244457874,-1.7847064466
 ,11.3759835189\C,0,-5.3152814907,-3.3156694918,12.2493160136\H,0,-4.75
 58599862,-4.2290880705,12.1413624251\H,0,-5.3315456683,-2.877936271,13
 .2337624508\C,0,-6.921932481,-7.9223880017,12.2376806964\H,0,-7.732133
 2383,-7.2276391654,12.4586680743\H,0,-6.0095976212,-7.5309694354,12.68
 80989438\H,0,-7.1494996485,-8.8775675457,12.7046603027\C,0,-7.01170429
 53,-10.6217198831,10.4303150591\H,0,-7.8737388687,-11.0528322916,9.920
 3889082\H,0,-7.1824371351,-10.6840427244,11.5021070517\H,0,-6.13801275
 16,-11.2264398496,10.186634256\C,0,-11.1121179884,-4.2471481457,5.5641
 314093\H,0,-10.7337213676,-3.2492109709,5.3674088451\H,0,-11.876146791
 8,-4.1859656592,6.338734069\H,0,-11.5778158019,-4.6285834125,4.6554567
 673\N,0,-10.1857939752,-6.4336094445,6.3583373856\H,0,-11.0681771343,-
 6.9184759181,6.3703885836\C,0,-9.9959972787,-5.1265642382,5.9941358822
 \C,0,-8.9807515927,-6.9465407908,6.693506287\H,0,-8.8260306487,-7.9555
 799348,7.0192040231\N,0,-8.0356862924,-6.0434679867,6.5635682349\C,0,-
 8.6552012237,-4.9053431262,6.1280741542\H,0,-8.0959047872,-4.010827298
 3,5.9411246621\\Version=ES64L-G16RevC.02\State=2-A\HF=-2906.8172502\S2
 =0.904175\S2-1=0.\S2A=0.756574\RMSD=3.512e-09\Dipole=-2.4746773,-0.273
 7117,-0.489984\Quadrupole=-12.1347484,7.6650901,4.4696584,6.5057348,-4
 .1477538,-1.985102\PG=C01 [X(C34H34Fe1N6)]\\@
 The archive entry for this job was punched.


 Make no judgements where you have no compassion.
                               -- Anne McCaffrey
 Job cpu time:       0 days  4 hours 58 minutes 22.3 seconds.
 Elapsed time:       0 days  0 hours  5 minutes  6.5 seconds.
 File lengths (MBytes):  RWF=    408 Int=      0 D2E=      0 Chk=    150 Scr=      1
 Normal termination of Gaussian 16 at Fri Oct 25 02:44:02 2024.
