 Entering Gaussian System, Link 0=g16
 Input=6a7j12re.com
 Output=6a7j12re.log
 Initial command:
 /sw/chem/gaussian/g16_C02/a100/g16/l1.exe "/local/becsleip_8064832/Gau-722580.inp" -scrdir="/local/becsleip_8064832/"
 Entering Link 1 = /sw/chem/gaussian/g16_C02/a100/g16/l1.exe PID=    722581.
  
 Copyright (c) 1988-2021, Gaussian, Inc.  All Rights Reserved.
  
 This is part of the Gaussian(R) 16 program.  It is based on
 the Gaussian(R) 09 system (copyright 2009, Gaussian, Inc.),
 the Gaussian(R) 03 system (copyright 2003, Gaussian, Inc.),
 the Gaussian(R) 98 system (copyright 1998, Gaussian, Inc.),
 the Gaussian(R) 94 system (copyright 1995, Gaussian, Inc.),
 the Gaussian 92(TM) system (copyright 1992, Gaussian, Inc.),
 the Gaussian 90(TM) system (copyright 1990, Gaussian, Inc.),
 the Gaussian 88(TM) system (copyright 1988, Gaussian, Inc.),
 the Gaussian 86(TM) system (copyright 1986, Carnegie Mellon
 University), and the Gaussian 82(TM) system (copyright 1983,
 Carnegie Mellon University). Gaussian is a federally registered
 trademark of Gaussian, Inc.
  
 This software contains proprietary and confidential information,
 including trade secrets, belonging to Gaussian, Inc.
  
 This software is provided under written license and may be
 used, copied, transmitted, or stored only in accord with that
 written license.
  
 The following legend is applicable only to US Government
 contracts under FAR:
  
                    RESTRICTED RIGHTS LEGEND
  
 Use, reproduction and disclosure by the US Government is
 subject to restrictions as set forth in subparagraphs (a)
 and (c) of the Commercial Computer Software - Restricted
 Rights clause in FAR 52.227-19.
  
 Gaussian, Inc.
 340 Quinnipiac St., Bldg. 40, Wallingford CT 06492
  
  
 ---------------------------------------------------------------
 Warning -- This program may not be used in any manner that
 competes with the business of Gaussian, Inc. or will provide
 assistance to any competitor of Gaussian, Inc.  The licensee
 of this program is prohibited from giving any competitor of
 Gaussian, Inc. access to this program.  By using this program,
 the user acknowledges that Gaussian, Inc. is engaged in the
 business of creating and licensing software in the field of
 computational chemistry and represents and warrants to the
 licensee that it is not a competitor of Gaussian, Inc. and that
 it will not use this program in any manner prohibited above.
 ---------------------------------------------------------------
  

 Cite this work as:
 Gaussian 16, Revision C.02,
 M. J. Frisch, G. W. Trucks, H. B. Schlegel, G. E. Scuseria, 
 M. A. Robb, J. R. Cheeseman, G. Scalmani, V. Barone, 
 G. A. Petersson, H. Nakatsuji, X. Li, M. Caricato, A. V. Marenich, 
 J. Bloino, B. G. Janesko, R. Gomperts, B. Mennucci, H. P. Hratchian, 
 J. V. Ortiz, A. F. Izmaylov, J. L. Sonnenberg, D. Williams-Young, 
 F. Ding, F. Lipparini, F. Egidi, J. Goings, B. Peng, A. Petrone, 
 T. Henderson, D. Ranasinghe, V. G. Zakrzewski, J. Gao, N. Rega, 
 G. Zheng, W. Liang, M. Hada, M. Ehara, K. Toyota, R. Fukuda, 
 J. Hasegawa, M. Ishida, T. Nakajima, Y. Honda, O. Kitao, H. Nakai, 
 T. Vreven, K. Throssell, J. A. Montgomery, Jr., J. E. Peralta, 
 F. Ogliaro, M. J. Bearpark, J. J. Heyd, E. N. Brothers, K. N. Kudin, 
 V. N. Staroverov, T. A. Keith, R. Kobayashi, J. Normand, 
 K. Raghavachari, A. P. Rendell, J. C. Burant, S. S. Iyengar, 
 J. Tomasi, M. Cossi, J. M. Millam, M. Klene, C. Adamo, R. Cammi, 
 J. W. Ochterski, R. L. Martin, K. Morokuma, O. Farkas, 
 J. B. Foresman, and D. J. Fox, Gaussian, Inc., Wallingford CT, 2019.
 
 ******************************************
 Gaussian 16:  ES64L-G16RevC.02  7-Dec-2021
                29-Oct-2024 
 ******************************************
 %mem=16GB
 %CPU=0-71
 SetSPE:  set environment variable "OMP_PROC_BIND" = "true"
 SetSPE:  set environment variable "OMP_PLACES" = "{0},{1},{2},{3},{4},{5},{6},{7},{8},{9},{10},{11},{12},{13},{14},{15},{16},{17},{18},{19},{20},{21},{22},{23},{24},{25},{26},{27},{28},{29},{30},{31},{32},{33},{34},{35},{36},{37},{38},{39},{40},{41},{42},{43},{44},{45},{46},{47},{48},{49},{50},{51},{52},{53},{54},{55},{56},{57},{58},{59},{60},{61},{62},{63},{64},{65},{66},{67},{68},{69},{70},{71}"
 Will use up to   72 processors via shared memory.
 %gpucpu=0,1,2,3=0,1,2,3
 Will use    4 GPUs:
 Thread  CPU   GPU
      0    0     0
      1    1     1
      2    2     2
      3    3     3
      4    4    -1
      5    5    -1
      6    6    -1
      7    7    -1
      8    8    -1
      9    9    -1
     10   10    -1
     11   11    -1
     12   12    -1
     13   13    -1
     14   14    -1
     15   15    -1
     16   16    -1
     17   17    -1
     18   18    -1
     19   19    -1
     20   20    -1
     21   21    -1
     22   22    -1
     23   23    -1
     24   24    -1
     25   25    -1
     26   26    -1
     27   27    -1
     28   28    -1
     29   29    -1
     30   30    -1
     31   31    -1
     32   32    -1
     33   33    -1
     34   34    -1
     35   35    -1
     36   36    -1
     37   37    -1
     38   38    -1
     39   39    -1
     40   40    -1
     41   41    -1
     42   42    -1
     43   43    -1
     44   44    -1
     45   45    -1
     46   46    -1
     47   47    -1
     48   48    -1
     49   49    -1
     50   50    -1
     51   51    -1
     52   52    -1
     53   53    -1
     54   54    -1
     55   55    -1
     56   56    -1
     57   57    -1
     58   58    -1
     59   59    -1
     60   60    -1
     61   61    -1
     62   62    -1
     63   63    -1
     64   64    -1
     65   65    -1
     66   66    -1
     67   67    -1
     68   68    -1
     69   69    -1
     70   70    -1
     71   71    -1
 SetGPE:  set environment variable "OMP_PROC_BIND" = "true"
 SetGPE:  set environment variable "OMP_PLACES" = "{0},{1},{2},{3},{4},{5},{6},{7},{8},{9},{10},{11},{12},{13},{14},{15},{16},{17},{18},{19},{20},{21},{22},{23},{24},{25},{26},{27},{28},{29},{30},{31},{32},{33},{34},{35},{36},{37},{38},{39},{40},{41},{42},{43},{44},{45},{46},{47},{48},{49},{50},{51},{52},{53},{54},{55},{56},{57},{58},{59},{60},{61},{62},{63},{64},{65},{66},{67},{68},{69},{70},{71}"
 %oldchk=6a7j_II_S.chk
 %chk=6a7j_II_Sre.chk
 Properties for Device   0
 Minimum vector length:                              32
 Maximum vector length:                            1024
 Number of SMPs:                                    108
 Maximum number of threads per SMP:                2048
 Number of ASync Engines:                             5
 Memory:                                           9207742464
 Properties for Device   1
 Minimum vector length:                              32
 Maximum vector length:                            1024
 Number of SMPs:                                    108
 Maximum number of threads per SMP:                2048
 Number of ASync Engines:                             5
 Memory:                                           9207742464
 Properties for Device   2
 Minimum vector length:                              32
 Maximum vector length:                            1024
 Number of SMPs:                                    108
 Maximum number of threads per SMP:                2048
 Number of ASync Engines:                             5
 Memory:                                           9207742464
 Properties for Device   3
 Minimum vector length:                              32
 Maximum vector length:                            1024
 Number of SMPs:                                    108
 Maximum number of threads per SMP:                2048
 Number of ASync Engines:                             5
 Memory:                                           9207742464
   8286968217 words of memory will be used on each GPU.
 Copying data from "6a7j_II_S.chk" to current chk file "6a7j_II_Sre.chk"
 IOpt=  2 FromEx=T IUOpen= 4 IOptOp= 5 NList=   0 IFRang= 0 IUIn= 4 IUOut= 2.
 --------------------------------------
 # apfd/gen scf=maxcycle=999 geom=check
 --------------------------------------
 1/29=2,38=1,172=1/1;
 2/12=2,40=1/2;
 3/5=7,11=2,14=-4,25=1,30=1,74=-44/1,2,3;
 4//1;
 5/5=2,7=999,38=5/2;
 6/7=2,8=2,9=2,10=2,28=1/1;
 99/5=1,9=1/99;
 ----------
 6a7j_III_D
 ----------
 Structure from the checkpoint file:  "6a7j_II_Sre.chk"
 Charge =  1 Multiplicity = 2
 Z-Matrix found in chk file.
 Fe,0,-8.1401548571,-8.1454602008,-5.9675814185
 N,0,-9.6882757597,-9.0530336851,-6.8297894173
 N,0,-8.7659204303,-6.4140852476,-6.8273147587
 N,0,-6.4916121244,-7.1705309953,-5.3501477391
 N,0,-7.4148292371,-9.8339697213,-5.3105210722
 C,0,-10.0117682384,-10.3653208238,-6.6540796826
 C,0,-11.2270122214,-10.6928267193,-7.365017056
 C,0,-11.6495220748,-9.540747703,-7.9514798173
 C,0,-10.677575193,-8.5302170109,-7.6045554869
 C,0,-9.844010454,-6.2335647047,-7.646911998
 C,0,-9.9703886573,-4.856375018,-8.0450082138
 C,0,-8.9440512527,-4.1856480944,-7.4370468216
 C,0,-8.2060235524,-5.1798179038,-6.6857561614
 C,0,-6.3010984455,-5.8221035423,-5.2884049185
 C,0,-5.1718935179,-5.4920932372,-4.4604372166
 C,0,-4.6479670268,-6.6846014361,-4.0373978534
 C,0,-5.4890608005,-7.7163354534,-4.6072298869
 C,0,-6.2175551715,-10.0531470422,-4.7043062015
 C,0,-6.0516551876,-11.4545149227,-4.3882029985
 C,0,-7.1745046442,-12.0806875875,-4.8291446246
 C,0,-8.0141531934,-11.0528589843,-5.4049945406
 C,0,-9.2453270495,-11.2974805768,-5.9796294492
 H,0,-9.6151900263,-12.3105262541,-5.9469152653
 C,0,-10.7439557559,-7.2165433957,-8.0171046608
 H,0,-11.5683901219,-6.9299552078,-8.6506469427
 C,0,-7.0759155824,-4.8889403719,-5.9493728633
 H,0,-6.7905890278,-3.8521257596,-5.8647695912
 C,0,-5.3239618604,-9.0642221867,-4.3472586979
 H,0,-4.4489734435,-9.3622932459,-3.7909712882
 C,0,-12.8429310073,-9.2949641297,-8.8081674795
 H,0,-13.4329605999,-10.2012399232,-8.9176715071
 H,0,-12.5388942683,-8.9620480448,-9.8007420369
 H,0,-13.4766318603,-8.5226934014,-8.3714733464
 C,0,-11.8435682739,-12.0482885542,-7.3950955303
 H,0,-12.0622542643,-12.3935101411,-6.384510051
 H,0,-11.1658442102,-12.7653916565,-7.8584575282
 H,0,-12.7704919919,-12.0383408771,-7.9628527841
 C,0,-10.9884026128,-4.3307690476,-8.9947555985
 H,0,-11.9387888023,-4.1519348325,-8.4888036002
 H,0,-11.1635381208,-5.0394488556,-9.8026112949
 H,0,-10.6460761027,-3.3914134777,-9.4236656001
 C,0,-8.5952993823,-2.7833705146,-7.5170572464
 H,0,-7.5351142923,-2.5612958767,-7.4923595246
 C,0,-9.463434183,-1.782352106,-7.6129464054
 H,0,-10.5274937343,-1.9426074862,-7.5965806705
 H,0,-9.1362143312,-0.7586210098,-7.684766738
 C,0,-4.6614858361,-4.1163705278,-4.2138285217
 H,0,-5.2405999913,-3.6211845477,-3.4327513139
 H,0,-4.7285261629,-3.5116256366,-5.1168360287
 H,0,-3.6210979114,-4.1562383503,-3.8983355206
 C,0,-3.4900504849,-6.9297182811,-3.2053575323
 H,0,-2.9140897429,-7.8135512063,-3.4533050817
 C,0,-3.1026515361,-6.1695727249,-2.1870991598
 H,0,-3.66512375,-5.3091910987,-1.8687447521
 H,0,-2.2198168297,-6.401522165,-1.6151669255
 C,0,-4.8493671492,-12.0233734432,-3.7186954023
 H,0,-4.7359803855,-11.6034310906,-2.7189529606
 H,0,-3.9491903384,-11.7915228794,-4.2875973523
 H,0,-4.9309845168,-13.1036031871,-3.6294541113
 C,0,-7.5387292954,-13.5235909189,-4.7683469954
 H,0,-8.4500975492,-13.6637775893,-4.1867445074
 H,0,-6.7442952824,-14.1028697774,-4.3050207245
 H,0,-7.7118215838,-13.9168891228,-5.7700906456
 C,0,-11.0220066085,-7.4955058324,-4.3249936375
 H,0,-11.4154310765,-8.5006867741,-4.4338189926
 H,0,-11.1605628091,-6.9435283399,-5.2484652609
 H,0,-11.4984748783,-6.9951364629,-3.4880228017
 S,0,-9.2339477493,-7.6725180273,-3.9769927806
 H,0,-9.0023955871,-6.3542750494,-3.8998654062
 Recover connectivity data from disk.
 Stoichiometry    C31H32FeN4S(1+,2)
 Framework group  C1[X(C31H32FeN4S)]
 Deg. of freedom   201
 Full point group                 C1      NOp   1
 Largest Abelian subgroup         C1      NOp   1
 Largest concise Abelian subgroup C1      NOp   1
                         Standard orientation:                         
 ---------------------------------------------------------------------
 Center     Atomic      Atomic             Coordinates (Angstroms)
 Number     Number       Type             X           Y           Z
 ---------------------------------------------------------------------
      1         26           0        0.042326   -0.230965   -0.177529
      2          7           0       -1.367660   -1.636129   -0.212494
      3          7           0       -1.434993    1.156358   -0.323299
      4          7           0        1.377755    1.259146   -0.391082
      5          7           0        1.474647   -1.554739   -0.248007
      6          6           0       -1.132027   -2.972032   -0.080361
      7          6           0       -2.372865   -3.713538   -0.081960
      8          6           0       -3.368507   -2.793084   -0.187788
      9          6           0       -2.721183   -1.504285   -0.266398
     10          6           0       -2.779799    0.934014   -0.416387
     11          6           0       -3.508443    2.172953   -0.488599
     12          6           0       -2.574633    3.171370   -0.425188
     13          6           0       -1.289430    2.511255   -0.325193
     14          6           0        1.156129    2.596707   -0.249036
     15          6           0        2.392393    3.317858   -0.103667
     16          6           0        3.390819    2.384836   -0.193955
     17          6           0        2.731248    1.108460   -0.374103
     18          6           0        2.808473   -1.339819   -0.402014
     19          6           0        3.530776   -2.592466   -0.422760
     20          6           0        2.598744   -3.572645   -0.289042
     21          6           0        1.319162   -2.905848   -0.183701
     22          6           0        0.115071   -3.567950   -0.050962
     23          1           0        0.146845   -4.643529    0.028104
     24          6           0       -3.391598   -0.306254   -0.391326
     25          1           0       -4.468245   -0.336471   -0.447186
     26          6           0       -0.090507    3.191458   -0.262581
     27          1           0       -0.131900    4.267251   -0.195421
     28          6           0        3.406363   -0.096648   -0.433901
     29          1           0        4.484083   -0.064317   -0.471048
     30          6           0       -4.843451   -2.993468   -0.241949
     31          1           0       -5.093606   -4.047317   -0.150923
     32          1           0       -5.244600   -2.626480   -1.186870
     33          1           0       -5.334472   -2.452315    0.567207
     34          6           0       -2.465878   -5.196103    0.026074
     35          1           0       -1.984342   -5.545830    0.939364
     36          1           0       -1.971396   -5.672018   -0.820829
     37          1           0       -3.504107   -5.517840    0.040230
     38          6           0       -4.980437    2.289735   -0.673607
     39          1           0       -5.504017    2.170350    0.276559
     40          1           0       -5.344296    1.525507   -1.358510
     41          1           0       -5.227076    3.268036   -1.080591
     42          6           0       -2.765437    4.604984   -0.477711
     43          1           0       -1.987582    5.163700   -0.984364
     44          6           0       -3.798381    5.259812    0.041053
     45          1           0       -4.575496    4.760084    0.592902
     46          1           0       -3.888047    6.329624   -0.046798
     47          6           0        2.513835    4.794920    0.028559
     48          1           0        2.335948    5.108863    1.058345
     49          1           0        1.788951    5.300763   -0.607288
     50          1           0        3.512842    5.113761   -0.261024
     51          6           0        4.824343    2.573033   -0.141648
     52          1           0        5.406181    1.916595   -0.777983
     53          6           0        5.453532    3.465438    0.614979
     54          1           0        4.927578    4.107506    1.299889
     55          1           0        6.526072    3.563462    0.596159
     56          6           0        5.007845   -2.702798   -0.575827
     57          1           0        5.514239   -2.222169    0.261582
     58          1           0        5.334639   -2.215433   -1.494197
     59          1           0        5.316453   -3.744460   -0.610810
     60          6           0        2.779163   -5.050571   -0.250211
     61          1           0        2.423002   -5.454535    0.697665
     62          1           0        3.827565   -5.314368   -0.362575
     63          1           0        2.216886   -5.525759   -1.054061
     64          6           0       -1.518699   -0.486271    2.809714
     65          1           0       -1.584700   -1.568852    2.783702
     66          1           0       -2.294937   -0.054654    2.186948
     67          1           0       -1.587294   -0.131100    3.832974
     68         16           0        0.125203   -0.049825    2.133925
     69          1           0       -0.046834    1.273459    2.262965
 ---------------------------------------------------------------------
 Rotational constants (GHZ):           0.1118370           0.1099283           0.0598818
 General basis read from cards:  (5D, 7F)
 There are   644 symmetry adapted cartesian basis functions of A   symmetry.
 There are   605 symmetry adapted basis functions of A   symmetry.
   605 basis functions,  1246 primitive gaussians,   644 cartesian basis functions
   144 alpha electrons      143 beta electrons
       nuclear repulsion energy      5045.8325881328 Hartrees.
 NAtoms=   69 NActive=   69 NUniq=   69 SFac= 1.00D+00 NAtFMM=   60 NAOKFM=T Big=T
 Integral buffers will be    131072 words long.
 Raffenetti 2 integral format.
 Two-electron integral symmetry is turned on.
 R6APFD:  NTU= -4 IXU= 1 FactS= 1.050
 Nuclear repulsion after empirical dispersion term =     5045.6995537024 Hartrees.
 One-electron integrals computed using PRISM.
 NBasis=   605 RedAO= T EigKep=  2.56D-04  NBF=   605
 NBsUse=   605 1.00D-06 EigRej= -1.00D+00 NBFU=   605
 ExpMin= 4.20D-02 ExpMax= 3.01D+05 ExpMxC= 3.30D+03 IAcc=3 IRadAn=         5 AccDes= 0.00D+00
 Harris functional with IExCor= 3731 and IRadAn=       5 diagonalized for initial guess.
 HarFok:  IExCor= 3731 AccDes= 0.00D+00 IRadAn=         5 IDoV= 1 UseB2=F ITyADJ=14
 ICtDFT=  3500011 ScaDFX=  1.000000  1.000000  1.000000  1.000000
 FoFCou: FMM=F IPFlag=           0 FMFlag=      100000 FMFlg1=        2001
         NFxFlg=           0 DoJE=T BraDBF=F KetDBF=T FulRan=T
         wScrn=  0.000000 ICntrl=       500 IOpCl=  0 I1Cent=   200000004 NGrid=           0
         NMat0=    1 NMatS0=      1 NMatT0=    0 NMatD0=    1 NMtDS0=    0 NMtDT0=    0
 Petite list used in FoFCou.
 Initial guess <Sx>= 0.0000 <Sy>= 0.0000 <Sz>= 0.5000 <S**2>= 0.7500 S= 0.5000
 Requested convergence on RMS density matrix=1.00D-08 within 999 cycles.
 Requested convergence on MAX density matrix=1.00D-06.
 Requested convergence on             energy=1.00D-06.
 No special actions if energy rises.
 EnCoef did   100 forward-backward iterations
 EnCoef did   100 forward-backward iterations
 EnCoef did   100 forward-backward iterations
 EnCoef did   100 forward-backward iterations
 EnCoef did     8 forward-backward iterations
 Rare condition: small coef for last iteration:  0.000D+00
 Restarting incremental Fock formation.
 Restarting incremental Fock formation.
 Restarting incremental Fock formation.
 SCF Done:  E(UAPFD) =  -3080.03803234     A.U. after   78 cycles
            NFock= 78  Conv=0.31D-08     -V/T= 2.0033
 <Sx>= 0.0000 <Sy>= 0.0000 <Sz>= 0.5000 <S**2>= 1.3143 S= 0.7507
 <L.S>=  0.00000000000    
 Annihilation of the first spin contaminant:
 S**2 before annihilation     1.3143,   after     0.7870

 **********************************************************************

            Population analysis using the SCF Density.

 **********************************************************************

 Orbital symmetries:
 Alpha Orbitals:
       Occupied  (A) (A) (A) (A) (A) (A) (A) (A) (A) (A) (A) (A)
                 (A) (A) (A) (A) (A) (A) (A) (A) (A) (A) (A) (A)
                 (A) (A) (A) (A) (A) (A) (A) (A) (A) (A) (A) (A)
                 (A) (A) (A) (A) (A) (A) (A) (A) (A) (A) (A) (A)
                 (A) (A) (A) (A) (A) (A) (A) (A) (A) (A) (A) (A)
                 (A) (A) (A) (A) (A) (A) (A) (A) (A) (A) (A) (A)
                 (A) (A) (A) (A) (A) (A) (A) (A) (A) (A) (A) (A)
                 (A) (A) (A) (A) (A) (A) (A) (A) (A) (A) (A) (A)
                 (A) (A) (A) (A) (A) (A) (A) (A) (A) (A) (A) (A)
                 (A) (A) (A) (A) (A) (A) (A) (A) (A) (A) (A) (A)
                 (A) (A) (A) (A) (A) (A) (A) (A) (A) (A) (A) (A)
                 (A) (A) (A) (A) (A) (A) (A) (A) (A) (A) (A) (A)
       Virtual   (A) (A) (A) (A) (A) (A) (A) (A) (A) (A) (A) (A)
                 (A) (A) (A) (A) (A) (A) (A) (A) (A) (A) (A) (A)
                 (A) (A) (A) (A) (A) (A) (A) (A) (A) (A) (A) (A)
                 (A) (A) (A) (A) (A) (A) (A) (A) (A) (A) (A) (A)
                 (A) (A) (A) (A) (A) (A) (A) (A) (A) (A) (A) (A)
                 (A) (A) (A) (A) (A) (A) (A) (A) (A) (A) (A) (A)
                 (A) (A) (A) (A) (A) (A) (A) (A) (A) (A) (A) (A)
                 (A) (A) (A) (A) (A) (A) (A) (A) (A) (A) (A) (A)
                 (A) (A) (A) (A) (A) (A) (A) (A) (A) (A) (A) (A)
                 (A) (A) (A) (A) (A) (A) (A) (A) (A) (A) (A) (A)
                 (A) (A) (A) (A) (A) (A) (A) (A) (A) (A) (A) (A)
                 (A) (A) (A) (A) (A) (A) (A) (A) (A) (A) (A) (A)
                 (A) (A) (A) (A) (A) (A) (A) (A) (A) (A) (A) (A)
                 (A) (A) (A) (A) (A) (A) (A) (A) (A) (A) (A) (A)
                 (A) (A) (A) (A) (A) (A) (A) (A) (A) (A) (A) (A)
                 (A) (A) (A) (A) (A) (A) (A) (A) (A) (A) (A) (A)
                 (A) (A) (A) (A) (A) (A) (A) (A) (A) (A) (A) (A)
                 (A) (A) (A) (A) (A) (A) (A) (A) (A) (A) (A) (A)
                 (A) (A) (A) (A) (A) (A) (A) (A) (A) (A) (A) (A)
                 (A) (A) (A) (A) (A) (A) (A) (A) (A) (A) (A) (A)
                 (A) (A) (A) (A) (A) (A) (A) (A) (A) (A) (A) (A)
                 (A) (A) (A) (A) (A) (A) (A) (A) (A) (A) (A) (A)
                 (A) (A) (A) (A) (A) (A) (A) (A) (A) (A) (A) (A)
                 (A) (A) (A) (A) (A) (A) (A) (A) (A) (A) (A) (A)
                 (A) (A) (A) (A) (A) (A) (A) (A) (A) (A) (A) (A)
                 (A) (A) (A) (A) (A) (A) (A) (A) (A) (A) (A) (A)
                 (A) (A) (A) (A) (A) (A) (A) (A) (A) (A) (A) (A)
                 (A) (A) (A) (A) (A) (A) (A) (A) (A) (A) (A) (A)
                 (A) (A) (A) (A) (A) (A) (A) (A) (A) (A) (A) (A)
                 (A) (A) (A) (A) (A) (A) (A) (A) (A) (A) (A) (A)
                 (A) (A) (A) (A) (A) (A) (A) (A) (A) (A) (A) (A)
                 (A) (A) (A) (A) (A) (A) (A) (A) (A) (A) (A) (A)
                 (A) (A) (A) (A) (A) (A) (A) (A) (A) (A) (A) (A)
                 (A) (A) (A) (A) (A) (A) (A) (A) (A) (A) (A) (A)
                 (A) (A) (A) (A) (A) (A) (A) (A) (A) (A) (A) (A)
                 (A) (A) (A) (A) (A) (A) (A) (A) (A) (A) (A) (A)
                 (A) (A) (A) (A) (A) (A) (A) (A) (A) (A) (A) (A)
                 (A) (A) (A) (A) (A) (A) (A) (A) (A) (A) (A) (A)
                 (A) (A) (A) (A) (A)
 Beta  Orbitals:
       Occupied  (A) (A) (A) (A) (A) (A) (A) (A) (A) (A) (A) (A)
                 (A) (A) (A) (A) (A) (A) (A) (A) (A) (A) (A) (A)
                 (A) (A) (A) (A) (A) (A) (A) (A) (A) (A) (A) (A)
                 (A) (A) (A) (A) (A) (A) (A) (A) (A) (A) (A) (A)
                 (A) (A) (A) (A) (A) (A) (A) (A) (A) (A) (A) (A)
                 (A) (A) (A) (A) (A) (A) (A) (A) (A) (A) (A) (A)
                 (A) (A) (A) (A) (A) (A) (A) (A) (A) (A) (A) (A)
                 (A) (A) (A) (A) (A) (A) (A) (A) (A) (A) (A) (A)
                 (A) (A) (A) (A) (A) (A) (A) (A) (A) (A) (A) (A)
                 (A) (A) (A) (A) (A) (A) (A) (A) (A) (A) (A) (A)
                 (A) (A) (A) (A) (A) (A) (A) (A) (A) (A) (A) (A)
                 (A) (A) (A) (A) (A) (A) (A) (A) (A) (A) (A)
       Virtual   (A) (A) (A) (A) (A) (A) (A) (A) (A) (A) (A) (A)
                 (A) (A) (A) (A) (A) (A) (A) (A) (A) (A) (A) (A)
                 (A) (A) (A) (A) (A) (A) (A) (A) (A) (A) (A) (A)
                 (A) (A) (A) (A) (A) (A) (A) (A) (A) (A) (A) (A)
                 (A) (A) (A) (A) (A) (A) (A) (A) (A) (A) (A) (A)
                 (A) (A) (A) (A) (A) (A) (A) (A) (A) (A) (A) (A)
                 (A) (A) (A) (A) (A) (A) (A) (A) (A) (A) (A) (A)
                 (A) (A) (A) (A) (A) (A) (A) (A) (A) (A) (A) (A)
                 (A) (A) (A) (A) (A) (A) (A) (A) (A) (A) (A) (A)
                 (A) (A) (A) (A) (A) (A) (A) (A) (A) (A) (A) (A)
                 (A) (A) (A) (A) (A) (A) (A) (A) (A) (A) (A) (A)
                 (A) (A) (A) (A) (A) (A) (A) (A) (A) (A) (A) (A)
                 (A) (A) (A) (A) (A) (A) (A) (A) (A) (A) (A) (A)
                 (A) (A) (A) (A) (A) (A) (A) (A) (A) (A) (A) (A)
                 (A) (A) (A) (A) (A) (A) (A) (A) (A) (A) (A) (A)
                 (A) (A) (A) (A) (A) (A) (A) (A) (A) (A) (A) (A)
                 (A) (A) (A) (A) (A) (A) (A) (A) (A) (A) (A) (A)
                 (A) (A) (A) (A) (A) (A) (A) (A) (A) (A) (A) (A)
                 (A) (A) (A) (A) (A) (A) (A) (A) (A) (A) (A) (A)
                 (A) (A) (A) (A) (A) (A) (A) (A) (A) (A) (A) (A)
                 (A) (A) (A) (A) (A) (A) (A) (A) (A) (A) (A) (A)
                 (A) (A) (A) (A) (A) (A) (A) (A) (A) (A) (A) (A)
                 (A) (A) (A) (A) (A) (A) (A) (A) (A) (A) (A) (A)
                 (A) (A) (A) (A) (A) (A) (A) (A) (A) (A) (A) (A)
                 (A) (A) (A) (A) (A) (A) (A) (A) (A) (A) (A) (A)
                 (A) (A) (A) (A) (A) (A) (A) (A) (A) (A) (A) (A)
                 (A) (A) (A) (A) (A) (A) (A) (A) (A) (A) (A) (A)
                 (A) (A) (A) (A) (A) (A) (A) (A) (A) (A) (A) (A)
                 (A) (A) (A) (A) (A) (A) (A) (A) (A) (A) (A) (A)
                 (A) (A) (A) (A) (A) (A) (A) (A) (A) (A) (A) (A)
                 (A) (A) (A) (A) (A) (A) (A) (A) (A) (A) (A) (A)
                 (A) (A) (A) (A) (A) (A) (A) (A) (A) (A) (A) (A)
                 (A) (A) (A) (A) (A) (A) (A) (A) (A) (A) (A) (A)
                 (A) (A) (A) (A) (A) (A) (A) (A) (A) (A) (A) (A)
                 (A) (A) (A) (A) (A) (A) (A) (A) (A) (A) (A) (A)
                 (A) (A) (A) (A) (A) (A) (A) (A) (A) (A) (A) (A)
                 (A) (A) (A) (A) (A) (A) (A) (A) (A) (A) (A) (A)
                 (A) (A) (A) (A) (A) (A) (A) (A) (A) (A) (A) (A)
                 (A) (A) (A) (A) (A) (A)
 The electronic state is 2-A.
 Alpha  occ. eigenvalues -- -256.37169 -89.11012 -30.24146 -26.08183 -26.07930
 Alpha  occ. eigenvalues --  -26.07067 -14.49289 -14.49276 -14.49105 -14.49093
 Alpha  occ. eigenvalues --  -10.35308 -10.34889 -10.34802 -10.34752 -10.34740
 Alpha  occ. eigenvalues --  -10.34731 -10.34718 -10.34671 -10.34575 -10.32175
 Alpha  occ. eigenvalues --  -10.32137 -10.32089 -10.31962 -10.31504 -10.31446
 Alpha  occ. eigenvalues --  -10.31400 -10.31312 -10.31282 -10.31176 -10.31146
 Alpha  occ. eigenvalues --  -10.31135 -10.30163 -10.30088 -10.29228 -10.29137
 Alpha  occ. eigenvalues --  -10.28937 -10.28900 -10.28899 -10.28856 -10.28780
 Alpha  occ. eigenvalues --  -10.28769  -8.14158  -6.08711  -6.08427  -6.07904
 Alpha  occ. eigenvalues --   -3.64196  -2.41946  -2.40483  -2.38940  -1.10373
 Alpha  occ. eigenvalues --   -1.09366  -1.09305  -1.08326  -0.94972  -0.94494
 Alpha  occ. eigenvalues --   -0.93143  -0.92907  -0.92504  -0.92258  -0.92064
 Alpha  occ. eigenvalues --   -0.91948  -0.87730  -0.86663  -0.86374  -0.85294
 Alpha  occ. eigenvalues --   -0.83892  -0.82205  -0.81147  -0.79982  -0.79542
 Alpha  occ. eigenvalues --   -0.79396  -0.79087  -0.76433  -0.76391  -0.71584
 Alpha  occ. eigenvalues --   -0.70942  -0.70070  -0.69626  -0.66311  -0.65640
 Alpha  occ. eigenvalues --   -0.64644  -0.64351  -0.62934  -0.62905  -0.62524
 Alpha  occ. eigenvalues --   -0.60345  -0.60153  -0.59399  -0.59225  -0.57954
 Alpha  occ. eigenvalues --   -0.57103  -0.56141  -0.55695  -0.55354  -0.55057
 Alpha  occ. eigenvalues --   -0.54841  -0.54544  -0.54390  -0.54081  -0.53811
 Alpha  occ. eigenvalues --   -0.53251  -0.53058  -0.52860  -0.51872  -0.51523
 Alpha  occ. eigenvalues --   -0.51454  -0.51359  -0.51324  -0.51211  -0.50904
 Alpha  occ. eigenvalues --   -0.50682  -0.50460  -0.50255  -0.49904  -0.49454
 Alpha  occ. eigenvalues --   -0.49155  -0.48937  -0.48925  -0.48574  -0.48201
 Alpha  occ. eigenvalues --   -0.47589  -0.47257  -0.46834  -0.45973  -0.45809
 Alpha  occ. eigenvalues --   -0.45324  -0.44495  -0.44164  -0.43878  -0.43330
 Alpha  occ. eigenvalues --   -0.43241  -0.42213  -0.41670  -0.40541  -0.40272
 Alpha  occ. eigenvalues --   -0.39896  -0.38150  -0.37979  -0.35479  -0.34183
 Alpha  occ. eigenvalues --   -0.32879  -0.32839  -0.31412  -0.30031
 Alpha virt. eigenvalues --   -0.24550  -0.18319  -0.18217  -0.15715  -0.12452
 Alpha virt. eigenvalues --   -0.10438  -0.08805  -0.07672  -0.06223  -0.05875
 Alpha virt. eigenvalues --   -0.02952  -0.02270  -0.01910  -0.00267   0.00452
 Alpha virt. eigenvalues --    0.00998   0.01412   0.01625   0.02372   0.03150
 Alpha virt. eigenvalues --    0.03235   0.03502   0.03766   0.04022   0.04510
 Alpha virt. eigenvalues --    0.04611   0.05126   0.05500   0.05641   0.06390
 Alpha virt. eigenvalues --    0.06825   0.07090   0.07244   0.07691   0.07844
 Alpha virt. eigenvalues --    0.08244   0.08606   0.08964   0.09257   0.09472
 Alpha virt. eigenvalues --    0.09861   0.10494   0.11009   0.11148   0.11458
 Alpha virt. eigenvalues --    0.11832   0.12151   0.12459   0.12689   0.13185
 Alpha virt. eigenvalues --    0.13658   0.14032   0.14603   0.14968   0.15107
 Alpha virt. eigenvalues --    0.15402   0.15888   0.16480   0.16914   0.17208
 Alpha virt. eigenvalues --    0.18598   0.19042   0.19706   0.20647   0.21179
 Alpha virt. eigenvalues --    0.21516   0.22131   0.22433   0.23638   0.24192
 Alpha virt. eigenvalues --    0.24484   0.24657   0.25078   0.25466   0.26565
 Alpha virt. eigenvalues --    0.27006   0.27870   0.29042   0.30904   0.31564
 Alpha virt. eigenvalues --    0.31989   0.32273   0.33038   0.34009   0.34560
 Alpha virt. eigenvalues --    0.35537   0.37362   0.37503   0.37641   0.38185
 Alpha virt. eigenvalues --    0.38578   0.39278   0.40030   0.40277   0.40399
 Alpha virt. eigenvalues --    0.41074   0.41584   0.42295   0.42720   0.42851
 Alpha virt. eigenvalues --    0.43348   0.43883   0.44542   0.44905   0.45153
 Alpha virt. eigenvalues --    0.45292   0.46007   0.46703   0.47465   0.47572
 Alpha virt. eigenvalues --    0.48082   0.48765   0.49262   0.49605   0.49752
 Alpha virt. eigenvalues --    0.50449   0.50628   0.51418   0.51514   0.52128
 Alpha virt. eigenvalues --    0.52513   0.52697   0.53623   0.53922   0.54322
 Alpha virt. eigenvalues --    0.54907   0.55048   0.55310   0.55921   0.56190
 Alpha virt. eigenvalues --    0.56825   0.57079   0.57140   0.57614   0.58491
 Alpha virt. eigenvalues --    0.59035   0.59858   0.60078   0.60778   0.61703
 Alpha virt. eigenvalues --    0.61992   0.62326   0.62901   0.63489   0.64158
 Alpha virt. eigenvalues --    0.64531   0.64742   0.64892   0.65646   0.66132
 Alpha virt. eigenvalues --    0.66308   0.67048   0.67498   0.67578   0.67744
 Alpha virt. eigenvalues --    0.67948   0.68103   0.68637   0.68985   0.69663
 Alpha virt. eigenvalues --    0.70006   0.70153   0.70733   0.71567   0.72187
 Alpha virt. eigenvalues --    0.72679   0.73399   0.74863   0.75334   0.75892
 Alpha virt. eigenvalues --    0.76333   0.76525   0.77087   0.77236   0.77887
 Alpha virt. eigenvalues --    0.78267   0.78604   0.78726   0.79765   0.80341
 Alpha virt. eigenvalues --    0.80690   0.80897   0.81684   0.82061   0.82257
 Alpha virt. eigenvalues --    0.82456   0.82811   0.83358   0.83605   0.83739
 Alpha virt. eigenvalues --    0.84163   0.84591   0.85426   0.85812   0.86556
 Alpha virt. eigenvalues --    0.86767   0.87011   0.87197   0.88043   0.88806
 Alpha virt. eigenvalues --    0.89394   0.89738   0.89775   0.89963   0.90472
 Alpha virt. eigenvalues --    0.90657   0.91226   0.91640   0.92161   0.93120
 Alpha virt. eigenvalues --    0.93259   0.93576   0.94227   0.95224   0.96003
 Alpha virt. eigenvalues --    0.96367   0.96669   0.97468   0.98038   0.99210
 Alpha virt. eigenvalues --    1.00299   1.02154   1.03404   1.04086   1.04411
 Alpha virt. eigenvalues --    1.05283   1.05940   1.06180   1.06276   1.07185
 Alpha virt. eigenvalues --    1.07719   1.08527   1.09353   1.09995   1.10088
 Alpha virt. eigenvalues --    1.10546   1.11208   1.12458   1.12963   1.13736
 Alpha virt. eigenvalues --    1.14035   1.14240   1.15297   1.15635   1.16547
 Alpha virt. eigenvalues --    1.16684   1.18198   1.19028   1.19230   1.20351
 Alpha virt. eigenvalues --    1.21980   1.22574   1.23743   1.24572   1.25362
 Alpha virt. eigenvalues --    1.25938   1.26215   1.26560   1.27026   1.27061
 Alpha virt. eigenvalues --    1.27636   1.28755   1.29242   1.29954   1.32079
 Alpha virt. eigenvalues --    1.32624   1.33754   1.34574   1.36329   1.36783
 Alpha virt. eigenvalues --    1.37761   1.38996   1.40827   1.41323   1.42080
 Alpha virt. eigenvalues --    1.42440   1.43173   1.43772   1.44139   1.45517
 Alpha virt. eigenvalues --    1.46245   1.47566   1.48458   1.49563   1.50065
 Alpha virt. eigenvalues --    1.51313   1.52115   1.53152   1.53851   1.55075
 Alpha virt. eigenvalues --    1.57298   1.58313   1.58568   1.58797   1.59779
 Alpha virt. eigenvalues --    1.60862   1.61104   1.63563   1.65402   1.66175
 Alpha virt. eigenvalues --    1.67756   1.68288   1.68774   1.69154   1.69318
 Alpha virt. eigenvalues --    1.69908   1.70282   1.71375   1.71632   1.72161
 Alpha virt. eigenvalues --    1.72251   1.73637   1.73914   1.75243   1.75721
 Alpha virt. eigenvalues --    1.76370   1.76658   1.77470   1.78628   1.80213
 Alpha virt. eigenvalues --    1.80314   1.80617   1.81179   1.81504   1.83311
 Alpha virt. eigenvalues --    1.83565   1.84225   1.84483   1.85087   1.86896
 Alpha virt. eigenvalues --    1.88658   1.89416   1.89472   1.89631   1.90364
 Alpha virt. eigenvalues --    1.90868   1.90966   1.92284   1.93129   1.93690
 Alpha virt. eigenvalues --    1.94201   1.94970   1.95718   1.96844   1.97293
 Alpha virt. eigenvalues --    1.98494   1.99585   2.00952   2.01550   2.03013
 Alpha virt. eigenvalues --    2.03715   2.04240   2.04800   2.05366   2.06356
 Alpha virt. eigenvalues --    2.07619   2.08199   2.09339   2.10242   2.10867
 Alpha virt. eigenvalues --    2.11944   2.12551   2.12729   2.13099   2.13439
 Alpha virt. eigenvalues --    2.14377   2.14894   2.15572   2.16057   2.16712
 Alpha virt. eigenvalues --    2.16936   2.17230   2.18107   2.18556   2.19507
 Alpha virt. eigenvalues --    2.19715   2.20107   2.21028   2.21404   2.22052
 Alpha virt. eigenvalues --    2.23395   2.23496   2.24482   2.25128   2.25323
 Alpha virt. eigenvalues --    2.26257   2.26751   2.28054   2.29402   2.29946
 Alpha virt. eigenvalues --    2.30597   2.31129   2.31996   2.32518   2.33446
 Alpha virt. eigenvalues --    2.33861   2.34205   2.34714   2.37050   2.38110
 Alpha virt. eigenvalues --    2.38925   2.41054   2.41660   2.42190   2.42409
 Alpha virt. eigenvalues --    2.42703   2.44103   2.44440   2.45659   2.45841
 Alpha virt. eigenvalues --    2.47236   2.49113   2.49661   2.51957   2.53625
 Alpha virt. eigenvalues --    2.54745   2.55300   2.56407   2.57269   2.58542
 Alpha virt. eigenvalues --    2.59785   2.60485   2.64694   2.67149   2.67412
 Alpha virt. eigenvalues --    2.69239   2.69831   2.70604   2.75797   2.76492
 Alpha virt. eigenvalues --    2.77356   2.79232   2.80346   2.81226   2.83493
 Alpha virt. eigenvalues --    2.84989   2.85684   2.86159   2.87820   2.88249
 Alpha virt. eigenvalues --    2.89178   2.93363   2.94079   3.01208   3.02452
 Alpha virt. eigenvalues --    3.09082   3.12253   3.12939   3.18744   3.19038
 Alpha virt. eigenvalues --    3.24001   3.28202   3.29034   3.29334   3.34332
 Alpha virt. eigenvalues --    3.34867   3.37686   3.40405   3.74056   3.90517
 Alpha virt. eigenvalues --    4.08066
  Beta  occ. eigenvalues -- -256.37116 -89.11097 -30.21207 -26.05803 -26.05231
  Beta  occ. eigenvalues --  -26.04794 -14.49532 -14.49526 -14.49296 -14.49273
  Beta  occ. eigenvalues --  -10.35297 -10.34837 -10.34741 -10.34701 -10.34692
  Beta  occ. eigenvalues --  -10.34692 -10.34664 -10.34622 -10.34524 -10.32311
  Beta  occ. eigenvalues --  -10.32270 -10.32210 -10.32090 -10.31482 -10.31421
  Beta  occ. eigenvalues --  -10.31405 -10.31311 -10.31253 -10.31149 -10.31143
  Beta  occ. eigenvalues --  -10.31135 -10.30165 -10.30099 -10.29230 -10.29138
  Beta  occ. eigenvalues --  -10.28939 -10.28902 -10.28901 -10.28852 -10.28780
  Beta  occ. eigenvalues --  -10.28750  -8.14245  -6.08766  -6.08526  -6.08133
  Beta  occ. eigenvalues --   -3.56988  -2.33789  -2.32740  -2.31642  -1.10578
  Beta  occ. eigenvalues --   -1.09569  -1.09497  -1.08510  -0.95100  -0.94780
  Beta  occ. eigenvalues --   -0.93184  -0.92939  -0.92541  -0.92354  -0.92220
  Beta  occ. eigenvalues --   -0.92065  -0.87722  -0.86955  -0.86399  -0.85312
  Beta  occ. eigenvalues --   -0.83916  -0.82223  -0.81181  -0.80123  -0.79560
  Beta  occ. eigenvalues --   -0.79441  -0.79150  -0.76467  -0.76434  -0.71593
  Beta  occ. eigenvalues --   -0.70951  -0.70086  -0.69755  -0.66333  -0.65689
  Beta  occ. eigenvalues --   -0.64662  -0.64350  -0.63007  -0.62974  -0.62561
  Beta  occ. eigenvalues --   -0.60380  -0.60175  -0.59437  -0.59261  -0.58114
  Beta  occ. eigenvalues --   -0.57118  -0.56158  -0.55731  -0.55391  -0.55075
  Beta  occ. eigenvalues --   -0.54846  -0.54574  -0.54456  -0.54088  -0.53835
  Beta  occ. eigenvalues --   -0.53290  -0.53078  -0.52856  -0.51728  -0.51519
  Beta  occ. eigenvalues --   -0.51469  -0.51376  -0.51218  -0.51191  -0.50883
  Beta  occ. eigenvalues --   -0.50708  -0.50434  -0.50180  -0.49935  -0.49377
  Beta  occ. eigenvalues --   -0.49205  -0.48901  -0.48707  -0.48498  -0.48113
  Beta  occ. eigenvalues --   -0.47598  -0.47235  -0.46781  -0.45864  -0.45156
  Beta  occ. eigenvalues --   -0.44565  -0.44459  -0.43775  -0.43423  -0.43211
  Beta  occ. eigenvalues --   -0.42955  -0.40555  -0.40372  -0.39496  -0.38871
  Beta  occ. eigenvalues --   -0.37862  -0.36993  -0.35208  -0.34285  -0.33188
  Beta  occ. eigenvalues --   -0.32802  -0.31371  -0.29636
  Beta virt. eigenvalues --   -0.20515  -0.18731  -0.16909  -0.16688  -0.12645
  Beta virt. eigenvalues --   -0.11954  -0.10241  -0.08659  -0.07765  -0.06053
  Beta virt. eigenvalues --   -0.05988  -0.02635  -0.02026  -0.01493  -0.00179
  Beta virt. eigenvalues --    0.00597   0.01039   0.01501   0.01597   0.02349
  Beta virt. eigenvalues --    0.03081   0.03216   0.03442   0.03741   0.03917
  Beta virt. eigenvalues --    0.04488   0.04575   0.05098   0.05475   0.05620
  Beta virt. eigenvalues --    0.06397   0.06831   0.07094   0.07221   0.07711
  Beta virt. eigenvalues --    0.07858   0.08253   0.08607   0.08976   0.09309
  Beta virt. eigenvalues --    0.09490   0.09881   0.10515   0.11025   0.11190
  Beta virt. eigenvalues --    0.11481   0.12089   0.12214   0.12527   0.12848
  Beta virt. eigenvalues --    0.13282   0.13755   0.14101   0.14749   0.15177
  Beta virt. eigenvalues --    0.15265   0.15507   0.15946   0.16785   0.16990
  Beta virt. eigenvalues --    0.17287   0.18619   0.19075   0.19704   0.20656
  Beta virt. eigenvalues --    0.21327   0.21640   0.22165   0.22422   0.23626
  Beta virt. eigenvalues --    0.24246   0.24512   0.24657   0.25178   0.25486
  Beta virt. eigenvalues --    0.26511   0.27012   0.27897   0.29058   0.30768
  Beta virt. eigenvalues --    0.31575   0.31973   0.32250   0.33029   0.33965
  Beta virt. eigenvalues --    0.34678   0.35621   0.37371   0.37564   0.37766
  Beta virt. eigenvalues --    0.38256   0.38596   0.39271   0.40067   0.40348
  Beta virt. eigenvalues --    0.40519   0.41126   0.41600   0.42337   0.42747
  Beta virt. eigenvalues --    0.42846   0.43333   0.43869   0.44551   0.44881
  Beta virt. eigenvalues --    0.45135   0.45332   0.45919   0.46707   0.47460
  Beta virt. eigenvalues --    0.47571   0.48104   0.48604   0.49228   0.49575
  Beta virt. eigenvalues --    0.49707   0.50362   0.50622   0.51310   0.51467
  Beta virt. eigenvalues --    0.52292   0.52491   0.52718   0.53647   0.54005
  Beta virt. eigenvalues --    0.54320   0.54900   0.55096   0.55382   0.55972
  Beta virt. eigenvalues --    0.56090   0.56676   0.57054   0.57136   0.57554
  Beta virt. eigenvalues --    0.58585   0.59122   0.59945   0.60253   0.60738
  Beta virt. eigenvalues --    0.61721   0.62047   0.62368   0.62926   0.63483
  Beta virt. eigenvalues --    0.64155   0.64645   0.64795   0.64995   0.65689
  Beta virt. eigenvalues --    0.66200   0.66308   0.67116   0.67530   0.67723
  Beta virt. eigenvalues --    0.67924   0.67981   0.68265   0.68635   0.69017
  Beta virt. eigenvalues --    0.69829   0.69966   0.70227   0.70762   0.71801
  Beta virt. eigenvalues --    0.72252   0.72755   0.73899   0.74880   0.75468
  Beta virt. eigenvalues --    0.76101   0.76373   0.76534   0.77080   0.77228
  Beta virt. eigenvalues --    0.77905   0.78263   0.78544   0.78707   0.79768
  Beta virt. eigenvalues --    0.80331   0.80703   0.80889   0.81582   0.82071
  Beta virt. eigenvalues --    0.82257   0.82440   0.82796   0.83282   0.83603
  Beta virt. eigenvalues --    0.83787   0.84168   0.84591   0.85463   0.85815
  Beta virt. eigenvalues --    0.86539   0.86776   0.87040   0.87222   0.88100
  Beta virt. eigenvalues --    0.88831   0.89442   0.89759   0.89772   0.90007
  Beta virt. eigenvalues --    0.90490   0.90671   0.91219   0.91671   0.92200
  Beta virt. eigenvalues --    0.93066   0.93239   0.93579   0.94229   0.95255
  Beta virt. eigenvalues --    0.95940   0.96371   0.96678   0.97507   0.98233
  Beta virt. eigenvalues --    0.99296   1.00268   1.02298   1.03403   1.04054
  Beta virt. eigenvalues --    1.04446   1.05314   1.06012   1.06185   1.06279
  Beta virt. eigenvalues --    1.07182   1.07729   1.08505   1.09343   1.10015
  Beta virt. eigenvalues --    1.10090   1.10587   1.11218   1.12470   1.13017
  Beta virt. eigenvalues --    1.13730   1.14297   1.14491   1.15464   1.15715
  Beta virt. eigenvalues --    1.16684   1.16919   1.18271   1.19110   1.19235
  Beta virt. eigenvalues --    1.20421   1.21976   1.22553   1.23745   1.24599
  Beta virt. eigenvalues --    1.25388   1.25928   1.26208   1.26543   1.26996
  Beta virt. eigenvalues --    1.27073   1.27620   1.28784   1.29201   1.29952
  Beta virt. eigenvalues --    1.31974   1.32463   1.33676   1.34551   1.36360
  Beta virt. eigenvalues --    1.36647   1.37709   1.39080   1.41015   1.41466
  Beta virt. eigenvalues --    1.42216   1.42433   1.43173   1.43796   1.44137
  Beta virt. eigenvalues --    1.45556   1.46337   1.47729   1.48484   1.49749
  Beta virt. eigenvalues --    1.50117   1.51330   1.52185   1.53187   1.53860
  Beta virt. eigenvalues --    1.55074   1.57368   1.58372   1.58589   1.58838
  Beta virt. eigenvalues --    1.59801   1.60890   1.61107   1.63553   1.65447
  Beta virt. eigenvalues --    1.66149   1.67615   1.68279   1.68742   1.69107
  Beta virt. eigenvalues --    1.69293   1.69845   1.70215   1.71486   1.71592
  Beta virt. eigenvalues --    1.72144   1.72283   1.73566   1.73866   1.75215
  Beta virt. eigenvalues --    1.75625   1.76340   1.76528   1.77420   1.78614
  Beta virt. eigenvalues --    1.80139   1.80379   1.80615   1.81156   1.81588
  Beta virt. eigenvalues --    1.83356   1.83616   1.84195   1.84377   1.85187
  Beta virt. eigenvalues --    1.88435   1.88676   1.89408   1.89488   1.89675
  Beta virt. eigenvalues --    1.90316   1.90926   1.91189   1.92264   1.93239
  Beta virt. eigenvalues --    1.93770   1.94145   1.94932   1.95674   1.96801
  Beta virt. eigenvalues --    1.97250   1.98411   2.00471   2.00947   2.01554
  Beta virt. eigenvalues --    2.02973   2.03742   2.04264   2.04831   2.05358
  Beta virt. eigenvalues --    2.06365   2.07638   2.08250   2.09433   2.10438
  Beta virt. eigenvalues --    2.11014   2.12129   2.12544   2.12895   2.13364
  Beta virt. eigenvalues --    2.13700   2.14445   2.15055   2.15589   2.16113
  Beta virt. eigenvalues --    2.16975   2.17206   2.17244   2.18178   2.18616
  Beta virt. eigenvalues --    2.19497   2.19795   2.20235   2.21082   2.21407
  Beta virt. eigenvalues --    2.22072   2.23422   2.23522   2.24534   2.25137
  Beta virt. eigenvalues --    2.25319   2.26308   2.26744   2.28080   2.29373
  Beta virt. eigenvalues --    2.29955   2.30562   2.31170   2.32064   2.32589
  Beta virt. eigenvalues --    2.33506   2.33868   2.34239   2.34787   2.37035
  Beta virt. eigenvalues --    2.38168   2.39005   2.41023   2.41640   2.42116
  Beta virt. eigenvalues --    2.42435   2.42751   2.44061   2.44390   2.45660
  Beta virt. eigenvalues --    2.45829   2.47379   2.49132   2.49689   2.51971
  Beta virt. eigenvalues --    2.53555   2.54598   2.55213   2.56239   2.57197
  Beta virt. eigenvalues --    2.58395   2.59634   2.60315   2.64607   2.67118
  Beta virt. eigenvalues --    2.67332   2.69210   2.69804   2.70583   2.75742
  Beta virt. eigenvalues --    2.76363   2.77287   2.79199   2.80311   2.81264
  Beta virt. eigenvalues --    2.83395   2.85105   2.85628   2.86170   2.87776
  Beta virt. eigenvalues --    2.88226   2.89236   2.93320   2.94060   3.01184
  Beta virt. eigenvalues --    3.02446   3.09069   3.12303   3.12990   3.18758
  Beta virt. eigenvalues --    3.19042   3.25431   3.28220   3.29127   3.32577
  Beta virt. eigenvalues --    3.34523   3.34851   3.42281   3.46721   3.76696
  Beta virt. eigenvalues --    3.93506   4.10725
          Condensed to atoms (all electrons):
          Atomic-Atomic Spin Densities.
 Mulliken charges and spin densities:
               1          2
     1  Fe   0.656177   1.543430
     2  N   -0.672044  -0.113979
     3  N   -0.666025  -0.094320
     4  N   -0.664401  -0.089929
     5  N   -0.695211  -0.117294
     6  C    0.312902   0.044377
     7  C    0.042032  -0.002685
     8  C    0.045484   0.019136
     9  C    0.311619   0.034274
    10  C    0.306105   0.027131
    11  C    0.048339   0.015565
    12  C    0.008685  -0.000902
    13  C    0.307054   0.039952
    14  C    0.289278   0.040563
    15  C    0.051967  -0.004686
    16  C    0.009085   0.019593
    17  C    0.321131   0.027193
    18  C    0.330132   0.034286
    19  C    0.047988   0.020904
    20  C    0.044424  -0.000852
    21  C    0.335102   0.044425
    22  C   -0.283242  -0.092656
    23  H    0.202050   0.004304
    24  C   -0.287679  -0.101321
    25  H    0.202216   0.004781
    26  C   -0.271956  -0.100610
    27  H    0.202176   0.004574
    28  C   -0.268701  -0.095768
    29  H    0.202071   0.004470
    30  C   -0.612412  -0.001743
    31  H    0.208570  -0.000099
    32  H    0.211713   0.001110
    33  H    0.201600   0.001076
    34  C   -0.613167  -0.000591
    35  H    0.203025   0.000294
    36  H    0.210372   0.000244
    37  H    0.207774  -0.000174
    38  C   -0.616075  -0.001530
    39  H    0.204068   0.001208
    40  H    0.201355   0.000491
    41  H    0.218248   0.000037
    42  C   -0.155913  -0.002000
    43  H    0.184381   0.000109
    44  C   -0.388506   0.002946
    45  H    0.188700  -0.000141
    46  H    0.198368  -0.000145
    47  C   -0.614154  -0.000264
    48  H    0.205819   0.000210
    49  H    0.199756   0.000092
    50  H    0.217062  -0.000096
    51  C   -0.154389  -0.008098
    52  H    0.185796   0.000636
    53  C   -0.387995   0.013269
    54  H    0.189631  -0.000642
    55  H    0.198407  -0.000619
    56  C   -0.613983  -0.001877
    57  H    0.208496   0.001254
    58  H    0.209762   0.001125
    59  H    0.208161  -0.000071
    60  C   -0.613176  -0.000813
    61  H    0.205198   0.000394
    62  H    0.208416  -0.000192
    63  H    0.208146   0.000354
    64  C   -0.695389   0.007622
    65  H    0.252746  -0.000005
    66  H    0.250881  -0.000999
    67  H    0.251325  -0.003648
    68  S    0.179077  -0.126516
    69  H    0.181547   0.003838
 Sum of Mulliken charges =   1.00000   1.00000
 Mulliken charges and spin densities with hydrogens summed into heavy atoms:
               1          2
     1  Fe   0.656177   1.543430
     2  N   -0.672044  -0.113979
     3  N   -0.666025  -0.094320
     4  N   -0.664401  -0.089929
     5  N   -0.695211  -0.117294
     6  C    0.312902   0.044377
     7  C    0.042032  -0.002685
     8  C    0.045484   0.019136
     9  C    0.311619   0.034274
    10  C    0.306105   0.027131
    11  C    0.048339   0.015565
    12  C    0.008685  -0.000902
    13  C    0.307054   0.039952
    14  C    0.289278   0.040563
    15  C    0.051967  -0.004686
    16  C    0.009085   0.019593
    17  C    0.321131   0.027193
    18  C    0.330132   0.034286
    19  C    0.047988   0.020904
    20  C    0.044424  -0.000852
    21  C    0.335102   0.044425
    22  C   -0.081192  -0.088352
    24  C   -0.085463  -0.096541
    26  C   -0.069780  -0.096036
    28  C   -0.066630  -0.091298
    30  C    0.009471   0.000344
    34  C    0.008005  -0.000227
    38  C    0.007596   0.000206
    42  C    0.028468  -0.001892
    44  C   -0.001439   0.002661
    47  C    0.008483  -0.000058
    51  C    0.031407  -0.007462
    53  C    0.000043   0.012007
    56  C    0.012437   0.000430
    60  C    0.008584  -0.000258
    64  C    0.059563   0.002971
    68  S    0.360624  -0.122679
 Electronic spatial extent (au):  <R**2>=          17938.7904
 Charge=              1.0000 electrons
 Dipole moment (field-independent basis, Debye):
    X=             -1.1887    Y=             -0.8323    Z=              3.2962  Tot=              3.6014
 Quadrupole moment (field-independent basis, Debye-Ang):
   XX=           -153.8052   YY=           -155.5036   ZZ=           -219.1775
   XY=              0.4849   XZ=             -5.3636   YZ=              3.0341
 Traceless Quadrupole moment (field-independent basis, Debye-Ang):
   XX=             22.3569   YY=             20.6585   ZZ=            -43.0154
   XY=              0.4849   XZ=             -5.3636   YZ=              3.0341
 Octapole moment (field-independent basis, Debye-Ang**2):
  XXX=             25.6992  YYY=            -24.1471  ZZZ=             45.9791  XYY=             -5.9633
  XXY=              3.5278  XXZ=            -11.1884  XZZ=            -17.4437  YZZ=             -4.7164
  YYZ=              3.6403  XYZ=             16.5018
 Hexadecapole moment (field-independent basis, Debye-Ang**3):
 XXXX=          -9835.5329 YYYY=          -9715.4912 ZZZZ=          -1015.6222 XXXY=             62.9612
 XXXZ=            -24.3221 YYYX=           -109.0363 YYYZ=             28.2139 ZZZX=            -63.7405
 ZZZY=             17.7486 XXYY=          -3070.9229 XXZZ=          -2157.9625 YYZZ=          -2137.5453
 XXYZ=            105.0164 YYXZ=             33.8960 ZZXY=             18.6854
 N-N= 5.045699553702D+03 E-N=-1.730838564002D+04  KE= 3.069926956871D+03
                          Isotropic Fermi Contact Couplings
        Atom                 a.u.       MegaHertz       Gauss      10(-4) cm-1
     1  Fe(57)             0.25997      37.70536      13.45421      12.57715
     2  N(14)             -0.04571     -14.76950      -5.27013      -4.92658
     3  N(14)             -0.04620     -14.92656      -5.32617      -4.97896
     4  N(14)             -0.03933     -12.70886      -4.53484      -4.23922
     5  N(14)             -0.04955     -16.01004      -5.71278      -5.34037
     6  C(13)              0.00693       7.79116       2.78008       2.59885
     7  C(13)             -0.00156      -1.75096      -0.62479      -0.58406
     8  C(13)              0.00177       1.98665       0.70889       0.66268
     9  C(13)              0.00694       7.79650       2.78198       2.60063
    10  C(13)              0.00608       6.83941       2.44047       2.28138
    11  C(13)              0.00135       1.52302       0.54345       0.50803
    12  C(13)             -0.00146      -1.64461      -0.58684      -0.54858
    13  C(13)              0.00533       5.99118       2.13780       1.99844
    14  C(13)              0.00605       6.79876       2.42597       2.26782
    15  C(13)             -0.00190      -2.13270      -0.76100      -0.71139
    16  C(13)              0.00189       2.12070       0.75672       0.70739
    17  C(13)              0.00568       6.38149       2.27707       2.12863
    18  C(13)              0.00746       8.38282       2.99120       2.79621
    19  C(13)              0.00213       2.39720       0.85538       0.79962
    20  C(13)             -0.00147      -1.65083      -0.58906      -0.55066
    21  C(13)              0.00605       6.80663       2.42877       2.27045
    22  C(13)             -0.01235     -13.88048      -4.95290      -4.63003
    23  H(1)               0.00146       6.52342       2.32772       2.17598
    24  C(13)             -0.01352     -15.19670      -5.42256      -5.06907
    25  H(1)               0.00161       7.21365       2.57401       2.40622
    26  C(13)             -0.01327     -14.92152      -5.32437      -4.97728
    27  H(1)               0.00156       6.98714       2.49319       2.33066
    28  C(13)             -0.01289     -14.48930      -5.17014      -4.83311
    29  H(1)               0.00151       6.76047       2.41231       2.25505
    30  C(13)             -0.00064      -0.71868      -0.25644      -0.23973
    31  H(1)              -0.00004      -0.19195      -0.06849      -0.06403
    32  H(1)               0.00052       2.32244       0.82871       0.77468
    33  H(1)               0.00051       2.29389       0.81852       0.76516
    34  C(13)             -0.00025      -0.27991      -0.09988      -0.09337
    35  H(1)               0.00006       0.27713       0.09889       0.09244
    36  H(1)               0.00004       0.16309       0.05820       0.05440
    37  H(1)              -0.00008      -0.35528      -0.12677      -0.11851
    38  C(13)             -0.00062      -0.69396      -0.24762      -0.23148
    39  H(1)               0.00062       2.79351       0.99679       0.93181
    40  H(1)               0.00027       1.21260       0.43269       0.40448
    41  H(1)               0.00003       0.11956       0.04266       0.03988
    42  C(13)             -0.00060      -0.67061      -0.23929      -0.22369
    43  H(1)               0.00008       0.34213       0.12208       0.11412
    44  C(13)              0.00040       0.45171       0.16118       0.15067
    45  H(1)              -0.00004      -0.18454      -0.06585      -0.06156
    46  H(1)              -0.00005      -0.23140      -0.08257      -0.07719
    47  C(13)             -0.00010      -0.10894      -0.03887      -0.03634
    48  H(1)               0.00010       0.45399       0.16199       0.15143
    49  H(1)               0.00005       0.21335       0.07613       0.07117
    50  H(1)              -0.00006      -0.27849      -0.09937      -0.09289
    51  C(13)             -0.00155      -1.73785      -0.62011      -0.57969
    52  H(1)               0.00027       1.19533       0.42652       0.39872
    53  C(13)              0.00194       2.18096       0.77822       0.72749
    54  H(1)              -0.00020      -0.88801      -0.31687      -0.29621
    55  H(1)              -0.00020      -0.87998      -0.31400      -0.29353
    56  C(13)             -0.00068      -0.76990      -0.27472      -0.25681
    57  H(1)               0.00060       2.66475       0.95085       0.88887
    58  H(1)               0.00051       2.25793       0.80568       0.75316
    59  H(1)              -0.00003      -0.13511      -0.04821      -0.04507
    60  C(13)             -0.00037      -0.41523      -0.14817      -0.13851
    61  H(1)               0.00012       0.52560       0.18755       0.17532
    62  H(1)              -0.00009      -0.39004      -0.13918      -0.13010
    63  H(1)               0.00008       0.36143       0.12897       0.12056
    64  C(13)              0.00241       2.70520       0.96528       0.90236
    65  H(1)               0.00006       0.27490       0.09809       0.09170
    66  H(1)              -0.00112      -5.02332      -1.79245      -1.67560
    67  H(1)              -0.00227     -10.16890      -3.62852      -3.39198
    68  S(33)             -0.03526     -12.10998      -4.32114      -4.03945
    69  H(1)               0.00125       5.58125       1.99153       1.86170
 --------------------------------------------------------
       Center         ----  Spin Dipole Couplings  ----
                      3XX-RR        3YY-RR        3ZZ-RR
 --------------------------------------------------------
     1   Atom       -0.821415     -0.917347      1.738762
     2   Atom        0.092069      0.068611     -0.160680
     3   Atom        0.059069      0.051403     -0.110472
     4   Atom        0.053115      0.041075     -0.094191
     5   Atom        0.098688      0.077864     -0.176552
     6   Atom       -0.020254     -0.014359      0.034613
     7   Atom       -0.003783      0.000343      0.003440
     8   Atom       -0.009342     -0.012389      0.021731
     9   Atom       -0.006477     -0.014410      0.020886
    10   Atom        0.000039     -0.013262      0.013222
    11   Atom       -0.006449     -0.011107      0.017556
    12   Atom       -0.004376     -0.000051      0.004427
    13   Atom       -0.016972     -0.014312      0.031284
    14   Atom       -0.019049     -0.010897      0.029946
    15   Atom       -0.003089      0.002326      0.000763
    16   Atom       -0.008970     -0.012083      0.021053
    17   Atom       -0.002636     -0.012458      0.015094
    18   Atom       -0.004117     -0.016533      0.020650
    19   Atom       -0.010107     -0.013498      0.023605
    20   Atom       -0.005181     -0.000714      0.005895
    21   Atom       -0.018538     -0.017509      0.036047
    22   Atom        0.036998      0.048583     -0.085581
    23   Atom        0.003487     -0.001685     -0.001802
    24   Atom        0.055225      0.042626     -0.097851
    25   Atom       -0.002811      0.004490     -0.001678
    26   Atom        0.042043      0.053523     -0.095566
    27   Atom        0.004099     -0.002404     -0.001695
    28   Atom        0.053113      0.040269     -0.093383
    29   Atom       -0.002255      0.004074     -0.001819
    30   Atom        0.001285     -0.000927     -0.000359
    31   Atom        0.000783     -0.000165     -0.000617
    32   Atom        0.001348     -0.000775     -0.000573
    33   Atom        0.001426     -0.000781     -0.000644
    34   Atom       -0.000423      0.001399     -0.000976
    35   Atom       -0.000699      0.001303     -0.000604
    36   Atom       -0.000661      0.001312     -0.000650
    37   Atom       -0.000332      0.000910     -0.000578
    38   Atom        0.001299     -0.001107     -0.000191
    39   Atom        0.001260     -0.000734     -0.000526
    40   Atom        0.001384     -0.000763     -0.000622
    41   Atom        0.000829     -0.000219     -0.000610
    42   Atom       -0.000367      0.001752     -0.001385
    43   Atom       -0.000683      0.001292     -0.000609
    44   Atom        0.000079     -0.000811      0.000733
    45   Atom        0.000191      0.000284     -0.000474
    46   Atom       -0.000255      0.000634     -0.000379
    47   Atom       -0.000695      0.001275     -0.000580
    48   Atom       -0.000590      0.001165     -0.000576
    49   Atom       -0.000710      0.001311     -0.000601
    50   Atom       -0.000226      0.000877     -0.000651
    51   Atom        0.004229     -0.001695     -0.002534
    52   Atom        0.001421     -0.000678     -0.000743
    53   Atom       -0.005564      0.003947      0.001617
    54   Atom       -0.000048      0.000355     -0.000307
    55   Atom        0.001322     -0.000556     -0.000766
    56   Atom        0.001498     -0.001064     -0.000434
    57   Atom        0.001539     -0.000830     -0.000709
    58   Atom        0.001473     -0.000840     -0.000634
    59   Atom        0.000941     -0.000267     -0.000674
    60   Atom       -0.000447      0.001322     -0.000875
    61   Atom       -0.000669      0.001311     -0.000642
    62   Atom       -0.000278      0.000908     -0.000629
    63   Atom       -0.000674      0.001366     -0.000693
    64   Atom        0.005903     -0.004387     -0.001516
    65   Atom       -0.001546     -0.001863      0.003409
    66   Atom        0.000984     -0.003949      0.002965
    67   Atom       -0.001701     -0.001667      0.003368
    68   Atom        0.224065      0.287825     -0.511890
    69   Atom       -0.003700     -0.006637      0.010336
 --------------------------------------------------------
                        XY            XZ            YZ
 --------------------------------------------------------
     1   Atom       -0.051642      0.039900     -0.315178
     2   Atom       -0.003158     -0.039042     -0.079079
     3   Atom        0.003679     -0.022669      0.035198
     4   Atom       -0.006597      0.030700      0.053163
     5   Atom       -0.004408      0.018375     -0.066063
     6   Atom        0.010906     -0.001875      0.005324
     7   Atom        0.001073      0.000783      0.001101
     8   Atom        0.001685     -0.000893      0.003441
     9   Atom        0.010213     -0.001241      0.003185
    10   Atom       -0.009780     -0.006739      0.001472
    11   Atom       -0.002075     -0.004058      0.001653
    12   Atom       -0.001507     -0.001473      0.000932
    13   Atom       -0.010317     -0.002448      0.000441
    14   Atom        0.009894     -0.003268     -0.008167
    15   Atom        0.001266      0.000242     -0.000448
    16   Atom        0.002592     -0.000455     -0.004563
    17   Atom        0.010302      0.002678     -0.002726
    18   Atom       -0.010328      0.002089      0.000953
    19   Atom       -0.001686      0.002964      0.002343
    20   Atom       -0.000923      0.000177      0.001198
    21   Atom       -0.010672      0.006250      0.003090
    22   Atom       -0.000764     -0.005057     -0.013247
    23   Atom        0.000198     -0.000244     -0.000395
    24   Atom        0.000548      0.003607     -0.009563
    25   Atom       -0.000453     -0.000307     -0.000445
    26   Atom       -0.000822      0.004263      0.008974
    27   Atom        0.000169      0.000205      0.000145
    28   Atom        0.000379     -0.001564      0.001025
    29   Atom        0.000013      0.000254      0.000103
    30   Atom        0.000793      0.000207      0.000157
    31   Atom        0.001025     -0.000043     -0.000024
    32   Atom        0.000451      0.000365     -0.000055
    33   Atom        0.000310     -0.000341      0.000067
    34   Atom        0.000552      0.000099      0.000186
    35   Atom        0.000389     -0.000091     -0.000411
    36   Atom        0.000426     -0.000000      0.000062
    37   Atom        0.000813     -0.000083     -0.000105
    38   Atom       -0.000556      0.000110     -0.000089
    39   Atom       -0.000424     -0.000285     -0.000010
    40   Atom       -0.000076      0.000292      0.000113
    41   Atom       -0.000915      0.000236     -0.000078
    42   Atom       -0.000830     -0.000874     -0.000138
    43   Atom       -0.000335     -0.000034     -0.000078
    44   Atom       -0.000667      0.002246     -0.000207
    45   Atom       -0.000606     -0.000176      0.000131
    46   Atom       -0.000406      0.000067      0.000032
    47   Atom        0.000449     -0.000067     -0.000052
    48   Atom        0.000460      0.000045      0.000446
    49   Atom        0.000165      0.000035     -0.000043
    50   Atom        0.000717      0.000105     -0.000021
    51   Atom        0.001712     -0.000177      0.004457
    52   Atom        0.000546      0.000042      0.000099
    53   Atom        0.000671      0.000099     -0.009476
    54   Atom        0.000232     -0.000134      0.000525
    55   Atom        0.000516      0.000101     -0.000336
    56   Atom       -0.000723     -0.000282      0.000177
    57   Atom       -0.000262      0.000310      0.000069
    58   Atom       -0.000350     -0.000497     -0.000073
    59   Atom       -0.001032     -0.000094      0.000044
    60   Atom       -0.000558     -0.000179      0.000252
    61   Atom       -0.000501      0.000108     -0.000381
    62   Atom       -0.000919      0.000053     -0.000002
    63   Atom       -0.000499      0.000001      0.000127
    64   Atom        0.002167     -0.008010     -0.000125
    65   Atom        0.001154     -0.003910     -0.003297
    66   Atom       -0.000279     -0.008116      0.000182
    67   Atom       -0.000273     -0.001597     -0.000333
    68   Atom       -0.033490     -0.224511     -0.039646
    69   Atom        0.000156     -0.001943      0.010022
 --------------------------------------------------------


 ---------------------------------------------------------------------------------
              Anisotropic Spin Dipole Couplings in Principal Axis System
 ---------------------------------------------------------------------------------

       Atom             a.u.   MegaHertz   Gauss  10(-4) cm-1        Axes

              Baa    -0.9691   -16.777    -5.986    -5.596  0.3027  0.9472  0.1058
     1 Fe(57) Bbb    -0.8074   -13.978    -4.988    -4.663  0.9529 -0.2988 -0.0519
              Bcc     1.7765    30.755    10.974    10.259  0.0176 -0.1165  0.9930
 
              Baa    -0.1905    -7.346    -2.621    -2.451  0.1342  0.2908  0.9473
     2 N(14)  Bbb     0.0865     3.336     1.190     1.113 -0.6151  0.7739 -0.1504
              Bcc     0.1040     4.011     1.431     1.338  0.7769  0.5626 -0.2827
 
              Baa    -0.1207    -4.656    -1.661    -1.553  0.1266 -0.2013  0.9713
     3 N(14)  Bbb     0.0584     2.254     0.804     0.752  0.2701  0.9492  0.1615
              Bcc     0.0623     2.402     0.857     0.801  0.9545 -0.2419 -0.1745
 
              Baa    -0.1183    -4.561    -1.627    -1.521 -0.1790 -0.3181  0.9310
     4 N(14)  Bbb     0.0554     2.135     0.762     0.712  0.7263 -0.6810 -0.0930
              Bcc     0.0629     2.425     0.865     0.809  0.6636  0.6596  0.3529
 
              Baa    -0.1937    -7.469    -2.665    -2.491 -0.0574  0.2351  0.9703
     5 N(14)  Bbb     0.0877     3.384     1.208     1.129  0.5856  0.7950 -0.1580
              Bcc     0.1059     4.084     1.457     1.362  0.8085 -0.5592  0.1834
 
              Baa    -0.0290    -3.886    -1.387    -1.296  0.7857 -0.6141  0.0746
     6 C(13)  Bbb    -0.0062    -0.837    -0.299    -0.279  0.6185  0.7823 -0.0736
              Bcc     0.0352     4.723     1.685     1.575 -0.0132  0.1040  0.9945
 
              Baa    -0.0041    -0.547    -0.195    -0.183  0.9733 -0.2188 -0.0693
     7 C(13)  Bbb     0.0001     0.018     0.007     0.006  0.1818  0.9192 -0.3494
              Bcc     0.0039     0.529     0.189     0.176  0.1402  0.3274  0.9344
 
              Baa    -0.0135    -1.810    -0.646    -0.604 -0.3929  0.9142 -0.0993
     8 C(13)  Bbb    -0.0086    -1.155    -0.412    -0.385  0.9193  0.3932 -0.0176
              Bcc     0.0221     2.964     1.058     0.989 -0.0230  0.0982  0.9949
 
              Baa    -0.0217    -2.907    -1.037    -0.970 -0.5608  0.8243 -0.0781
     9 C(13)  Bbb     0.0005     0.065     0.023     0.022  0.8278  0.5597 -0.0370
              Bcc     0.0212     2.842     1.014     0.948 -0.0132  0.0854  0.9963
 
              Baa    -0.0186    -2.490    -0.888    -0.830  0.4821  0.8739  0.0618
    10 C(13)  Bbb     0.0015     0.202     0.072     0.067  0.7496 -0.4480  0.4873
              Bcc     0.0171     2.288     0.816     0.763 -0.4535  0.1886  0.8711
 
              Baa    -0.0119    -1.597    -0.570    -0.533  0.3534  0.9355 -0.0038
    11 C(13)  Bbb    -0.0065    -0.867    -0.309    -0.289  0.9205 -0.3470  0.1794
              Bcc     0.0184     2.463     0.879     0.822 -0.1665  0.0669  0.9838
 
              Baa    -0.0050    -0.669    -0.239    -0.223  0.9554  0.2684  0.1229
    12 C(13)  Bbb     0.0000     0.006     0.002     0.002 -0.2271  0.9343 -0.2749
              Bcc     0.0049     0.664     0.237     0.221 -0.1886  0.2348  0.9536
 
              Baa    -0.0261    -3.501    -1.249    -1.168  0.7523  0.6582  0.0271
    13 C(13)  Bbb    -0.0053    -0.717    -0.256    -0.239 -0.6565  0.7525 -0.0529
              Bcc     0.0314     4.217     1.505     1.407 -0.0552  0.0221  0.9982
 
              Baa    -0.0257    -3.454    -1.232    -1.152  0.8225 -0.5676 -0.0350
    14 C(13)  Bbb    -0.0063    -0.846    -0.302    -0.282  0.5594  0.7964  0.2299
              Bcc     0.0320     4.300     1.534     1.434 -0.1026 -0.2086  0.9726
 
              Baa    -0.0034    -0.456    -0.163    -0.152  0.9719 -0.2213 -0.0803
    15 C(13)  Bbb     0.0007     0.096     0.034     0.032  0.1209  0.1765  0.9768
              Bcc     0.0027     0.360     0.129     0.120  0.2020  0.9591 -0.1983
 
              Baa    -0.0140    -1.874    -0.669    -0.625 -0.4500  0.8863  0.1096
    16 C(13)  Bbb    -0.0077    -1.037    -0.370    -0.346  0.8926  0.4428  0.0843
              Bcc     0.0217     2.911     1.039     0.971 -0.0262 -0.1358  0.9904
 
              Baa    -0.0194    -2.599    -0.927    -0.867 -0.5338  0.8387  0.1078
    17 C(13)  Bbb     0.0038     0.511     0.182     0.171  0.8377  0.5419 -0.0679
              Bcc     0.0156     2.087     0.745     0.696  0.1154 -0.0541  0.9918
 
              Baa    -0.0225    -3.013    -1.075    -1.005  0.4940  0.8684 -0.0431
    18 C(13)  Bbb     0.0016     0.219     0.078     0.073  0.8656 -0.4959 -0.0702
              Bcc     0.0208     2.795     0.997     0.932  0.0823  0.0027  0.9966
 
              Baa    -0.0145    -1.944    -0.694    -0.648  0.4092  0.9082 -0.0877
    19 C(13)  Bbb    -0.0095    -1.276    -0.455    -0.426  0.9086 -0.4144 -0.0520
              Bcc     0.0240     3.219     1.149     1.074  0.0836  0.0584  0.9948
 
              Baa    -0.0054    -0.722    -0.258    -0.241  0.9785  0.2031 -0.0370
    20 C(13)  Bbb    -0.0007    -0.097    -0.035    -0.032 -0.2065  0.9638 -0.1689
              Bcc     0.0061     0.819     0.292     0.273  0.0013  0.1729  0.9849
 
              Baa    -0.0294    -3.944    -1.407    -1.315  0.7268  0.6794 -0.1015
    21 C(13)  Bbb    -0.0074    -0.997    -0.356    -0.333 -0.6788  0.7329  0.0455
              Bcc     0.0368     4.941     1.763     1.648  0.1053  0.0358  0.9938
 
              Baa    -0.0871   -11.686    -4.170    -3.898  0.0411  0.0973  0.9944
    22 C(13)  Bbb     0.0372     4.992     1.781     1.665  0.9989  0.0170 -0.0430
              Bcc     0.0499     6.694     2.389     2.233 -0.0211  0.9951 -0.0965
 
              Baa    -0.0021    -1.144    -0.408    -0.381  0.0101  0.6500  0.7599
    23 H(1)   Bbb    -0.0014    -0.728    -0.260    -0.243 -0.0636  0.7588 -0.6482
              Bcc     0.0035     1.871     0.668     0.624  0.9979  0.0417 -0.0490
 
              Baa    -0.0986   -13.229    -4.720    -4.413 -0.0236  0.0676  0.9974
    24 C(13)  Bbb     0.0433     5.806     2.072     1.937 -0.0251  0.9974 -0.0682
              Bcc     0.0553     7.423     2.649     2.476  0.9994  0.0266  0.0219
 
              Baa    -0.0029    -1.563    -0.558    -0.522  0.9621  0.0745  0.2624
    25 H(1)   Bbb    -0.0016    -0.863    -0.308    -0.288 -0.2664  0.0504  0.9625
              Bcc     0.0045     2.426     0.866     0.809 -0.0585  0.9959 -0.0683
 
              Baa    -0.0962   -12.914    -4.608    -4.308 -0.0311 -0.0600  0.9977
    26 C(13)  Bbb     0.0421     5.656     2.018     1.887  0.9984  0.0454  0.0339
              Bcc     0.0541     7.258     2.590     2.421 -0.0473  0.9972  0.0584
 
              Baa    -0.0024    -1.299    -0.464    -0.433 -0.0195  0.9821 -0.1876
    27 H(1)   Bbb    -0.0017    -0.894    -0.319    -0.298 -0.0404  0.1867  0.9816
              Bcc     0.0041     2.193     0.783     0.732  0.9990  0.0267  0.0360
 
              Baa    -0.0934   -12.534    -4.473    -4.181  0.0107 -0.0077  0.9999
    28 C(13)  Bbb     0.0403     5.403     1.928     1.802 -0.0285  0.9996  0.0080
              Bcc     0.0531     7.131     2.544     2.379  0.9995  0.0286 -0.0105
 
              Baa    -0.0024    -1.266    -0.452    -0.422  0.9084  0.0049 -0.4180
    29 H(1)   Bbb    -0.0017    -0.909    -0.324    -0.303  0.4180 -0.0171  0.9083
              Bcc     0.0041     2.175     0.776     0.725  0.0027  0.9998  0.0176
 
              Baa    -0.0012    -0.160    -0.057    -0.053 -0.2952  0.9496 -0.1053
    30 C(13)  Bbb    -0.0004    -0.051    -0.018    -0.017 -0.1520  0.0621  0.9864
              Bcc     0.0016     0.211     0.075     0.070  0.9433  0.3072  0.1260
 
              Baa    -0.0008    -0.438    -0.156    -0.146 -0.5388  0.8423 -0.0145
    31 H(1)   Bbb    -0.0006    -0.330    -0.118    -0.110  0.0122  0.0250  0.9996
              Bcc     0.0014     0.768     0.274     0.256  0.8423  0.5384 -0.0238
 
              Baa    -0.0009    -0.492    -0.175    -0.164 -0.2396  0.8885  0.3912
    32 H(1)   Bbb    -0.0006    -0.308    -0.110    -0.103 -0.0736 -0.4184  0.9053
              Bcc     0.0015     0.799     0.285     0.267  0.9681  0.1881  0.1657
 
              Baa    -0.0009    -0.474    -0.169    -0.158 -0.1864  0.8497 -0.4932
    33 H(1)   Bbb    -0.0006    -0.336    -0.120    -0.112  0.0648  0.5115  0.8568
              Bcc     0.0015     0.810     0.289     0.270  0.9803  0.1278 -0.1504
 
              Baa    -0.0010    -0.134    -0.048    -0.045 -0.1245 -0.0483  0.9910
    34 C(13)  Bbb    -0.0006    -0.077    -0.027    -0.026  0.9548 -0.2776  0.1065
              Bcc     0.0016     0.211     0.075     0.070  0.2700  0.9595  0.0807
 
              Baa    -0.0008    -0.413    -0.147    -0.138  0.9761 -0.1519  0.1555
    35 H(1)   Bbb    -0.0007    -0.367    -0.131    -0.122 -0.1194  0.2231  0.9675
              Bcc     0.0015     0.780     0.278     0.260  0.1816  0.9629 -0.1996
 
              Baa    -0.0008    -0.401    -0.143    -0.134  0.9701 -0.2042  0.1315
    36 H(1)   Bbb    -0.0007    -0.347    -0.124    -0.116 -0.1348 -0.0022  0.9909
              Bcc     0.0014     0.748     0.267     0.249  0.2020  0.9789  0.0297
 
              Baa    -0.0007    -0.394    -0.141    -0.132  0.8871 -0.4261  0.1776
    37 H(1)   Bbb    -0.0006    -0.310    -0.111    -0.104 -0.1295  0.1395  0.9817
              Bcc     0.0013     0.705     0.251     0.235  0.4431  0.8939 -0.0686
 
              Baa    -0.0012    -0.166    -0.059    -0.055  0.2116  0.9755  0.0609
    38 C(13)  Bbb    -0.0002    -0.026    -0.009    -0.009 -0.0888 -0.0429  0.9951
              Bcc     0.0014     0.192     0.069     0.064  0.9733 -0.2160  0.0776
 
              Baa    -0.0008    -0.446    -0.159    -0.149  0.2234  0.9460  0.2347
    39 H(1)   Bbb    -0.0006    -0.294    -0.105    -0.098  0.0907 -0.2599  0.9614
              Bcc     0.0014     0.740     0.264     0.247  0.9705 -0.1935 -0.1438
 
              Baa    -0.0008    -0.452    -0.161    -0.151  0.1002  0.8302 -0.5484
    40 H(1)   Bbb    -0.0006    -0.310    -0.111    -0.103 -0.1010  0.5568  0.8245
              Bcc     0.0014     0.762     0.272     0.254  0.9898 -0.0272  0.1397
 
              Baa    -0.0008    -0.410    -0.146    -0.137  0.5030  0.7865 -0.3584
    41 H(1)   Bbb    -0.0006    -0.331    -0.118    -0.110  0.0825  0.3691  0.9257
              Bcc     0.0014     0.741     0.264     0.247  0.8603 -0.4952  0.1208
 
              Baa    -0.0020    -0.264    -0.094    -0.088  0.5325  0.1497  0.8331
    42 C(13)  Bbb    -0.0001    -0.010    -0.004    -0.003  0.7748  0.3100 -0.5510
              Bcc     0.0020     0.275     0.098     0.092 -0.3408  0.9389  0.0491
 
              Baa    -0.0008    -0.402    -0.144    -0.134  0.9361  0.1652  0.3105
    43 H(1)   Bbb    -0.0006    -0.318    -0.113    -0.106 -0.3123 -0.0159  0.9499
              Bcc     0.0013     0.720     0.257     0.240 -0.1619  0.9861 -0.0367
 
              Baa    -0.0020    -0.267    -0.095    -0.089  0.7430  0.3176 -0.5892
    44 C(13)  Bbb    -0.0008    -0.106    -0.038    -0.035 -0.1372  0.9338  0.3304
              Bcc     0.0028     0.372     0.133     0.124  0.6551 -0.1646  0.7374
 
              Baa    -0.0005    -0.277    -0.099    -0.092  0.2920  0.0653  0.9542
    45 H(1)   Bbb    -0.0004    -0.192    -0.069    -0.064  0.6779  0.6897 -0.2546
              Bcc     0.0009     0.469     0.167     0.157 -0.6747  0.7212  0.1572
 
              Baa    -0.0005    -0.252    -0.090    -0.084  0.7274  0.2851 -0.6242
    46 H(1)   Bbb    -0.0003    -0.171    -0.061    -0.057  0.5833  0.2221  0.7813
              Bcc     0.0008     0.422     0.151     0.141 -0.3614  0.9324  0.0047
 
              Baa    -0.0008    -0.108    -0.039    -0.036  0.9513 -0.1994  0.2350
    47 C(13)  Bbb    -0.0006    -0.076    -0.027    -0.025 -0.2229  0.0814  0.9714
              Bcc     0.0014     0.185     0.066     0.062  0.2128  0.9765 -0.0330
 
              Baa    -0.0008    -0.401    -0.143    -0.134  0.7235 -0.3163  0.6135
    48 H(1)   Bbb    -0.0006    -0.335    -0.119    -0.112 -0.6520 -0.0215  0.7579
              Bcc     0.0014     0.736     0.263     0.246  0.2266  0.9484  0.2218
 
              Baa    -0.0007    -0.392    -0.140    -0.131  0.9569 -0.0831 -0.2782
    49 H(1)   Bbb    -0.0006    -0.315    -0.112    -0.105  0.2790 -0.0027  0.9603
              Bcc     0.0013     0.707     0.252     0.236  0.0805  0.9965 -0.0206
 
              Baa    -0.0007    -0.387    -0.138    -0.129 -0.5231  0.2447  0.8164
    50 H(1)   Bbb    -0.0005    -0.270    -0.096    -0.090  0.7284 -0.3689  0.5773
              Bcc     0.0012     0.656     0.234     0.219  0.4425  0.8967  0.0147
 
              Baa    -0.0067    -0.905    -0.323    -0.302  0.1177 -0.6794  0.7243
    51 C(13)  Bbb     0.0019     0.248     0.089     0.083 -0.4065  0.6325  0.6593
              Bcc     0.0049     0.657     0.234     0.219  0.9061  0.3720  0.2017
 
              Baa    -0.0009    -0.464    -0.166    -0.155 -0.1815  0.8053 -0.5644
    52 H(1)   Bbb    -0.0007    -0.366    -0.131    -0.122 -0.1572  0.5428  0.8250
              Bcc     0.0016     0.830     0.296     0.277  0.9707  0.2385  0.0281
 
              Baa    -0.0070    -0.934    -0.333    -0.311 -0.3506  0.6264  0.6962
    53 C(13)  Bbb    -0.0054    -0.722    -0.258    -0.241  0.9362  0.2151  0.2780
              Bcc     0.0123     1.656     0.591     0.552  0.0244  0.7492 -0.6619
 
              Baa    -0.0007    -0.364    -0.130    -0.121  0.3472 -0.4843  0.8031
    54 H(1)   Bbb     0.0000     0.004     0.002     0.001  0.9163 -0.0070 -0.4004
              Bcc     0.0007     0.359     0.128     0.120  0.1995  0.8749  0.4414
 
              Baa    -0.0011    -0.576    -0.206    -0.192 -0.1699  0.6449  0.7452
    55 H(1)   Bbb    -0.0004    -0.200    -0.071    -0.067 -0.1801  0.7231 -0.6668
              Bcc     0.0015     0.776     0.277     0.259  0.9689  0.2475  0.0067
 
              Baa    -0.0013    -0.170    -0.061    -0.057  0.2394  0.9630 -0.1239
    56 C(13)  Bbb    -0.0005    -0.063    -0.022    -0.021  0.1714  0.0837  0.9816
              Bcc     0.0017     0.233     0.083     0.078  0.9557 -0.2562 -0.1450
 
              Baa    -0.0009    -0.490    -0.175    -0.163  0.1543  0.8490 -0.5054
    57 H(1)   Bbb    -0.0007    -0.367    -0.131    -0.122 -0.0580  0.5184  0.8531
              Bcc     0.0016     0.857     0.306     0.286  0.9863 -0.1024  0.1292
 
              Baa    -0.0010    -0.521    -0.186    -0.174  0.2212  0.8371  0.5003
    58 H(1)   Bbb    -0.0007    -0.348    -0.124    -0.116  0.1092 -0.5311  0.8403
              Bcc     0.0016     0.868     0.310     0.290  0.9691 -0.1313 -0.2089
 
              Baa    -0.0009    -0.458    -0.164    -0.153  0.4985  0.8656  0.0467
    59 H(1)   Bbb    -0.0007    -0.362    -0.129    -0.121  0.0175 -0.0639  0.9978
              Bcc     0.0015     0.820     0.293     0.274  0.8667 -0.4966 -0.0470
 
              Baa    -0.0009    -0.126    -0.045    -0.042  0.3122 -0.0286  0.9496
    60 C(13)  Bbb    -0.0006    -0.077    -0.028    -0.026  0.9075  0.3047 -0.2892
              Bcc     0.0015     0.204     0.073     0.068 -0.2811  0.9520  0.1211
 
              Baa    -0.0008    -0.422    -0.151    -0.141  0.9600  0.1919 -0.2040
    61 H(1)   Bbb    -0.0007    -0.380    -0.136    -0.127  0.1603  0.2208  0.9621
              Bcc     0.0015     0.802     0.286     0.268 -0.2296  0.9563 -0.1812
 
              Baa    -0.0008    -0.423    -0.151    -0.141  0.8466  0.4575 -0.2718
    62 H(1)   Bbb    -0.0006    -0.329    -0.117    -0.110  0.2325  0.1414  0.9623
              Bcc     0.0014     0.752     0.268     0.251 -0.4787  0.8779 -0.0133
 
              Baa    -0.0008    -0.426    -0.152    -0.142  0.9295  0.2312 -0.2874
    63 H(1)   Bbb    -0.0007    -0.368    -0.131    -0.123  0.2928  0.0118  0.9561
              Bcc     0.0015     0.794     0.283     0.265 -0.2244  0.9728  0.0567
 
              Baa    -0.0071    -0.951    -0.339    -0.317  0.5296 -0.3905  0.7530
    64 C(13)  Bbb    -0.0042    -0.559    -0.200    -0.187  0.1155  0.9127  0.3920
              Bcc     0.0113     1.510     0.539     0.504  0.8404  0.1207 -0.5284
 
              Baa    -0.0040    -2.160    -0.771    -0.721  0.6477  0.5108  0.5653
    65 H(1)   Bbb    -0.0029    -1.530    -0.546    -0.510 -0.6283  0.7778  0.0171
              Bcc     0.0069     3.691     1.317     1.231 -0.4310 -0.3663  0.8247
 
              Baa    -0.0062    -3.311    -1.181    -1.104  0.7486  0.0392  0.6618
    66 H(1)   Bbb    -0.0040    -2.109    -0.753    -0.703 -0.0142  0.9990 -0.0430
              Bcc     0.0102     5.420     1.934     1.808 -0.6628  0.0228  0.7484
 
              Baa    -0.0023    -1.254    -0.447    -0.418  0.8443  0.4668  0.2631
    67 H(1)   Bbb    -0.0015    -0.795    -0.284    -0.265 -0.4601  0.8832 -0.0907
              Bcc     0.0038     2.049     0.731     0.683 -0.2747 -0.0445  0.9605
 
              Baa    -0.5776   -23.679    -8.449    -7.898  0.2714  0.0545  0.9609
    68 S(33)  Bbb     0.2672    10.956     3.909     3.655  0.6957  0.6788 -0.2350
              Bcc     0.3103    12.723     4.540     4.244 -0.6651  0.7323  0.1463
 
              Baa    -0.0114    -6.084    -2.171    -2.030 -0.1252  0.8967 -0.4246
    69 H(1)   Bbb    -0.0037    -1.991    -0.710    -0.664  0.9881  0.1515  0.0286
              Bcc     0.0151     8.075     2.882     2.694 -0.0899  0.4159  0.9050
 

 ---------------------------------------------------------------------------------

 Unable to Open any file for archive entry.
 1\1\GINC-BGN1007\SP\UAPFD\Gen\C31H32Fe1N4S1(1+,2)\BECSLEIP\29-Oct-2024
 \0\\# apfd/gen scf=maxcycle=999 geom=check\\6a7j_III_D\\1,2\Fe,0,-8.14
 01548571,-8.1454602008,-5.9675814185\N,0,-9.6882757597,-9.0530336851,-
 6.8297894173\N,0,-8.7659204303,-6.4140852476,-6.8273147587\N,0,-6.4916
 121244,-7.1705309953,-5.3501477391\N,0,-7.4148292371,-9.8339697213,-5.
 3105210722\C,0,-10.0117682384,-10.3653208238,-6.6540796826\C,0,-11.227
 0122214,-10.6928267193,-7.365017056\C,0,-11.6495220748,-9.540747703,-7
 .9514798173\C,0,-10.677575193,-8.5302170109,-7.6045554869\C,0,-9.84401
 0454,-6.2335647047,-7.646911998\C,0,-9.9703886573,-4.856375018,-8.0450
 082138\C,0,-8.9440512527,-4.1856480944,-7.4370468216\C,0,-8.2060235524
 ,-5.1798179038,-6.6857561614\C,0,-6.3010984455,-5.8221035423,-5.288404
 9185\C,0,-5.1718935179,-5.4920932372,-4.4604372166\C,0,-4.6479670268,-
 6.6846014361,-4.0373978534\C,0,-5.4890608005,-7.7163354534,-4.60722988
 69\C,0,-6.2175551715,-10.0531470422,-4.7043062015\C,0,-6.0516551876,-1
 1.4545149227,-4.3882029985\C,0,-7.1745046442,-12.0806875875,-4.8291446
 246\C,0,-8.0141531934,-11.0528589843,-5.4049945406\C,0,-9.2453270495,-
 11.2974805768,-5.9796294492\H,0,-9.6151900263,-12.3105262541,-5.946915
 2653\C,0,-10.7439557559,-7.2165433957,-8.0171046608\H,0,-11.5683901219
 ,-6.9299552078,-8.6506469427\C,0,-7.0759155824,-4.8889403719,-5.949372
 8633\H,0,-6.7905890278,-3.8521257596,-5.8647695912\C,0,-5.3239618604,-
 9.0642221867,-4.3472586979\H,0,-4.4489734435,-9.3622932459,-3.79097128
 82\C,0,-12.8429310073,-9.2949641297,-8.8081674795\H,0,-13.4329605999,-
 10.2012399232,-8.9176715071\H,0,-12.5388942683,-8.9620480448,-9.800742
 0369\H,0,-13.4766318603,-8.5226934014,-8.3714733464\C,0,-11.8435682739
 ,-12.0482885542,-7.3950955303\H,0,-12.0622542643,-12.3935101411,-6.384
 510051\H,0,-11.1658442102,-12.7653916565,-7.8584575282\H,0,-12.7704919
 919,-12.0383408771,-7.9628527841\C,0,-10.9884026128,-4.3307690476,-8.9
 947555985\H,0,-11.9387888023,-4.1519348325,-8.4888036002\H,0,-11.16353
 81208,-5.0394488556,-9.8026112949\H,0,-10.6460761027,-3.3914134777,-9.
 4236656001\C,0,-8.5952993823,-2.7833705146,-7.5170572464\H,0,-7.535114
 2923,-2.5612958767,-7.4923595246\C,0,-9.463434183,-1.782352106,-7.6129
 464054\H,0,-10.5274937343,-1.9426074862,-7.5965806705\H,0,-9.136214331
 2,-0.7586210098,-7.684766738\C,0,-4.6614858361,-4.1163705278,-4.213828
 5217\H,0,-5.2405999913,-3.6211845477,-3.4327513139\H,0,-4.7285261629,-
 3.5116256366,-5.1168360287\H,0,-3.6210979114,-4.1562383503,-3.89833552
 06\C,0,-3.4900504849,-6.9297182811,-3.2053575323\H,0,-2.9140897429,-7.
 8135512063,-3.4533050817\C,0,-3.1026515361,-6.1695727249,-2.1870991598
 \H,0,-3.66512375,-5.3091910987,-1.8687447521\H,0,-2.2198168297,-6.4015
 22165,-1.6151669255\C,0,-4.8493671492,-12.0233734432,-3.7186954023\H,0
 ,-4.7359803855,-11.6034310906,-2.7189529606\H,0,-3.9491903384,-11.7915
 228794,-4.2875973523\H,0,-4.9309845168,-13.1036031871,-3.6294541113\C,
 0,-7.5387292954,-13.5235909189,-4.7683469954\H,0,-8.4500975492,-13.663
 7775893,-4.1867445074\H,0,-6.7442952824,-14.1028697774,-4.3050207245\H
 ,0,-7.7118215838,-13.9168891228,-5.7700906456\C,0,-11.0220066085,-7.49
 55058324,-4.3249936375\H,0,-11.4154310765,-8.5006867741,-4.4338189926\
 H,0,-11.1605628091,-6.9435283399,-5.2484652609\H,0,-11.4984748783,-6.9
 951364629,-3.4880228017\S,0,-9.2339477493,-7.6725180273,-3.9769927806\
 H,0,-9.0023955871,-6.3542750494,-3.8998654062\\Version=ES64L-G16RevC.0
 2\State=2-A\HF=-3080.0380323\S2=1.314291\S2-1=0.\S2A=0.786986\RMSD=3.1
 20e-09\Dipole=-1.1575526,0.014776,0.8170071\Quadrupole=5.6852312,15.26
 21181,-20.9473493,1.3734401,20.6111231,-3.1426236\PG=C01 [X(C31H32Fe1N
 4S1)]\\@
 The archive entry for this job was punched.


 "ANNA, YOU MUSN'T SPEAK OF OXIDIZED MURIATIC ACID
 ANYMORE, FROM NOW ON YOU MUST SAY CHLORINE."
   -- JENS JACOB BERZELIUS, IN 1820, TO HIS COOK, WHO HAD
 COMPLAINED OF THE SMELL OF THE FLASK SHE WAS CLEANING.
 Job cpu time:       0 days  3 hours 24 minutes 23.1 seconds.
 Elapsed time:       0 days  0 hours  3 minutes 29.1 seconds.
 File lengths (MBytes):  RWF=    343 Int=      0 D2E=      0 Chk=    150 Scr=      1
 Normal termination of Gaussian 16 at Tue Oct 29 19:51:43 2024.
