 Entering Gaussian System, Link 0=g16
 Input=6bdd05re.com
 Output=6bdd05re.log
 Initial command:
 /sw/chem/gaussian/g16_C02/a100/g16/l1.exe "/local/becsleip_8070626/Gau-1029089.inp" -scrdir="/local/becsleip_8070626/"
 Entering Link 1 = /sw/chem/gaussian/g16_C02/a100/g16/l1.exe PID=   1029090.
  
 Copyright (c) 1988-2021, Gaussian, Inc.  All Rights Reserved.
  
 This is part of the Gaussian(R) 16 program.  It is based on
 the Gaussian(R) 09 system (copyright 2009, Gaussian, Inc.),
 the Gaussian(R) 03 system (copyright 2003, Gaussian, Inc.),
 the Gaussian(R) 98 system (copyright 1998, Gaussian, Inc.),
 the Gaussian(R) 94 system (copyright 1995, Gaussian, Inc.),
 the Gaussian 92(TM) system (copyright 1992, Gaussian, Inc.),
 the Gaussian 90(TM) system (copyright 1990, Gaussian, Inc.),
 the Gaussian 88(TM) system (copyright 1988, Gaussian, Inc.),
 the Gaussian 86(TM) system (copyright 1986, Carnegie Mellon
 University), and the Gaussian 82(TM) system (copyright 1983,
 Carnegie Mellon University). Gaussian is a federally registered
 trademark of Gaussian, Inc.
  
 This software contains proprietary and confidential information,
 including trade secrets, belonging to Gaussian, Inc.
  
 This software is provided under written license and may be
 used, copied, transmitted, or stored only in accord with that
 written license.
  
 The following legend is applicable only to US Government
 contracts under FAR:
  
                    RESTRICTED RIGHTS LEGEND
  
 Use, reproduction and disclosure by the US Government is
 subject to restrictions as set forth in subparagraphs (a)
 and (c) of the Commercial Computer Software - Restricted
 Rights clause in FAR 52.227-19.
  
 Gaussian, Inc.
 340 Quinnipiac St., Bldg. 40, Wallingford CT 06492
  
  
 ---------------------------------------------------------------
 Warning -- This program may not be used in any manner that
 competes with the business of Gaussian, Inc. or will provide
 assistance to any competitor of Gaussian, Inc.  The licensee
 of this program is prohibited from giving any competitor of
 Gaussian, Inc. access to this program.  By using this program,
 the user acknowledges that Gaussian, Inc. is engaged in the
 business of creating and licensing software in the field of
 computational chemistry and represents and warrants to the
 licensee that it is not a competitor of Gaussian, Inc. and that
 it will not use this program in any manner prohibited above.
 ---------------------------------------------------------------
  

 Cite this work as:
 Gaussian 16, Revision C.02,
 M. J. Frisch, G. W. Trucks, H. B. Schlegel, G. E. Scuseria, 
 M. A. Robb, J. R. Cheeseman, G. Scalmani, V. Barone, 
 G. A. Petersson, H. Nakatsuji, X. Li, M. Caricato, A. V. Marenich, 
 J. Bloino, B. G. Janesko, R. Gomperts, B. Mennucci, H. P. Hratchian, 
 J. V. Ortiz, A. F. Izmaylov, J. L. Sonnenberg, D. Williams-Young, 
 F. Ding, F. Lipparini, F. Egidi, J. Goings, B. Peng, A. Petrone, 
 T. Henderson, D. Ranasinghe, V. G. Zakrzewski, J. Gao, N. Rega, 
 G. Zheng, W. Liang, M. Hada, M. Ehara, K. Toyota, R. Fukuda, 
 J. Hasegawa, M. Ishida, T. Nakajima, Y. Honda, O. Kitao, H. Nakai, 
 T. Vreven, K. Throssell, J. A. Montgomery, Jr., J. E. Peralta, 
 F. Ogliaro, M. J. Bearpark, J. J. Heyd, E. N. Brothers, K. N. Kudin, 
 V. N. Staroverov, T. A. Keith, R. Kobayashi, J. Normand, 
 K. Raghavachari, A. P. Rendell, J. C. Burant, S. S. Iyengar, 
 J. Tomasi, M. Cossi, J. M. Millam, M. Klene, C. Adamo, R. Cammi, 
 J. W. Ochterski, R. L. Martin, K. Morokuma, O. Farkas, 
 J. B. Foresman, and D. J. Fox, Gaussian, Inc., Wallingford CT, 2019.
 
 ******************************************
 Gaussian 16:  ES64L-G16RevC.02  7-Dec-2021
                 6-Nov-2024 
 ******************************************
 %mem=16GB
 %CPU=0-71
 SetSPE:  set environment variable "OMP_PROC_BIND" = "true"
 SetSPE:  set environment variable "OMP_PLACES" = "{0},{1},{2},{3},{4},{5},{6},{7},{8},{9},{10},{11},{12},{13},{14},{15},{16},{17},{18},{19},{20},{21},{22},{23},{24},{25},{26},{27},{28},{29},{30},{31},{32},{33},{34},{35},{36},{37},{38},{39},{40},{41},{42},{43},{44},{45},{46},{47},{48},{49},{50},{51},{52},{53},{54},{55},{56},{57},{58},{59},{60},{61},{62},{63},{64},{65},{66},{67},{68},{69},{70},{71}"
 Will use up to   72 processors via shared memory.
 %gpucpu=0,1,2,3=0,1,2,3
 Will use    4 GPUs:
 Thread  CPU   GPU
      0    0     0
      1    1     1
      2    2     2
      3    3     3
      4    4    -1
      5    5    -1
      6    6    -1
      7    7    -1
      8    8    -1
      9    9    -1
     10   10    -1
     11   11    -1
     12   12    -1
     13   13    -1
     14   14    -1
     15   15    -1
     16   16    -1
     17   17    -1
     18   18    -1
     19   19    -1
     20   20    -1
     21   21    -1
     22   22    -1
     23   23    -1
     24   24    -1
     25   25    -1
     26   26    -1
     27   27    -1
     28   28    -1
     29   29    -1
     30   30    -1
     31   31    -1
     32   32    -1
     33   33    -1
     34   34    -1
     35   35    -1
     36   36    -1
     37   37    -1
     38   38    -1
     39   39    -1
     40   40    -1
     41   41    -1
     42   42    -1
     43   43    -1
     44   44    -1
     45   45    -1
     46   46    -1
     47   47    -1
     48   48    -1
     49   49    -1
     50   50    -1
     51   51    -1
     52   52    -1
     53   53    -1
     54   54    -1
     55   55    -1
     56   56    -1
     57   57    -1
     58   58    -1
     59   59    -1
     60   60    -1
     61   61    -1
     62   62    -1
     63   63    -1
     64   64    -1
     65   65    -1
     66   66    -1
     67   67    -1
     68   68    -1
     69   69    -1
     70   70    -1
     71   71    -1
 SetGPE:  set environment variable "OMP_PROC_BIND" = "true"
 SetGPE:  set environment variable "OMP_PLACES" = "{0},{1},{2},{3},{4},{5},{6},{7},{8},{9},{10},{11},{12},{13},{14},{15},{16},{17},{18},{19},{20},{21},{22},{23},{24},{25},{26},{27},{28},{29},{30},{31},{32},{33},{34},{35},{36},{37},{38},{39},{40},{41},{42},{43},{44},{45},{46},{47},{48},{49},{50},{51},{52},{53},{54},{55},{56},{57},{58},{59},{60},{61},{62},{63},{64},{65},{66},{67},{68},{69},{70},{71}"
 %oldchk=6bdd_II_S.chk
 %chk=6bdd_II_Sre.chk
 Properties for Device   0
 Minimum vector length:                              32
 Maximum vector length:                            1024
 Number of SMPs:                                    108
 Maximum number of threads per SMP:                2048
 Number of ASync Engines:                             5
 Memory:                                           9207742464
 Properties for Device   1
 Minimum vector length:                              32
 Maximum vector length:                            1024
 Number of SMPs:                                    108
 Maximum number of threads per SMP:                2048
 Number of ASync Engines:                             5
 Memory:                                           9207742464
 Properties for Device   2
 Minimum vector length:                              32
 Maximum vector length:                            1024
 Number of SMPs:                                    108
 Maximum number of threads per SMP:                2048
 Number of ASync Engines:                             5
 Memory:                                           9207742464
 Properties for Device   3
 Minimum vector length:                              32
 Maximum vector length:                            1024
 Number of SMPs:                                    108
 Maximum number of threads per SMP:                2048
 Number of ASync Engines:                             5
 Memory:                                           9207742464
   8286968217 words of memory will be used on each GPU.
 Copying data from "6bdd_II_S.chk" to current chk file "6bdd_II_Sre.chk"
 IOpt=  2 FromEx=T IUOpen= 4 IOptOp= 5 NList=   0 IFRang= 0 IUIn= 4 IUOut= 2.
 --------------------------------------
 # apfd/gen scf=maxcycle=999 geom=check
 --------------------------------------
 1/29=2,38=1,172=1/1;
 2/12=2,40=1/2;
 3/5=7,11=2,14=-4,25=1,30=1,74=-44/1,2,3;
 4//1;
 5/5=2,7=999,38=5/2;
 6/7=2,8=2,9=2,10=2,28=1/1;
 99/5=1,9=1/99;
 ---------
 6bdd_II_Q
 ---------
 Structure from the checkpoint file:  "6bdd_II_Sre.chk"
 Charge =  0 Multiplicity = 5
 Z-Matrix found in chk file.
 Fe,0,7.5575915528,-6.1772329313,-5.4819371401
 N,0,8.1895563076,-4.333720727,-5.0396170151
 N,0,7.4564980521,-5.673457919,-7.4265859223
 N,0,6.6371308632,-7.8951159742,-5.9226191593
 N,0,7.3941552896,-6.5603311057,-3.5164970514
 C,0,8.3151752437,-3.7601779478,-3.8096926216
 C,0,8.7317835751,-2.3811730647,-3.9154852858
 C,0,8.8478867162,-2.1208988297,-5.2442222094
 C,0,8.4909307139,-3.3438425843,-5.928848521
 C,0,7.9335859665,-4.5304995109,-7.9964275299
 C,0,7.7554553508,-4.5487613857,-9.4251820072
 C,0,7.1317454752,-5.7317219142,-9.7181780397
 C,0,6.9501978939,-6.41256471,-8.4516976445
 C,0,6.1347413318,-8.3005877867,-7.1252731907
 C,0,5.3751325926,-9.5142019121,-6.9968575468
 C,0,5.4029472342,-9.8435084189,-5.668556534
 C,0,6.1747058404,-8.8040604342,-5.0164082186
 C,0,6.8240145772,-7.6608499243,-2.9538758786
 C,0,6.6122300576,-7.4773564685,-1.5377494839
 C,0,7.0587557109,-6.2250927982,-1.2497127832
 C,0,7.5290657486,-5.6649780954,-2.4954129945
 C,0,8.047941839,-4.3903494208,-2.609604223
 H,0,8.1566042505,-3.8114166479,-1.7054086508
 C,0,8.4605831471,-3.4552515382,-7.3034352924
 H,0,8.7873063511,-2.60262896,-7.8786110198
 C,0,6.3416605503,-7.6440897608,-8.3255635589
 H,0,5.9623701359,-8.110591747,-9.2215309105
 C,0,6.3848984491,-8.7726073363,-3.6510626923
 H,0,5.9949906566,-9.5953602998,-3.0710630133
 C,0,9.2268644199,-0.8526836249,-5.928799152
 H,0,10.0826724715,-1.0100499876,-6.5854626893
 H,0,9.4885968465,-0.0863388054,-5.2034509619
 H,0,8.3988990467,-0.4823692991,-6.534002128
 C,0,8.9514115566,-1.477461014,-2.7514980964
 H,0,9.7045291019,-1.8915795524,-2.0811087053
 H,0,8.0278010557,-1.3508503136,-2.1861440407
 H,0,9.2865987979,-0.4972675426,-3.0813784374
 C,0,8.1073878433,-3.4351743275,-10.3486860162
 H,0,9.1733270096,-3.4450834388,-10.5822665615
 H,0,7.8697406734,-2.4719447457,-9.8996325711
 H,0,7.5503798955,-3.5316909414,-11.2781683896
 C,0,6.6924794532,-6.239856261,-10.9994101469
 H,0,5.7740909821,-6.8152036163,-10.9868204096
 C,0,7.3243097599,-6.0606398399,-12.1545717258
 H,0,8.2633119371,-5.5388363733,-12.2187948605
 H,0,6.9339365243,-6.45638897,-13.0774643859
 C,0,4.6407203012,-10.184335685,-8.1047822949
 H,0,5.3165405809,-10.7970101187,-8.7037569644
 H,0,4.1810709211,-9.447947986,-8.7621317118
 H,0,3.8605557997,-10.8262982964,-7.701033298
 C,0,4.7697424996,-10.9556850526,-4.9934517156
 H,0,4.3983580264,-10.7525517329,-3.9958432868
 C,0,4.6223884095,-12.175442576,-5.4997535544
 H,0,5.0114804223,-12.4448337218,-6.466276763
 H,0,4.1270925444,-12.9579430461,-4.9492051744
 C,0,5.9967698071,-8.4918573221,-0.6365461094
 H,0,6.5037501116,-9.4518572294,-0.7323961126
 H,0,4.9451634383,-8.6377184736,-0.8865424648
 H,0,6.0587405883,-8.1733813029,0.4012598892
 C,0,7.0513443954,-5.4979663857,0.0508319974
 H,0,6.6850158556,-6.1388573059,0.8490011868
 H,0,6.4075972127,-4.6197736811,-0.0054624547
 H,0,8.0562057335,-5.164766873,0.3104731339
 C,0,12.9134147973,-7.1795921925,-6.7189048789
 H,0,13.6345957133,-7.2162337942,-5.9026957648
 H,0,13.0419754576,-6.2448819183,-7.2552897959
 H,0,13.125808875,-8.0044430351,-7.3987077102
 N,0,11.0748183022,-8.3457283454,-5.4831479759
 H,0,11.6173261236,-9.1588243818,-5.2414519106
 C,0,11.5250382639,-7.2691167728,-6.2005779517
 C,0,9.7807183135,-8.117315716,-5.1666298848
 H,0,9.1687425642,-8.7943760267,-4.6055399791
 N,0,9.3812895523,-6.9590231012,-5.6405195374
 C,0,10.4587187352,-6.4201247429,-6.286039349
 H,0,10.3930378057,-5.4642643776,-6.7651041473
 Recover connectivity data from disk.
 Stoichiometry    C34H34FeN6(5)
 Framework group  C1[X(C34H34FeN6)]
 Deg. of freedom   219
 Full point group                 C1      NOp   1
 Largest Abelian subgroup         C1      NOp   1
 Largest concise Abelian subgroup C1      NOp   1
                         Standard orientation:                         
 ---------------------------------------------------------------------
 Center     Atomic      Atomic             Coordinates (Angstroms)
 Number     Number       Type             X           Y           Z
 ---------------------------------------------------------------------
      1         26           0       -0.050284    0.213650   -0.188259
      2          7           0        1.226214    1.729489   -0.445845
      3          7           0        1.437365   -1.094935   -0.534917
      4          7           0       -1.344661   -1.307521   -0.244785
      5          7           0       -1.562008    1.535744   -0.131788
      6          6           0        0.941724    3.056306   -0.572603
      7          6           0        2.137984    3.826443   -0.822119
      8          6           0        3.162960    2.934788   -0.855859
      9          6           0        2.573835    1.632466   -0.635376
     10          6           0        2.766692   -0.808120   -0.631429
     11          6           0        3.545602   -2.006798   -0.804266
     12          6           0        2.651722   -3.043307   -0.833980
     13          6           0        1.341300   -2.446173   -0.670568
     14          6           0       -1.095762   -2.619035   -0.529666
     15          6           0       -2.314304   -3.370297   -0.660495
     16          6           0       -3.335108   -2.479122   -0.467192
     17          6           0       -2.704232   -1.194776   -0.235215
     18          6           0       -2.891088    1.242050   -0.137574
     19          6           0       -3.688498    2.419180   -0.387451
     20          6           0       -2.807598    3.443390   -0.547216
     21          6           0       -1.489170    2.872241   -0.398135
     22          6           0       -0.324386    3.605604   -0.509519
     23          1           0       -0.415812    4.670443   -0.658850
     24          6           0        3.308443    0.464917   -0.633518
     25          1           0        4.379427    0.551289   -0.733876
     26          6           0        0.166981   -3.169851   -0.658457
     27          1           0        0.233770   -4.237274   -0.801246
     28          6           0       -3.423925   -0.031366   -0.040648
     29          1           0       -4.499833   -0.114058   -0.010075
     30          6           0        4.614018    3.172284   -1.098070
     31          1           0        5.211147    2.783424   -0.273083
     32          1           0        4.819351    4.235219   -1.197697
     33          1           0        4.935651    2.674488   -2.013319
     34          6           0        2.162168    5.303689   -1.014366
     35          1           0        1.742767    5.810517   -0.145269
     36          1           0        1.573046    5.585312   -1.887484
     37          1           0        3.179676    5.657526   -1.160748
     38          6           0        5.020261   -2.051139   -1.004786
     39          1           0        5.545534   -1.967367   -0.051920
     40          1           0        5.347537   -1.231819   -1.643175
     41          1           0        5.304586   -2.990983   -1.473148
     42          6           0        2.898078   -4.456929   -1.017538
     43          1           0        2.143994   -4.996232   -1.578904
     44          6           0        3.951039   -5.120156   -0.551568
     45          1           0        4.705659   -4.645812    0.051487
     46          1           0        4.080166   -6.173662   -0.736478
     47          6           0       -2.395599   -4.809462   -1.032157
     48          1           0       -2.222711   -5.445383   -0.162337
     49          1           0       -1.647154   -5.055342   -1.783839
     50          1           0       -3.380888   -5.036225   -1.434114
     51          6           0       -4.763172   -2.705494   -0.522331
     52          1           0       -5.354187   -1.893761   -0.930010
     53          6           0       -5.379940   -3.809210   -0.113342
     54          1           0       -4.848128   -4.627384    0.340418
     55          1           0       -6.448352   -3.920938   -0.195441
     56          6           0       -5.176339    2.431131   -0.467180
     57          1           0       -5.614201    1.965766    0.415729
     58          1           0       -5.516784    1.879951   -1.344647
     59          1           0       -5.550126    3.449671   -0.539064
     60          6           0       -3.074317    4.875432   -0.860746
     61          1           0       -4.143299    5.071828   -0.887523
     62          1           0       -2.653573    5.139402   -1.831363
     63          1           0       -2.623789    5.523690   -0.109103
     64          6           0        1.950358    0.067979    5.026707
     65          1           0        1.699823    0.887611    5.699818
     66          1           0        2.983471    0.178534    4.713060
     67          1           0        1.850558   -0.867477    5.576784
     68          7           0       -0.295927   -0.051279    3.927896
     69          1           0       -0.818938   -0.157922    4.781678
     70          6           0        1.064958    0.074610    3.834948
     71          6           0       -0.799705   -0.009441    2.674298
     72          1           0       -1.842473   -0.085836    2.440749
     73          7           0        0.160478    0.135507    1.789541
     74          6           0        1.327008    0.190043    2.499608
     75          1           0        2.269288    0.307611    2.003854
 ---------------------------------------------------------------------
 Rotational constants (GHZ):           0.0938361           0.0909959           0.0596128
 General basis read from cards:  (5D, 7F)
 There are   704 symmetry adapted cartesian basis functions of A   symmetry.
 There are   661 symmetry adapted basis functions of A   symmetry.
   661 basis functions,  1342 primitive gaussians,   704 cartesian basis functions
   155 alpha electrons      151 beta electrons
       nuclear repulsion energy      5557.8043870113 Hartrees.
 NAtoms=   75 NActive=   75 NUniq=   75 SFac= 1.00D+00 NAtFMM=   60 NAOKFM=T Big=T
 Integral buffers will be    131072 words long.
 Raffenetti 2 integral format.
 Two-electron integral symmetry is turned on.
 R6APFD:  NTU= -4 IXU= 1 FactS= 1.050
 Nuclear repulsion after empirical dispersion term =     5557.6724469729 Hartrees.
 One-electron integrals computed using PRISM.
 NBasis=   661 RedAO= T EigKep=  2.69D-04  NBF=   661
 NBsUse=   661 1.00D-06 EigRej= -1.00D+00 NBFU=   661
 ExpMin= 4.20D-02 ExpMax= 3.01D+05 ExpMxC= 2.91D+03 IAcc=3 IRadAn=         5 AccDes= 0.00D+00
 Harris functional with IExCor= 3731 and IRadAn=       5 diagonalized for initial guess.
 HarFok:  IExCor= 3731 AccDes= 0.00D+00 IRadAn=         5 IDoV= 1 UseB2=F ITyADJ=14
 ICtDFT=  3500011 ScaDFX=  1.000000  1.000000  1.000000  1.000000
 FoFCou: FMM=F IPFlag=           0 FMFlag=      100000 FMFlg1=        2001
         NFxFlg=           0 DoJE=T BraDBF=F KetDBF=T FulRan=T
         wScrn=  0.000000 ICntrl=       500 IOpCl=  0 I1Cent=   200000004 NGrid=           0
         NMat0=    1 NMatS0=      1 NMatT0=    0 NMatD0=    1 NMtDS0=    0 NMtDT0=    0
 Petite list used in FoFCou.
 Initial guess <Sx>= 0.0000 <Sy>= 0.0000 <Sz>= 2.0000 <S**2>= 6.0000 S= 2.0000
 Requested convergence on RMS density matrix=1.00D-08 within 999 cycles.
 Requested convergence on MAX density matrix=1.00D-06.
 Requested convergence on             energy=1.00D-06.
 No special actions if energy rises.
 EnCoef did   100 forward-backward iterations
 EnCoef did   100 forward-backward iterations
 EnCoef did   100 forward-backward iterations
 EnCoef did     4 forward-backward iterations
 EnCoef did    11 forward-backward iterations
 Rare condition: small coef for last iteration:  0.000D+00
 Rare condition: small coef for last iteration:  0.000D+00
 Rare condition: small coef for last iteration:  0.000D+00
 Rare condition: small coef for last iteration:  0.000D+00
 Rare condition: small coef for last iteration:  0.000D+00
 Rare condition: small coef for last iteration:  0.000D+00
 Restarting incremental Fock formation.
 Rare condition: small coef for last iteration:  0.000D+00
 Rare condition: small coef for last iteration:  0.000D+00
 Rare condition: small coef for last iteration:  0.000D+00
 Rare condition: small coef for last iteration:  0.000D+00
 Rare condition: small coef for last iteration:  0.000D+00
 Rare condition: small coef for last iteration:  0.000D+00
 Restarting incremental Fock formation.
 Restarting incremental Fock formation.
 SCF Done:  E(UAPFD) =  -2906.98429757     A.U. after   64 cycles
            NFock= 64  Conv=0.31D-08     -V/T= 2.0036
 <Sx>= 0.0000 <Sy>= 0.0000 <Sz>= 2.0000 <S**2>= 6.0804 S= 2.0160
 <L.S>=  0.00000000000    
 Annihilation of the first spin contaminant:
 S**2 before annihilation     6.0804,   after     6.0020

 **********************************************************************

            Population analysis using the SCF Density.

 **********************************************************************

 Orbital symmetries:
 Alpha Orbitals:
       Occupied  (A) (A) (A) (A) (A) (A) (A) (A) (A) (A) (A) (A)
                 (A) (A) (A) (A) (A) (A) (A) (A) (A) (A) (A) (A)
                 (A) (A) (A) (A) (A) (A) (A) (A) (A) (A) (A) (A)
                 (A) (A) (A) (A) (A) (A) (A) (A) (A) (A) (A) (A)
                 (A) (A) (A) (A) (A) (A) (A) (A) (A) (A) (A) (A)
                 (A) (A) (A) (A) (A) (A) (A) (A) (A) (A) (A) (A)
                 (A) (A) (A) (A) (A) (A) (A) (A) (A) (A) (A) (A)
                 (A) (A) (A) (A) (A) (A) (A) (A) (A) (A) (A) (A)
                 (A) (A) (A) (A) (A) (A) (A) (A) (A) (A) (A) (A)
                 (A) (A) (A) (A) (A) (A) (A) (A) (A) (A) (A) (A)
                 (A) (A) (A) (A) (A) (A) (A) (A) (A) (A) (A) (A)
                 (A) (A) (A) (A) (A) (A) (A) (A) (A) (A) (A) (A)
                 (A) (A) (A) (A) (A) (A) (A) (A) (A) (A) (A)
       Virtual   (A) (A) (A) (A) (A) (A) (A) (A) (A) (A) (A) (A)
                 (A) (A) (A) (A) (A) (A) (A) (A) (A) (A) (A) (A)
                 (A) (A) (A) (A) (A) (A) (A) (A) (A) (A) (A) (A)
                 (A) (A) (A) (A) (A) (A) (A) (A) (A) (A) (A) (A)
                 (A) (A) (A) (A) (A) (A) (A) (A) (A) (A) (A) (A)
                 (A) (A) (A) (A) (A) (A) (A) (A) (A) (A) (A) (A)
                 (A) (A) (A) (A) (A) (A) (A) (A) (A) (A) (A) (A)
                 (A) (A) (A) (A) (A) (A) (A) (A) (A) (A) (A) (A)
                 (A) (A) (A) (A) (A) (A) (A) (A) (A) (A) (A) (A)
                 (A) (A) (A) (A) (A) (A) (A) (A) (A) (A) (A) (A)
                 (A) (A) (A) (A) (A) (A) (A) (A) (A) (A) (A) (A)
                 (A) (A) (A) (A) (A) (A) (A) (A) (A) (A) (A) (A)
                 (A) (A) (A) (A) (A) (A) (A) (A) (A) (A) (A) (A)
                 (A) (A) (A) (A) (A) (A) (A) (A) (A) (A) (A) (A)
                 (A) (A) (A) (A) (A) (A) (A) (A) (A) (A) (A) (A)
                 (A) (A) (A) (A) (A) (A) (A) (A) (A) (A) (A) (A)
                 (A) (A) (A) (A) (A) (A) (A) (A) (A) (A) (A) (A)
                 (A) (A) (A) (A) (A) (A) (A) (A) (A) (A) (A) (A)
                 (A) (A) (A) (A) (A) (A) (A) (A) (A) (A) (A) (A)
                 (A) (A) (A) (A) (A) (A) (A) (A) (A) (A) (A) (A)
                 (A) (A) (A) (A) (A) (A) (A) (A) (A) (A) (A) (A)
                 (A) (A) (A) (A) (A) (A) (A) (A) (A) (A) (A) (A)
                 (A) (A) (A) (A) (A) (A) (A) (A) (A) (A) (A) (A)
                 (A) (A) (A) (A) (A) (A) (A) (A) (A) (A) (A) (A)
                 (A) (A) (A) (A) (A) (A) (A) (A) (A) (A) (A) (A)
                 (A) (A) (A) (A) (A) (A) (A) (A) (A) (A) (A) (A)
                 (A) (A) (A) (A) (A) (A) (A) (A) (A) (A) (A) (A)
                 (A) (A) (A) (A) (A) (A) (A) (A) (A) (A) (A) (A)
                 (A) (A) (A) (A) (A) (A) (A) (A) (A) (A) (A) (A)
                 (A) (A) (A) (A) (A) (A) (A) (A) (A) (A) (A) (A)
                 (A) (A) (A) (A) (A) (A) (A) (A) (A) (A) (A) (A)
                 (A) (A) (A) (A) (A) (A) (A) (A) (A) (A) (A) (A)
                 (A) (A) (A) (A) (A) (A) (A) (A) (A) (A) (A) (A)
                 (A) (A) (A) (A) (A) (A) (A) (A) (A) (A) (A) (A)
                 (A) (A) (A) (A) (A) (A) (A) (A) (A) (A) (A) (A)
                 (A) (A) (A) (A) (A) (A) (A) (A) (A) (A) (A) (A)
                 (A) (A) (A) (A) (A) (A) (A) (A) (A) (A) (A) (A)
                 (A) (A) (A) (A) (A) (A) (A) (A) (A) (A) (A) (A)
                 (A) (A) (A) (A) (A) (A) (A) (A) (A) (A) (A) (A)
                 (A) (A) (A) (A) (A) (A) (A) (A) (A) (A) (A) (A)
                 (A) (A) (A) (A) (A) (A) (A) (A) (A) (A) (A) (A)
                 (A) (A) (A) (A) (A) (A) (A) (A) (A) (A) (A) (A)
                 (A) (A)
 Beta  Orbitals:
       Occupied  (A) (A) (A) (A) (A) (A) (A) (A) (A) (A) (A) (A)
                 (A) (A) (A) (A) (A) (A) (A) (A) (A) (A) (A) (A)
                 (A) (A) (A) (A) (A) (A) (A) (A) (A) (A) (A) (A)
                 (A) (A) (A) (A) (A) (A) (A) (A) (A) (A) (A) (A)
                 (A) (A) (A) (A) (A) (A) (A) (A) (A) (A) (A) (A)
                 (A) (A) (A) (A) (A) (A) (A) (A) (A) (A) (A) (A)
                 (A) (A) (A) (A) (A) (A) (A) (A) (A) (A) (A) (A)
                 (A) (A) (A) (A) (A) (A) (A) (A) (A) (A) (A) (A)
                 (A) (A) (A) (A) (A) (A) (A) (A) (A) (A) (A) (A)
                 (A) (A) (A) (A) (A) (A) (A) (A) (A) (A) (A) (A)
                 (A) (A) (A) (A) (A) (A) (A) (A) (A) (A) (A) (A)
                 (A) (A) (A) (A) (A) (A) (A) (A) (A) (A) (A) (A)
                 (A) (A) (A) (A) (A) (A) (A)
       Virtual   (A) (A) (A) (A) (A) (A) (A) (A) (A) (A) (A) (A)
                 (A) (A) (A) (A) (A) (A) (A) (A) (A) (A) (A) (A)
                 (A) (A) (A) (A) (A) (A) (A) (A) (A) (A) (A) (A)
                 (A) (A) (A) (A) (A) (A) (A) (A) (A) (A) (A) (A)
                 (A) (A) (A) (A) (A) (A) (A) (A) (A) (A) (A) (A)
                 (A) (A) (A) (A) (A) (A) (A) (A) (A) (A) (A) (A)
                 (A) (A) (A) (A) (A) (A) (A) (A) (A) (A) (A) (A)
                 (A) (A) (A) (A) (A) (A) (A) (A) (A) (A) (A) (A)
                 (A) (A) (A) (A) (A) (A) (A) (A) (A) (A) (A) (A)
                 (A) (A) (A) (A) (A) (A) (A) (A) (A) (A) (A) (A)
                 (A) (A) (A) (A) (A) (A) (A) (A) (A) (A) (A) (A)
                 (A) (A) (A) (A) (A) (A) (A) (A) (A) (A) (A) (A)
                 (A) (A) (A) (A) (A) (A) (A) (A) (A) (A) (A) (A)
                 (A) (A) (A) (A) (A) (A) (A) (A) (A) (A) (A) (A)
                 (A) (A) (A) (A) (A) (A) (A) (A) (A) (A) (A) (A)
                 (A) (A) (A) (A) (A) (A) (A) (A) (A) (A) (A) (A)
                 (A) (A) (A) (A) (A) (A) (A) (A) (A) (A) (A) (A)
                 (A) (A) (A) (A) (A) (A) (A) (A) (A) (A) (A) (A)
                 (A) (A) (A) (A) (A) (A) (A) (A) (A) (A) (A) (A)
                 (A) (A) (A) (A) (A) (A) (A) (A) (A) (A) (A) (A)
                 (A) (A) (A) (A) (A) (A) (A) (A) (A) (A) (A) (A)
                 (A) (A) (A) (A) (A) (A) (A) (A) (A) (A) (A) (A)
                 (A) (A) (A) (A) (A) (A) (A) (A) (A) (A) (A) (A)
                 (A) (A) (A) (A) (A) (A) (A) (A) (A) (A) (A) (A)
                 (A) (A) (A) (A) (A) (A) (A) (A) (A) (A) (A) (A)
                 (A) (A) (A) (A) (A) (A) (A) (A) (A) (A) (A) (A)
                 (A) (A) (A) (A) (A) (A) (A) (A) (A) (A) (A) (A)
                 (A) (A) (A) (A) (A) (A) (A) (A) (A) (A) (A) (A)
                 (A) (A) (A) (A) (A) (A) (A) (A) (A) (A) (A) (A)
                 (A) (A) (A) (A) (A) (A) (A) (A) (A) (A) (A) (A)
                 (A) (A) (A) (A) (A) (A) (A) (A) (A) (A) (A) (A)
                 (A) (A) (A) (A) (A) (A) (A) (A) (A) (A) (A) (A)
                 (A) (A) (A) (A) (A) (A) (A) (A) (A) (A) (A) (A)
                 (A) (A) (A) (A) (A) (A) (A) (A) (A) (A) (A) (A)
                 (A) (A) (A) (A) (A) (A) (A) (A) (A) (A) (A) (A)
                 (A) (A) (A) (A) (A) (A) (A) (A) (A) (A) (A) (A)
                 (A) (A) (A) (A) (A) (A) (A) (A) (A) (A) (A) (A)
                 (A) (A) (A) (A) (A) (A) (A) (A) (A) (A) (A) (A)
                 (A) (A) (A) (A) (A) (A) (A) (A) (A) (A) (A) (A)
                 (A) (A) (A) (A) (A) (A) (A) (A) (A) (A) (A) (A)
                 (A) (A) (A) (A) (A) (A) (A) (A) (A) (A) (A) (A)
                 (A) (A) (A) (A) (A) (A) (A) (A) (A) (A) (A) (A)
                 (A) (A) (A) (A) (A) (A)
 The electronic state is 5-A.
 Alpha  occ. eigenvalues -- -256.27821 -30.16845 -26.01690 -25.99371 -25.99256
 Alpha  occ. eigenvalues --  -14.44766 -14.39349 -14.35878 -14.35746 -14.35637
 Alpha  occ. eigenvalues --  -14.35624 -10.28391 -10.25977 -10.23171 -10.22523
 Alpha  occ. eigenvalues --  -10.21964 -10.21606 -10.21572 -10.21495 -10.21239
 Alpha  occ. eigenvalues --  -10.21021 -10.20901 -10.20771 -10.19866 -10.19522
 Alpha  occ. eigenvalues --  -10.19353 -10.19118 -10.18927 -10.18926 -10.18872
 Alpha  occ. eigenvalues --  -10.18794 -10.18783 -10.18757 -10.18730 -10.18653
 Alpha  occ. eigenvalues --  -10.18610 -10.18575 -10.18537 -10.18518 -10.18503
 Alpha  occ. eigenvalues --  -10.18417 -10.18208 -10.18175 -10.17077 -10.17066
 Alpha  occ. eigenvalues --   -3.59139  -2.39568  -2.33545  -2.33348  -1.07205
 Alpha  occ. eigenvalues --   -0.97187  -0.96166  -0.96151  -0.95190  -0.92952
 Alpha  occ. eigenvalues --   -0.81812  -0.81649  -0.81523  -0.81184  -0.80528
 Alpha  occ. eigenvalues --   -0.80206  -0.79169  -0.79062  -0.76256  -0.75237
 Alpha  occ. eigenvalues --   -0.73880  -0.73363  -0.73252  -0.72734  -0.70623
 Alpha  occ. eigenvalues --   -0.69788  -0.68135  -0.67766  -0.67480  -0.66542
 Alpha  occ. eigenvalues --   -0.63642  -0.63543  -0.62862  -0.60254  -0.59670
 Alpha  occ. eigenvalues --   -0.57523  -0.57104  -0.56431  -0.54081  -0.53285
 Alpha  occ. eigenvalues --   -0.52934  -0.52617  -0.50840  -0.50617  -0.50303
 Alpha  occ. eigenvalues --   -0.49480  -0.48729  -0.48511  -0.47284  -0.46990
 Alpha  occ. eigenvalues --   -0.45477  -0.45200  -0.44657  -0.44400  -0.44313
 Alpha  occ. eigenvalues --   -0.44230  -0.43815  -0.43737  -0.43248  -0.43160
 Alpha  occ. eigenvalues --   -0.42953  -0.42812  -0.42458  -0.42230  -0.41758
 Alpha  occ. eigenvalues --   -0.41268  -0.41143  -0.41035  -0.40945  -0.40545
 Alpha  occ. eigenvalues --   -0.40311  -0.40068  -0.39947  -0.39781  -0.39619
 Alpha  occ. eigenvalues --   -0.39006  -0.38392  -0.38236  -0.37971  -0.37817
 Alpha  occ. eigenvalues --   -0.37228  -0.37175  -0.36821  -0.36791  -0.36456
 Alpha  occ. eigenvalues --   -0.36131  -0.35728  -0.35423  -0.34207  -0.33813
 Alpha  occ. eigenvalues --   -0.33171  -0.32504  -0.32311  -0.31993  -0.30981
 Alpha  occ. eigenvalues --   -0.30289  -0.30122  -0.29090  -0.28559  -0.27165
 Alpha  occ. eigenvalues --   -0.26244  -0.25948  -0.25104  -0.22803  -0.22529
 Alpha  occ. eigenvalues --   -0.21769  -0.21610  -0.18640  -0.17752  -0.09839
 Alpha virt. eigenvalues --   -0.07892  -0.05721  -0.01432   0.00714   0.01948
 Alpha virt. eigenvalues --    0.03518   0.04860   0.06252   0.06596   0.07941
 Alpha virt. eigenvalues --    0.08766   0.09559   0.10525   0.11045   0.11310
 Alpha virt. eigenvalues --    0.11467   0.11961   0.12591   0.13234   0.13734
 Alpha virt. eigenvalues --    0.14054   0.14228   0.14677   0.15202   0.15654
 Alpha virt. eigenvalues --    0.15883   0.16044   0.16267   0.16618   0.16870
 Alpha virt. eigenvalues --    0.17127   0.17176   0.17690   0.18050   0.18204
 Alpha virt. eigenvalues --    0.18258   0.18709   0.19007   0.19223   0.19453
 Alpha virt. eigenvalues --    0.19764   0.20070   0.20548   0.20987   0.21370
 Alpha virt. eigenvalues --    0.21533   0.21860   0.21969   0.22264   0.22985
 Alpha virt. eigenvalues --    0.23365   0.23767   0.24845   0.24972   0.25484
 Alpha virt. eigenvalues --    0.25814   0.26016   0.26724   0.26805   0.27115
 Alpha virt. eigenvalues --    0.27395   0.27900   0.28257   0.30054   0.30499
 Alpha virt. eigenvalues --    0.30779   0.31783   0.32248   0.32580   0.33795
 Alpha virt. eigenvalues --    0.34034   0.35035   0.35598   0.36537   0.36911
 Alpha virt. eigenvalues --    0.37121   0.37357   0.37628   0.38902   0.40368
 Alpha virt. eigenvalues --    0.41345   0.41684   0.42408   0.44533   0.44602
 Alpha virt. eigenvalues --    0.44702   0.45094   0.46131   0.48055   0.48253
 Alpha virt. eigenvalues --    0.48672   0.49149   0.49966   0.50489   0.50723
 Alpha virt. eigenvalues --    0.51120   0.51211   0.51851   0.52087   0.52488
 Alpha virt. eigenvalues --    0.52680   0.53230   0.53413   0.53780   0.54051
 Alpha virt. eigenvalues --    0.54659   0.55073   0.55297   0.55909   0.56292
 Alpha virt. eigenvalues --    0.56509   0.56806   0.57545   0.57635   0.58625
 Alpha virt. eigenvalues --    0.59033   0.59441   0.59863   0.60164   0.60563
 Alpha virt. eigenvalues --    0.61076   0.61486   0.61600   0.61874   0.62702
 Alpha virt. eigenvalues --    0.62972   0.63434   0.64086   0.64326   0.64833
 Alpha virt. eigenvalues --    0.65048   0.65390   0.65699   0.66152   0.66418
 Alpha virt. eigenvalues --    0.66591   0.66936   0.67133   0.67369   0.67782
 Alpha virt. eigenvalues --    0.68236   0.68335   0.68898   0.69662   0.69984
 Alpha virt. eigenvalues --    0.70676   0.70817   0.71129   0.71710   0.72346
 Alpha virt. eigenvalues --    0.72832   0.73239   0.73737   0.74220   0.74903
 Alpha virt. eigenvalues --    0.75442   0.76045   0.76570   0.77215   0.77512
 Alpha virt. eigenvalues --    0.77701   0.78146   0.78699   0.78804   0.78842
 Alpha virt. eigenvalues --    0.79594   0.79812   0.80137   0.80800   0.80971
 Alpha virt. eigenvalues --    0.81459   0.81961   0.82432   0.83006   0.83704
 Alpha virt. eigenvalues --    0.84122   0.84433   0.85160   0.85981   0.86757
 Alpha virt. eigenvalues --    0.87438   0.87605   0.87707   0.87817   0.88415
 Alpha virt. eigenvalues --    0.88659   0.88892   0.89238   0.89385   0.90035
 Alpha virt. eigenvalues --    0.90282   0.91089   0.91139   0.92126   0.92217
 Alpha virt. eigenvalues --    0.92741   0.92999   0.93460   0.93870   0.93897
 Alpha virt. eigenvalues --    0.94192   0.94526   0.95008   0.95418   0.95917
 Alpha virt. eigenvalues --    0.96368   0.96686   0.96998   0.97622   0.97833
 Alpha virt. eigenvalues --    0.98237   0.99194   0.99970   1.00109   1.00158
 Alpha virt. eigenvalues --    1.00322   1.00787   1.01065   1.01472   1.01706
 Alpha virt. eigenvalues --    1.02263   1.03046   1.03817   1.04509   1.04868
 Alpha virt. eigenvalues --    1.05422   1.05870   1.06426   1.06707   1.07171
 Alpha virt. eigenvalues --    1.07397   1.08462   1.08951   1.10090   1.10741
 Alpha virt. eigenvalues --    1.11285   1.13621   1.14083   1.15306   1.15916
 Alpha virt. eigenvalues --    1.16657   1.17230   1.17516   1.17617   1.18622
 Alpha virt. eigenvalues --    1.19281   1.19743   1.19906   1.20645   1.20910
 Alpha virt. eigenvalues --    1.21133   1.22309   1.22821   1.23514   1.23688
 Alpha virt. eigenvalues --    1.24549   1.25217   1.25678   1.27681   1.28869
 Alpha virt. eigenvalues --    1.29503   1.30026   1.30372   1.31864   1.32194
 Alpha virt. eigenvalues --    1.32766   1.33124   1.33736   1.34024   1.34534
 Alpha virt. eigenvalues --    1.35016   1.36784   1.37114   1.37816   1.38173
 Alpha virt. eigenvalues --    1.38453   1.38852   1.39435   1.39910   1.40083
 Alpha virt. eigenvalues --    1.40364   1.41284   1.41607   1.42192   1.44671
 Alpha virt. eigenvalues --    1.44762   1.45455   1.45867   1.46453   1.46816
 Alpha virt. eigenvalues --    1.47522   1.48809   1.50025   1.50406   1.51523
 Alpha virt. eigenvalues --    1.51716   1.53843   1.54527   1.54930   1.55245
 Alpha virt. eigenvalues --    1.56265   1.57052   1.57650   1.58629   1.60409
 Alpha virt. eigenvalues --    1.60924   1.61168   1.62212   1.63018   1.63556
 Alpha virt. eigenvalues --    1.63853   1.64690   1.65279   1.67612   1.68530
 Alpha virt. eigenvalues --    1.70204   1.70491   1.71926   1.72654   1.73630
 Alpha virt. eigenvalues --    1.76039   1.78876   1.78961   1.79405   1.79855
 Alpha virt. eigenvalues --    1.80867   1.81329   1.81509   1.82181   1.82294
 Alpha virt. eigenvalues --    1.82598   1.82999   1.83425   1.83594   1.84528
 Alpha virt. eigenvalues --    1.84745   1.86078   1.86338   1.87374   1.87792
 Alpha virt. eigenvalues --    1.88271   1.88544   1.88921   1.89577   1.89972
 Alpha virt. eigenvalues --    1.91173   1.91514   1.92719   1.93200   1.93653
 Alpha virt. eigenvalues --    1.94512   1.95196   1.95566   1.96267   1.97006
 Alpha virt. eigenvalues --    1.97929   1.98629   1.99803   2.00598   2.00998
 Alpha virt. eigenvalues --    2.01587   2.01768   2.02071   2.02289   2.02777
 Alpha virt. eigenvalues --    2.04252   2.04946   2.05868   2.06208   2.06961
 Alpha virt. eigenvalues --    2.07613   2.07662   2.08338   2.09651   2.10325
 Alpha virt. eigenvalues --    2.11179   2.11434   2.12488   2.13345   2.13865
 Alpha virt. eigenvalues --    2.14350   2.15510   2.16251   2.16920   2.17332
 Alpha virt. eigenvalues --    2.17481   2.19111   2.20186   2.20612   2.21134
 Alpha virt. eigenvalues --    2.21592   2.23113   2.23403   2.23750   2.24482
 Alpha virt. eigenvalues --    2.24630   2.25163   2.25964   2.26459   2.27378
 Alpha virt. eigenvalues --    2.27568   2.28011   2.28553   2.28831   2.29377
 Alpha virt. eigenvalues --    2.29941   2.30819   2.31220   2.32046   2.33176
 Alpha virt. eigenvalues --    2.33668   2.33958   2.34187   2.35345   2.35916
 Alpha virt. eigenvalues --    2.36422   2.37030   2.37227   2.37502   2.37924
 Alpha virt. eigenvalues --    2.38414   2.38974   2.39966   2.40614   2.41388
 Alpha virt. eigenvalues --    2.41928   2.41988   2.42888   2.43852   2.44074
 Alpha virt. eigenvalues --    2.45066   2.45093   2.45867   2.46935   2.47476
 Alpha virt. eigenvalues --    2.48535   2.50211   2.51532   2.52460   2.53456
 Alpha virt. eigenvalues --    2.53603   2.53814   2.54625   2.56223   2.56711
 Alpha virt. eigenvalues --    2.57268   2.57953   2.58717   2.60238   2.61459
 Alpha virt. eigenvalues --    2.61775   2.62069   2.63914   2.66155   2.67450
 Alpha virt. eigenvalues --    2.68647   2.70081   2.70575   2.71105   2.71876
 Alpha virt. eigenvalues --    2.72570   2.73521   2.74173   2.76609   2.77992
 Alpha virt. eigenvalues --    2.79057   2.80776   2.81377   2.82017   2.86089
 Alpha virt. eigenvalues --    2.87018   2.88417   2.89307   2.91264   2.92060
 Alpha virt. eigenvalues --    2.93166   2.96229   2.96285   2.97216   2.98379
 Alpha virt. eigenvalues --    2.98990   2.99377   3.00240   3.00918   3.04009
 Alpha virt. eigenvalues --    3.05921   3.06088   3.12873   3.14428   3.15066
 Alpha virt. eigenvalues --    3.21117   3.24308   3.25532   3.30938   3.31131
 Alpha virt. eigenvalues --    3.39137   3.40162   3.41193   3.43011   3.46625
 Alpha virt. eigenvalues --    3.47202   3.52752   3.57856   3.84489   3.99253
 Alpha virt. eigenvalues --    4.17249
  Beta  occ. eigenvalues -- -256.27706 -30.10675 -25.95203 -25.95146 -25.94497
  Beta  occ. eigenvalues --  -14.44749 -14.39048 -14.35897 -14.35715 -14.35660
  Beta  occ. eigenvalues --  -14.35604 -10.28365 -10.25967 -10.23161 -10.22521
  Beta  occ. eigenvalues --  -10.22052 -10.21683 -10.21660 -10.21549 -10.21061
  Beta  occ. eigenvalues --  -10.20844 -10.20687 -10.20536 -10.19864 -10.19572
  Beta  occ. eigenvalues --  -10.19404 -10.19180 -10.18968 -10.18966 -10.18888
  Beta  occ. eigenvalues --  -10.18868 -10.18755 -10.18729 -10.18671 -10.18604
  Beta  occ. eigenvalues --  -10.18588 -10.18549 -10.18498 -10.18414 -10.18351
  Beta  occ. eigenvalues --  -10.18347 -10.18223 -10.18087 -10.16711 -10.16696
  Beta  occ. eigenvalues --   -3.44383  -2.20745  -2.20681  -2.17815  -1.07037
  Beta  occ. eigenvalues --   -0.97002  -0.95984  -0.95969  -0.95003  -0.92632
  Beta  occ. eigenvalues --   -0.81615  -0.81580  -0.81385  -0.81043  -0.80388
  Beta  occ. eigenvalues --   -0.80072  -0.79054  -0.78662  -0.76119  -0.75164
  Beta  occ. eigenvalues --   -0.73703  -0.73178  -0.73040  -0.72678  -0.70481
  Beta  occ. eigenvalues --   -0.69709  -0.68075  -0.67692  -0.67345  -0.66260
  Beta  occ. eigenvalues --   -0.63580  -0.63143  -0.62761  -0.60173  -0.59568
  Beta  occ. eigenvalues --   -0.57378  -0.56929  -0.56208  -0.53927  -0.53230
  Beta  occ. eigenvalues --   -0.52831  -0.52432  -0.50760  -0.50523  -0.50223
  Beta  occ. eigenvalues --   -0.49122  -0.48576  -0.48279  -0.47173  -0.46784
  Beta  occ. eigenvalues --   -0.44986  -0.44439  -0.44377  -0.44253  -0.44013
  Beta  occ. eigenvalues --   -0.43758  -0.43588  -0.43254  -0.43016  -0.42905
  Beta  occ. eigenvalues --   -0.42806  -0.42516  -0.42193  -0.42046  -0.41693
  Beta  occ. eigenvalues --   -0.41047  -0.40949  -0.40843  -0.40016  -0.39819
  Beta  occ. eigenvalues --   -0.39653  -0.39428  -0.38997  -0.38711  -0.38612
  Beta  occ. eigenvalues --   -0.38201  -0.38061  -0.37470  -0.37165  -0.36894
  Beta  occ. eigenvalues --   -0.36763  -0.36458  -0.36116  -0.35796  -0.35260
  Beta  occ. eigenvalues --   -0.34979  -0.34129  -0.33731  -0.33123  -0.32700
  Beta  occ. eigenvalues --   -0.31640  -0.30613  -0.30567  -0.30156  -0.28730
  Beta  occ. eigenvalues --   -0.28223  -0.25772  -0.25439  -0.25091  -0.24919
  Beta  occ. eigenvalues --   -0.22934  -0.22608  -0.21839  -0.21205  -0.17583
  Beta  occ. eigenvalues --   -0.16490
  Beta virt. eigenvalues --   -0.08686  -0.08023  -0.04616  -0.04590  -0.03666
  Beta virt. eigenvalues --   -0.00321   0.00548   0.01212   0.02476   0.04219
  Beta virt. eigenvalues --    0.05343   0.06757   0.07112   0.09101   0.09757
  Beta virt. eigenvalues --    0.10330   0.10790   0.11231   0.11452   0.11771
  Beta virt. eigenvalues --    0.12019   0.12700   0.13338   0.13935   0.14341
  Beta virt. eigenvalues --    0.14437   0.15083   0.15697   0.15966   0.16297
  Beta virt. eigenvalues --    0.16326   0.16406   0.16767   0.17143   0.17160
  Beta virt. eigenvalues --    0.17570   0.17852   0.18142   0.18310   0.18423
  Beta virt. eigenvalues --    0.18937   0.19156   0.19365   0.19760   0.19932
  Beta virt. eigenvalues --    0.20268   0.20762   0.21118   0.21541   0.21658
  Beta virt. eigenvalues --    0.22060   0.22151   0.22435   0.23210   0.23706
  Beta virt. eigenvalues --    0.24074   0.25076   0.25564   0.25746   0.26149
  Beta virt. eigenvalues --    0.26276   0.26888   0.27205   0.27489   0.27524
  Beta virt. eigenvalues --    0.28065   0.28372   0.30526   0.30767   0.31357
  Beta virt. eigenvalues --    0.31953   0.32457   0.32973   0.33996   0.34273
  Beta virt. eigenvalues --    0.35240   0.35859   0.36723   0.37035   0.37296
  Beta virt. eigenvalues --    0.37777   0.38056   0.39086   0.40590   0.41584
  Beta virt. eigenvalues --    0.42031   0.43126   0.44664   0.44699   0.44897
  Beta virt. eigenvalues --    0.45305   0.46639   0.48366   0.48460   0.48870
  Beta virt. eigenvalues --    0.49261   0.50158   0.50705   0.50945   0.51287
  Beta virt. eigenvalues --    0.51449   0.51986   0.52500   0.52766   0.52912
  Beta virt. eigenvalues --    0.53420   0.53562   0.54014   0.54261   0.54811
  Beta virt. eigenvalues --    0.55287   0.55627   0.56301   0.56510   0.56705
  Beta virt. eigenvalues --    0.57138   0.57782   0.57952   0.58902   0.59340
  Beta virt. eigenvalues --    0.59627   0.60128   0.60389   0.60774   0.61228
  Beta virt. eigenvalues --    0.61692   0.61946   0.62215   0.62949   0.63147
  Beta virt. eigenvalues --    0.63854   0.64521   0.64661   0.65020   0.65412
  Beta virt. eigenvalues --    0.65924   0.66039   0.66422   0.66665   0.67171
  Beta virt. eigenvalues --    0.67185   0.67437   0.67540   0.67912   0.68550
  Beta virt. eigenvalues --    0.68839   0.69260   0.69894   0.70164   0.71031
  Beta virt. eigenvalues --    0.71153   0.71412   0.71974   0.72603   0.73152
  Beta virt. eigenvalues --    0.73483   0.74116   0.74502   0.75136   0.75778
  Beta virt. eigenvalues --    0.76237   0.76756   0.77451   0.77699   0.77875
  Beta virt. eigenvalues --    0.78462   0.78908   0.78993   0.79253   0.79770
  Beta virt. eigenvalues --    0.80176   0.80349   0.81199   0.81713   0.81912
  Beta virt. eigenvalues --    0.82199   0.82637   0.83218   0.83983   0.84445
  Beta virt. eigenvalues --    0.84794   0.85451   0.86277   0.86941   0.87541
  Beta virt. eigenvalues --    0.87685   0.87896   0.87926   0.88457   0.88787
  Beta virt. eigenvalues --    0.89015   0.89381   0.89521   0.90228   0.90472
  Beta virt. eigenvalues --    0.91237   0.91545   0.92210   0.92456   0.92846
  Beta virt. eigenvalues --    0.93168   0.93684   0.94006   0.94354   0.94626
  Beta virt. eigenvalues --    0.94717   0.95119   0.95558   0.96118   0.96597
  Beta virt. eigenvalues --    0.96805   0.97135   0.97810   0.98015   0.98458
  Beta virt. eigenvalues --    0.99364   1.00087   1.00184   1.00420   1.00503
  Beta virt. eigenvalues --    1.00979   1.01165   1.01766   1.01924   1.02631
  Beta virt. eigenvalues --    1.03286   1.04187   1.04787   1.05165   1.05785
  Beta virt. eigenvalues --    1.06147   1.06691   1.06981   1.07510   1.07702
  Beta virt. eigenvalues --    1.08897   1.09179   1.10474   1.10930   1.11633
  Beta virt. eigenvalues --    1.14127   1.14315   1.15789   1.16577   1.16837
  Beta virt. eigenvalues --    1.17654   1.17795   1.18475   1.19461   1.19776
  Beta virt. eigenvalues --    1.19982   1.20206   1.20869   1.21128   1.21305
  Beta virt. eigenvalues --    1.22495   1.23054   1.23732   1.24001   1.24867
  Beta virt. eigenvalues --    1.25967   1.26256   1.27968   1.29115   1.29653
  Beta virt. eigenvalues --    1.30327   1.30441   1.32189   1.32433   1.32978
  Beta virt. eigenvalues --    1.33501   1.34066   1.34287   1.34763   1.35299
  Beta virt. eigenvalues --    1.37007   1.37376   1.38092   1.38366   1.38749
  Beta virt. eigenvalues --    1.39043   1.39689   1.40245   1.40382   1.40749
  Beta virt. eigenvalues --    1.41643   1.41831   1.42566   1.44929   1.45145
  Beta virt. eigenvalues --    1.45710   1.46434   1.46804   1.47049   1.47714
  Beta virt. eigenvalues --    1.48987   1.50342   1.50750   1.51652   1.52039
  Beta virt. eigenvalues --    1.54134   1.54717   1.55126   1.55511   1.56491
  Beta virt. eigenvalues --    1.57355   1.57943   1.59036   1.60652   1.61334
  Beta virt. eigenvalues --    1.61384   1.63118   1.63340   1.63761   1.64033
  Beta virt. eigenvalues --    1.64914   1.65496   1.68274   1.69152   1.70611
  Beta virt. eigenvalues --    1.70667   1.72156   1.72916   1.73948   1.76388
  Beta virt. eigenvalues --    1.79009   1.79155   1.79859   1.80258   1.81075
  Beta virt. eigenvalues --    1.81490   1.81734   1.82356   1.82559   1.82855
  Beta virt. eigenvalues --    1.83118   1.83592   1.83777   1.84760   1.84967
  Beta virt. eigenvalues --    1.86301   1.86489   1.87562   1.87907   1.88506
  Beta virt. eigenvalues --    1.88875   1.89031   1.89797   1.90137   1.91321
  Beta virt. eigenvalues --    1.91948   1.93048   1.93413   1.93841   1.94916
  Beta virt. eigenvalues --    1.95507   1.95795   1.96591   1.97395   1.98295
  Beta virt. eigenvalues --    2.00245   2.00468   2.00875   2.01237   2.01884
  Beta virt. eigenvalues --    2.01977   2.02229   2.02581   2.03285   2.04573
  Beta virt. eigenvalues --    2.05163   2.06176   2.06619   2.07300   2.07958
  Beta virt. eigenvalues --    2.08178   2.08698   2.09858   2.10634   2.11494
  Beta virt. eigenvalues --    2.11751   2.12602   2.13535   2.13999   2.14543
  Beta virt. eigenvalues --    2.15670   2.16562   2.17312   2.17527   2.18782
  Beta virt. eigenvalues --    2.19430   2.20540   2.20963   2.21595   2.22309
  Beta virt. eigenvalues --    2.23761   2.24146   2.24255   2.24824   2.24930
  Beta virt. eigenvalues --    2.25892   2.26304   2.26911   2.27637   2.28050
  Beta virt. eigenvalues --    2.28660   2.28683   2.29480   2.29588   2.30182
  Beta virt. eigenvalues --    2.31203   2.31706   2.32250   2.33807   2.33947
  Beta virt. eigenvalues --    2.34394   2.34716   2.35621   2.36136   2.36750
  Beta virt. eigenvalues --    2.37216   2.37569   2.37711   2.38195   2.38686
  Beta virt. eigenvalues --    2.39271   2.40182   2.40874   2.41629   2.42154
  Beta virt. eigenvalues --    2.42231   2.43088   2.44048   2.44298   2.45270
  Beta virt. eigenvalues --    2.45322   2.46187   2.47244   2.47574   2.49054
  Beta virt. eigenvalues --    2.50731   2.51847   2.52769   2.53703   2.53882
  Beta virt. eigenvalues --    2.54095   2.55021   2.56443   2.56906   2.57434
  Beta virt. eigenvalues --    2.58229   2.58932   2.60636   2.61783   2.62099
  Beta virt. eigenvalues --    2.62410   2.64205   2.66313   2.67803   2.68942
  Beta virt. eigenvalues --    2.70393   2.71073   2.71547   2.72160   2.72783
  Beta virt. eigenvalues --    2.73890   2.74553   2.76751   2.78187   2.79357
  Beta virt. eigenvalues --    2.80862   2.81460   2.82132   2.86388   2.87383
  Beta virt. eigenvalues --    2.88512   2.89447   2.91489   2.92242   2.93491
  Beta virt. eigenvalues --    2.96379   2.96384   2.97380   2.98985   2.99395
  Beta virt. eigenvalues --    2.99514   3.00393   3.01030   3.04408   3.05937
  Beta virt. eigenvalues --    3.06181   3.12951   3.14501   3.15167   3.21159
  Beta virt. eigenvalues --    3.24460   3.25835   3.31026   3.31214   3.39573
  Beta virt. eigenvalues --    3.40249   3.41552   3.46942   3.47395   3.51543
  Beta virt. eigenvalues --    3.63300   3.68478   3.88666   4.05447   4.22972
          Condensed to atoms (all electrons):
          Atomic-Atomic Spin Densities.
 Mulliken charges and spin densities:
               1          2
     1  Fe   0.956712   2.927643
     2  N   -0.705154  -0.006231
     3  N   -0.702666  -0.022937
     4  N   -0.706003  -0.001288
     5  N   -0.691753  -0.026496
     6  C    0.310819   0.147170
     7  C    0.038979  -0.047745
     8  C    0.025820   0.119509
     9  C    0.333929  -0.066802
    10  C    0.325720  -0.059766
    11  C    0.026641   0.129756
    12  C   -0.002520  -0.035514
    13  C    0.315862   0.122702
    14  C    0.302597   0.123373
    15  C    0.046659  -0.038169
    16  C   -0.020517   0.116404
    17  C    0.333995  -0.064925
    18  C    0.321717  -0.047036
    19  C    0.024020   0.124954
    20  C    0.039829  -0.034424
    21  C    0.301909   0.158528
    22  C   -0.299000  -0.093513
    23  H    0.160730   0.003603
    24  C   -0.362448   0.267619
    25  H    0.152964  -0.013459
    26  C   -0.295773  -0.081433
    27  H    0.165250   0.003229
    28  C   -0.367942   0.267602
    29  H    0.152154  -0.013585
    30  C   -0.607137  -0.011509
    31  H    0.183935   0.005724
    32  H    0.180880   0.000006
    33  H    0.191509   0.006891
    34  C   -0.609669   0.003006
    35  H    0.188698  -0.000966
    36  H    0.192260  -0.001199
    37  H    0.183558  -0.000559
    38  C   -0.608691  -0.012130
    39  H    0.180317   0.006951
    40  H    0.184396   0.004933
    41  H    0.192814   0.000615
    42  C   -0.146612   0.002513
    43  H    0.166420  -0.000582
    44  C   -0.403472   0.004608
    45  H    0.172697  -0.000256
    46  H    0.164994  -0.000399
    47  C   -0.611141   0.002301
    48  H    0.186319  -0.000347
    49  H    0.185878  -0.000707
    50  H    0.196717  -0.000742
    51  C   -0.145616  -0.039368
    52  H    0.164891   0.005137
    53  C   -0.408807   0.064006
    54  H    0.169304  -0.003259
    55  H    0.162559  -0.003142
    56  C   -0.607292  -0.012084
    57  H    0.184103   0.004907
    58  H    0.190550   0.007721
    59  H    0.180474   0.000090
    60  C   -0.609195   0.001693
    61  H    0.182735  -0.000515
    62  H    0.192896  -0.000633
    63  H    0.186504  -0.000427
    64  C   -0.601898   0.000974
    65  H    0.198583   0.000126
    66  H    0.215422   0.000047
    67  H    0.199693   0.000142
    68  N   -0.633030   0.004765
    69  H    0.372207   0.001698
    70  C    0.275278   0.004059
    71  C    0.262887   0.010690
    72  H    0.237407   0.000736
    73  N   -0.498331   0.083311
    74  C   -0.032458   0.001315
    75  H    0.213932   0.001089
 Sum of Mulliken charges =  -0.00000   4.00000
 Mulliken charges and spin densities with hydrogens summed into heavy atoms:
               1          2
     1  Fe   0.956712   2.927643
     2  N   -0.705154  -0.006231
     3  N   -0.702666  -0.022937
     4  N   -0.706003  -0.001288
     5  N   -0.691753  -0.026496
     6  C    0.310819   0.147170
     7  C    0.038979  -0.047745
     8  C    0.025820   0.119509
     9  C    0.333929  -0.066802
    10  C    0.325720  -0.059766
    11  C    0.026641   0.129756
    12  C   -0.002520  -0.035514
    13  C    0.315862   0.122702
    14  C    0.302597   0.123373
    15  C    0.046659  -0.038169
    16  C   -0.020517   0.116404
    17  C    0.333995  -0.064925
    18  C    0.321717  -0.047036
    19  C    0.024020   0.124954
    20  C    0.039829  -0.034424
    21  C    0.301909   0.158528
    22  C   -0.138270  -0.089910
    24  C   -0.209483   0.254160
    26  C   -0.130523  -0.078203
    28  C   -0.215788   0.254017
    30  C   -0.050813   0.001112
    34  C   -0.045153   0.000282
    38  C   -0.051164   0.000368
    42  C    0.019808   0.001931
    44  C   -0.065782   0.003954
    47  C   -0.042226   0.000505
    51  C    0.019275  -0.034231
    53  C   -0.076944   0.057605
    56  C   -0.052165   0.000633
    60  C   -0.047060   0.000119
    64  C    0.011800   0.001290
    68  N   -0.260823   0.006463
    70  C    0.275278   0.004059
    71  C    0.500293   0.011425
    73  N   -0.498331   0.083311
    74  C    0.181474   0.002404
 Electronic spatial extent (au):  <R**2>=          19909.9685
 Charge=             -0.0000 electrons
 Dipole moment (field-independent basis, Debye):
    X=              0.3920    Y=              1.0717    Z=              6.4635  Tot=              6.5635
 Quadrupole moment (field-independent basis, Debye-Ang):
   XX=           -233.9284   YY=           -233.6612   ZZ=           -216.1869
   XY=             -0.1987   XZ=              0.6078   YZ=             -2.6668
 Traceless Quadrupole moment (field-independent basis, Debye-Ang):
   XX=             -6.0029   YY=             -5.7357   ZZ=             11.7386
   XY=             -0.1987   XZ=              0.6078   YZ=             -2.6668
 Octapole moment (field-independent basis, Debye-Ang**2):
  XXX=             12.5421  YYY=             26.3797  ZZZ=            198.5125  XYY=              0.6841
  XXY=             28.0003  XXZ=             15.8938  XZZ=              0.2481  YZZ=              5.5264
  YYZ=            -25.5683  XYZ=              0.9688
 Hexadecapole moment (field-independent basis, Debye-Ang**3):
 XXXX=         -11754.6016 YYYY=         -11078.8325 ZZZZ=          -2664.4175 XXXY=            -29.4141
 XXXZ=             77.2267 YYYX=            -15.9388 YYYZ=            -22.3645 ZZZX=              0.7314
 ZZZY=            -42.0964 XXYY=          -3852.7447 XXZZ=          -2605.2359 YYZZ=          -2582.6264
 XXYZ=            -64.2201 YYXZ=            -20.9723 ZZXY=              8.3109
 N-N= 5.557672446973D+03 E-N=-1.794293378805D+04  KE= 2.896513772143D+03
                          Isotropic Fermi Contact Couplings
        Atom                 a.u.       MegaHertz       Gauss      10(-4) cm-1
     1  Fe(57)             0.47500      17.22334       6.14571       5.74509
     2  N(14)             -0.03194      -2.58033      -0.92072      -0.86070
     3  N(14)             -0.03465      -2.79899      -0.99875      -0.93364
     4  N(14)             -0.02603      -2.10281      -0.75033      -0.70142
     5  N(14)             -0.03373      -2.72486      -0.97230      -0.90892
     6  C(13)              0.01743       4.89824       1.74781       1.63388
     7  C(13)             -0.01112      -3.12489      -1.11504      -1.04235
     8  C(13)              0.01673       4.70068       1.67732       1.56798
     9  C(13)             -0.01662      -4.67193      -1.66706      -1.55839
    10  C(13)             -0.01565      -4.39966      -1.56991      -1.46757
    11  C(13)              0.01787       5.02151       1.79180       1.67500
    12  C(13)             -0.00907      -2.55006      -0.90993      -0.85061
    13  C(13)              0.01418       3.98613       1.42235       1.32963
    14  C(13)              0.01389       3.90495       1.39338       1.30255
    15  C(13)             -0.00949      -2.66665      -0.95153      -0.88950
    16  C(13)              0.01586       4.45829       1.59083       1.48712
    17  C(13)             -0.01700      -4.77750      -1.70473      -1.59360
    18  C(13)             -0.01322      -3.71460      -1.32546      -1.23906
    19  C(13)              0.01765       4.95929       1.76960       1.65424
    20  C(13)             -0.00940      -2.64256      -0.94293      -0.88146
    21  C(13)              0.01974       5.54848       1.97984       1.85077
    22  C(13)             -0.01579      -4.43675      -1.58314      -1.47994
    23  H(1)               0.00110       1.22639       0.43761       0.40908
    24  C(13)              0.03590      10.08989       3.60032       3.36562
    25  H(1)              -0.00418      -4.67172      -1.66699      -1.55832
    26  C(13)             -0.01347      -3.78660      -1.35115      -1.26307
    27  H(1)               0.00097       1.08201       0.38609       0.36092
    28  C(13)              0.03704      10.40922       3.71427       3.47214
    29  H(1)              -0.00417      -4.66449      -1.66441      -1.55591
    30  C(13)             -0.00430      -1.20745      -0.43085      -0.40276
    31  H(1)               0.00213       2.38330       0.85042       0.79498
    32  H(1)              -0.00002      -0.01872      -0.00668      -0.00625
    33  H(1)               0.00239       2.66947       0.95253       0.89044
    34  C(13)              0.00082       0.23056       0.08227       0.07690
    35  H(1)              -0.00027      -0.30192      -0.10773      -0.10071
    36  H(1)              -0.00039      -0.44003      -0.15701      -0.14678
    37  H(1)              -0.00023      -0.25659      -0.09156      -0.08559
    38  C(13)             -0.00445      -1.25093      -0.44636      -0.41726
    39  H(1)               0.00305       3.40993       1.21675       1.13743
    40  H(1)               0.00140       1.56642       0.55894       0.52250
    41  H(1)               0.00042       0.46529       0.16603       0.15520
    42  C(13)              0.00041       0.11644       0.04155       0.03884
    43  H(1)              -0.00013      -0.14099      -0.05031      -0.04703
    44  C(13)              0.00021       0.05932       0.02117       0.01979
    45  H(1)              -0.00006      -0.06184      -0.02207      -0.02063
    46  H(1)              -0.00012      -0.13301      -0.04746      -0.04437
    47  C(13)              0.00105       0.29627       0.10572       0.09882
    48  H(1)              -0.00014      -0.15660      -0.05588      -0.05224
    49  H(1)              -0.00019      -0.20931      -0.07469      -0.06982
    50  H(1)              -0.00025      -0.27624      -0.09857      -0.09214
    51  C(13)             -0.00752      -2.11480      -0.75461      -0.70542
    52  H(1)               0.00117       1.31175       0.46807       0.43755
    53  C(13)              0.00933       2.62103       0.93525       0.87428
    54  H(1)              -0.00099      -1.10715      -0.39506      -0.36930
    55  H(1)              -0.00097      -1.08540      -0.38730      -0.36205
    56  C(13)             -0.00448      -1.26050      -0.44978      -0.42046
    57  H(1)               0.00200       2.23997       0.79928       0.74717
    58  H(1)               0.00277       3.09238       1.10344       1.03151
    59  H(1)               0.00004       0.04671       0.01667       0.01558
    60  C(13)              0.00041       0.11611       0.04143       0.03873
    61  H(1)              -0.00022      -0.24464      -0.08729      -0.08160
    62  H(1)              -0.00005      -0.05369      -0.01916      -0.01791
    63  H(1)              -0.00000      -0.00374      -0.00134      -0.00125
    64  C(13)              0.00067       0.18961       0.06766       0.06325
    65  H(1)               0.00008       0.08613       0.03073       0.02873
    66  H(1)               0.00004       0.05003       0.01785       0.01669
    67  H(1)               0.00009       0.09638       0.03439       0.03215
    68  N(14)              0.00894       0.72223       0.25771       0.24091
    69  H(1)               0.00060       0.67151       0.23961       0.22399
    70  C(13)              0.00465       1.30779       0.46665       0.43623
    71  C(13)              0.00740       2.08025       0.74229       0.69390
    72  H(1)               0.00010       0.11303       0.04033       0.03770
    73  N(14)              0.16353      13.20953       4.71349       4.40623
    74  C(13)              0.00305       0.85606       0.30546       0.28555
    75  H(1)               0.00040       0.44844       0.16002       0.14958
 --------------------------------------------------------
       Center         ----  Spin Dipole Couplings  ----
                      3XX-RR        3YY-RR        3ZZ-RR
 --------------------------------------------------------
     1   Atom       -2.421378     -2.344502      4.765880
     2   Atom       -0.062932     -0.064079      0.127012
     3   Atom       -0.048784     -0.051078      0.099862
     4   Atom       -0.071220     -0.071360      0.142580
     5   Atom       -0.042223     -0.047225      0.089448
     6   Atom       -0.080326     -0.056087      0.136413
     7   Atom        0.008832      0.019989     -0.028821
     8   Atom       -0.054504     -0.059308      0.113813
     9   Atom        0.033196      0.015917     -0.049113
    10   Atom        0.030908      0.010594     -0.041502
    11   Atom       -0.060599     -0.070323      0.130922
    12   Atom        0.004199      0.012686     -0.016885
    13   Atom       -0.066411     -0.050522      0.116934
    14   Atom       -0.072471     -0.040576      0.113047
    15   Atom        0.006674      0.016440     -0.023115
    16   Atom       -0.056015     -0.050094      0.106109
    17   Atom        0.035558      0.015499     -0.051057
    18   Atom        0.025682      0.003480     -0.029163
    19   Atom       -0.059331     -0.054855      0.114186
    20   Atom        0.003787      0.012308     -0.016095
    21   Atom       -0.086626     -0.060865      0.147491
    22   Atom        0.028654      0.048765     -0.077419
    23   Atom        0.000166      0.006927     -0.007092
    24   Atom       -0.105714     -0.142201      0.247915
    25   Atom        0.025411     -0.019845     -0.005566
    26   Atom        0.024122      0.045316     -0.069438
    27   Atom       -0.000197      0.006763     -0.006566
    28   Atom       -0.107455     -0.142936      0.250392
    29   Atom        0.026575     -0.020233     -0.006342
    30   Atom        0.003647     -0.000151     -0.003496
    31   Atom        0.005178     -0.001080     -0.004098
    32   Atom        0.002023      0.000646     -0.002668
    33   Atom        0.004030     -0.001330     -0.002701
    34   Atom       -0.002020      0.004724     -0.002704
    35   Atom       -0.002097      0.005136     -0.003039
    36   Atom       -0.002145      0.004463     -0.002318
    37   Atom       -0.000885      0.003305     -0.002421
    38   Atom        0.004848     -0.001569     -0.003279
    39   Atom        0.005659     -0.001962     -0.003697
    40   Atom        0.005907     -0.002387     -0.003520
    41   Atom        0.003212     -0.000540     -0.002672
    42   Atom       -0.000493      0.003643     -0.003150
    43   Atom       -0.001876      0.004437     -0.002561
    44   Atom        0.001306      0.000311     -0.001617
    45   Atom        0.000400      0.001597     -0.001997
    46   Atom       -0.000428      0.001987     -0.001559
    47   Atom       -0.001443      0.004419     -0.002976
    48   Atom       -0.001441      0.004326     -0.002885
    49   Atom       -0.002227      0.004680     -0.002453
    50   Atom       -0.000276      0.002662     -0.002385
    51   Atom        0.015672      0.007597     -0.023269
    52   Atom        0.005912     -0.001556     -0.004356
    53   Atom       -0.027347     -0.010923      0.038270
    54   Atom       -0.000901      0.003114     -0.002213
    55   Atom        0.005581     -0.003273     -0.002308
    56   Atom        0.005494     -0.001648     -0.003846
    57   Atom        0.006200     -0.002219     -0.003981
    58   Atom        0.005989     -0.002486     -0.003502
    59   Atom        0.003678     -0.000680     -0.002998
    60   Atom       -0.001180      0.004182     -0.003002
    61   Atom        0.000042      0.002556     -0.002597
    62   Atom       -0.001526      0.003813     -0.002287
    63   Atom       -0.001554      0.004742     -0.003188
    64   Atom       -0.001961     -0.003907      0.005868
    65   Atom       -0.001693     -0.002205      0.003898
    66   Atom       -0.000280     -0.002978      0.003258
    67   Atom       -0.001605     -0.002053      0.003658
    68   Atom       -0.011855     -0.003542      0.015397
    69   Atom       -0.003559     -0.004530      0.008089
    70   Atom       -0.006637     -0.008381      0.015018
    71   Atom       -0.009529     -0.014004      0.023533
    72   Atom        0.002494     -0.015283      0.012789
    73   Atom       -0.139103     -0.124829      0.263932
    74   Atom        0.002903     -0.024353      0.021449
    75   Atom        0.010144     -0.015710      0.005566
 --------------------------------------------------------
                        XY            XZ            YZ
 --------------------------------------------------------
     1   Atom       -0.059069      0.705087     -0.226420
     2   Atom        0.010576      0.031970      0.018815
     3   Atom       -0.003509     -0.008294      0.006494
     4   Atom        0.004820      0.020437     -0.005171
     5   Atom       -0.006813      0.002946      0.012234
     6   Atom        0.016394      0.031103      0.024206
     7   Atom        0.002641     -0.008630     -0.006573
     8   Atom        0.011260      0.025457      0.029750
     9   Atom        0.008460     -0.013313     -0.009165
    10   Atom       -0.007071     -0.009849      0.005318
    11   Atom       -0.007664      0.023113     -0.019511
    12   Atom       -0.004030     -0.003704      0.004643
    13   Atom       -0.016690      0.009880     -0.007734
    14   Atom        0.012038      0.005928     -0.030128
    15   Atom        0.004964     -0.001935      0.006199
    16   Atom        0.007093     -0.000337     -0.043458
    17   Atom        0.009626     -0.002297      0.010234
    18   Atom       -0.007475     -0.002248     -0.006551
    19   Atom       -0.010109     -0.015406      0.054989
    20   Atom       -0.005042      0.002341     -0.001878
    21   Atom       -0.018279     -0.006783      0.048233
    22   Atom       -0.002655     -0.007376     -0.015187
    23   Atom       -0.000690     -0.000389     -0.001257
    24   Atom        0.002388      0.025352     -0.000188
    25   Atom        0.003638     -0.004115     -0.000305
    26   Atom       -0.000727     -0.006737      0.017148
    27   Atom       -0.000611     -0.000547      0.001631
    28   Atom        0.001408      0.023650     -0.019463
    29   Atom        0.003319      0.000712     -0.000591
    30   Atom        0.004629     -0.001247     -0.000883
    31   Atom        0.003887      0.000369      0.000120
    32   Atom        0.004375     -0.001070     -0.000929
    33   Atom        0.003359     -0.003461     -0.001686
    34   Atom        0.002819     -0.000501     -0.001032
    35   Atom        0.002107     -0.000099      0.000246
    36   Atom        0.001781     -0.000531     -0.002507
    37   Atom        0.002505     -0.000467     -0.000938
    38   Atom       -0.003890     -0.001272      0.001193
    39   Atom       -0.003102      0.000962     -0.000360
    40   Atom       -0.002346     -0.003175      0.000859
    41   Atom       -0.004006     -0.001802      0.000973
    42   Atom       -0.003657     -0.001149      0.001341
    43   Atom       -0.002383     -0.000576      0.002014
    44   Atom       -0.001484     -0.003812     -0.000525
    45   Atom       -0.002789      0.000326     -0.000209
    46   Atom       -0.001707     -0.000332      0.000313
    47   Atom        0.002969      0.000214      0.001147
    48   Atom        0.002038      0.000031     -0.000077
    49   Atom        0.001796      0.000367      0.002612
    50   Atom        0.002417      0.000261      0.001619
    51   Atom        0.008364      0.002628     -0.012787
    52   Atom        0.004992      0.001279      0.000774
    53   Atom        0.000436     -0.004408      0.037331
    54   Atom       -0.000407      0.000664     -0.001111
    55   Atom        0.002384      0.000433      0.001614
    56   Atom       -0.004084      0.000145     -0.000186
    57   Atom       -0.002712     -0.001640      0.000279
    58   Atom       -0.002403      0.002903     -0.000886
    59   Atom       -0.004142      0.000556     -0.000359
    60   Atom       -0.004034      0.000438     -0.000713
    61   Atom       -0.003282      0.000518     -0.000833
    62   Atom       -0.002958      0.000934     -0.002739
    63   Atom       -0.002949      0.000036      0.000168
    64   Atom       -0.000094      0.003875     -0.000285
    65   Atom        0.000196      0.001834      0.000829
    66   Atom        0.000005      0.003549     -0.000056
    67   Atom       -0.000365      0.001982     -0.001232
    68   Atom       -0.000946      0.000896     -0.001337
    69   Atom        0.000232     -0.002302     -0.001013
    70   Atom       -0.000047      0.004160     -0.001223
    71   Atom        0.002000     -0.021240     -0.004086
    72   Atom        0.002512     -0.017053     -0.003068
    73   Atom       -0.003648      0.043820     -0.019336
    74   Atom        0.000456      0.028287     -0.000341
    75   Atom        0.001227      0.018082      0.000528
 --------------------------------------------------------


 ---------------------------------------------------------------------------------
              Anisotropic Spin Dipole Couplings in Principal Axis System
 ---------------------------------------------------------------------------------

       Atom             a.u.   MegaHertz   Gauss  10(-4) cm-1        Axes

              Baa    -2.4991   -43.267   -15.439   -14.432  0.9662  0.2429 -0.0862
     1 Fe(57) Bbb    -2.3427   -40.559   -14.472   -13.529 -0.2388  0.9695  0.0546
              Bcc     4.8418    83.826    29.911    27.961  0.0968 -0.0321  0.9948
 
              Baa    -0.0746    -2.877    -1.026    -0.960  0.7541 -0.6541 -0.0585
     2 N(14)  Bbb    -0.0597    -2.304    -0.822    -0.768  0.6358  0.7495 -0.1844
              Bcc     0.1343     5.181     1.849     1.728  0.1645  0.1018  0.9811
 
              Baa    -0.0536    -2.068    -0.738    -0.690  0.5838  0.8119 -0.0028
     3 N(14)  Bbb    -0.0470    -1.812    -0.647    -0.605  0.8099 -0.5822  0.0715
              Bcc     0.1006     3.881     1.385     1.294 -0.0564  0.0440  0.9974
 
              Baa    -0.0777    -2.995    -1.069    -0.999  0.7563 -0.6486 -0.0854
     4 N(14)  Bbb    -0.0670    -2.582    -0.921    -0.861  0.6475  0.7608 -0.0444
              Bcc     0.1446     5.578     1.990     1.860  0.0938 -0.0217  0.9954
 
              Baa    -0.0530    -2.042    -0.729    -0.681  0.5502  0.8309 -0.0828
     5 N(14)  Bbb    -0.0376    -1.451    -0.518    -0.484  0.8348 -0.5495  0.0335
              Bcc     0.0906     3.493     1.246     1.165  0.0176  0.0876  0.9960
 
              Baa    -0.0900   -12.083    -4.312    -4.030  0.9197 -0.3832 -0.0854
     6 C(13)  Bbb    -0.0542    -7.273    -2.595    -2.426  0.3647  0.9144 -0.1756
              Bcc     0.1442    19.356     6.907     6.456  0.1454  0.1304  0.9807
 
              Baa    -0.0314    -4.211    -1.502    -1.404  0.2013  0.1141  0.9729
     7 C(13)  Bbb     0.0093     1.253     0.447     0.418  0.9324 -0.3266 -0.1546
              Bcc     0.0220     2.958     1.055     0.987  0.3001  0.9382 -0.1722
 
              Baa    -0.0688    -9.238    -3.296    -3.082 -0.5494  0.8334 -0.0592
     8 C(13)  Bbb    -0.0540    -7.252    -2.588    -2.419  0.8219  0.5263 -0.2179
              Bcc     0.1229    16.490     5.884     5.501  0.1505  0.1684  0.9742
 
              Baa    -0.0521    -6.992    -2.495    -2.332  0.1421  0.1148  0.9832
     9 C(13)  Bbb     0.0126     1.695     0.605     0.565 -0.4063  0.9125 -0.0478
              Bcc     0.0395     5.297     1.890     1.767  0.9026  0.3927 -0.1763
 
              Baa    -0.0432    -5.793    -2.067    -1.932  0.1237 -0.0816  0.9890
    10 C(13)  Bbb     0.0085     1.135     0.405     0.379  0.3156  0.9481  0.0387
              Bcc     0.0347     4.658     1.662     1.554  0.9408 -0.3073 -0.1430
 
              Baa    -0.0748   -10.032    -3.580    -3.346  0.4273  0.9033  0.0377
    11 C(13)  Bbb    -0.0609    -8.173    -2.916    -2.726  0.8961 -0.4176 -0.1504
              Bcc     0.1357    18.206     6.496     6.073  0.1202 -0.0980  0.9879
 
              Baa    -0.0180    -2.419    -0.863    -0.807  0.1400 -0.1300  0.9816
    12 C(13)  Bbb     0.0027     0.365     0.130     0.122  0.9114  0.4043 -0.0764
              Bcc     0.0153     2.054     0.733     0.685 -0.3869  0.9054  0.1751
 
              Baa    -0.0770   -10.339    -3.689    -3.449  0.8491  0.5278 -0.0222
    13 C(13)  Bbb    -0.0409    -5.484    -1.957    -1.829 -0.5251  0.8478  0.0744
              Bcc     0.1179    15.822     5.646     5.278  0.0581 -0.0515  0.9970
 
              Baa    -0.0778   -10.445    -3.727    -3.484  0.9252 -0.3693 -0.0870
    14 C(13)  Bbb    -0.0410    -5.499    -1.962    -1.834  0.3790  0.9108  0.1636
              Bcc     0.1188    15.943     5.689     5.318  0.0189 -0.1843  0.9827
 
              Baa    -0.0243    -3.260    -1.163    -1.088  0.0871 -0.1602  0.9832
    15 C(13)  Bbb     0.0052     0.694     0.248     0.232  0.9321 -0.3352 -0.1372
              Bcc     0.0191     2.566     0.916     0.856  0.3515  0.9284  0.1202
 
              Baa    -0.0660    -8.855    -3.160    -2.954 -0.5631  0.8015  0.2013
    16 C(13)  Bbb    -0.0514    -6.900    -2.462    -2.302  0.8263  0.5425  0.1514
              Bcc     0.1174    15.755     5.622     5.255 -0.0122 -0.2516  0.9678
 
              Baa    -0.0528    -7.079    -2.526    -2.361  0.0425 -0.1540  0.9872
    17 C(13)  Bbb     0.0133     1.783     0.636     0.595 -0.3779  0.9121  0.1586
              Bcc     0.0395     5.296     1.890     1.766  0.9249  0.3798  0.0195
 
              Baa    -0.0307    -4.115    -1.468    -1.373  0.0658  0.2019  0.9772
    18 C(13)  Bbb     0.0027     0.363     0.129     0.121  0.2834  0.9352 -0.2123
              Bcc     0.0280     3.753     1.339     1.252  0.9567 -0.2909 -0.0043
 
              Baa    -0.0734    -9.851    -3.515    -3.286  0.3893  0.8921 -0.2295
    19 C(13)  Bbb    -0.0587    -7.879    -2.811    -2.628  0.9165 -0.3503  0.1931
              Bcc     0.1321    17.730     6.327     5.914 -0.0918  0.2855  0.9540
 
              Baa    -0.0164    -2.204    -0.787    -0.735 -0.1034  0.0468  0.9935
    20 C(13)  Bbb     0.0015     0.207     0.074     0.069  0.8982  0.4335  0.0730
              Bcc     0.0149     1.997     0.713     0.666 -0.4273  0.8999 -0.0869
 
              Baa    -0.0974   -13.073    -4.665    -4.361  0.8448  0.5290 -0.0808
    21 C(13)  Bbb    -0.0611    -8.206    -2.928    -2.737 -0.5333  0.8202 -0.2070
              Bcc     0.1586    21.279     7.593     7.098 -0.0432  0.2179  0.9750
 
              Baa    -0.0798   -10.703    -3.819    -3.570  0.0703  0.1185  0.9905
    22 C(13)  Bbb     0.0290     3.898     1.391     1.300  0.9942  0.0728 -0.0793
              Bcc     0.0507     6.805     2.428     2.270 -0.0815  0.9903 -0.1127
 
              Baa    -0.0072    -3.858    -1.377    -1.287  0.0608  0.0912  0.9940
    23 H(1)   Bbb     0.0001     0.070     0.025     0.023  0.9937  0.0882 -0.0689
              Bcc     0.0071     3.788     1.352     1.264 -0.0940  0.9919 -0.0853
 
              Baa    -0.1424   -19.104    -6.817    -6.372 -0.0684  0.9976  0.0049
    24 C(13)  Bbb    -0.1074   -14.406    -5.141    -4.805  0.9951  0.0686 -0.0710
              Bcc     0.2497    33.510    11.957    11.178  0.0711 -0.0000  0.9975
 
              Baa    -0.0201   -10.743    -3.833    -3.584 -0.0798  0.9968 -0.0016
    25 H(1)   Bbb    -0.0061    -3.255    -1.162    -1.086  0.1281  0.0119  0.9917
              Bcc     0.0262    13.999     4.995     4.669  0.9885  0.0789 -0.1287
 
              Baa    -0.0724    -9.714    -3.466    -3.240  0.0678 -0.1434  0.9873
    26 C(13)  Bbb     0.0244     3.280     1.171     1.094  0.9951  0.0811 -0.0566
              Bcc     0.0479     6.434     2.296     2.146 -0.0720  0.9863  0.1482
 
              Baa    -0.0068    -3.626    -1.294    -1.209  0.0713 -0.1160  0.9907
    27 H(1)   Bbb    -0.0002    -0.121    -0.043    -0.040  0.9931  0.1008 -0.0597
              Bcc     0.0070     3.747     1.337     1.250 -0.0930  0.9881  0.1223
 
              Baa    -0.1441   -19.335    -6.899    -6.449 -0.0728  0.9959  0.0535
    28 C(13)  Bbb    -0.1088   -14.601    -5.210    -4.870  0.9952  0.0761 -0.0614
              Bcc     0.2529    33.936    12.109    11.320  0.0652 -0.0488  0.9967
 
              Baa    -0.0205   -10.936    -3.902    -3.648 -0.0709  0.9965  0.0452
    29 H(1)   Bbb    -0.0063    -3.375    -1.204    -1.126 -0.0169 -0.0465  0.9988
              Bcc     0.0268    14.311     5.107     4.774  0.9973  0.0701  0.0202
 
              Baa    -0.0037    -0.499    -0.178    -0.167  0.0734  0.1489  0.9861
    30 C(13)  Bbb    -0.0033    -0.436    -0.156    -0.146 -0.5654  0.8207 -0.0818
              Bcc     0.0070     0.936     0.334     0.312  0.8215  0.5516 -0.1444
 
              Baa    -0.0041    -2.195    -0.783    -0.732 -0.0501  0.0248  0.9984
    31 H(1)   Bbb    -0.0029    -1.568    -0.559    -0.523 -0.4298  0.9018 -0.0439
              Bcc     0.0071     3.763     1.343     1.255  0.9015  0.4314  0.0345
 
              Baa    -0.0031    -1.652    -0.589    -0.551 -0.6425  0.7645  0.0529
    32 H(1)   Bbb    -0.0029    -1.547    -0.552    -0.516  0.1573  0.0640  0.9855
              Bcc     0.0060     3.199     1.141     1.067  0.7500  0.6414 -0.1614
 
              Baa    -0.0042    -2.244    -0.801    -0.748  0.3222  0.1697  0.9314
    33 H(1)   Bbb    -0.0029    -1.572    -0.561    -0.524 -0.4386  0.8986 -0.0120
              Bcc     0.0072     3.816     1.362     1.273  0.8390  0.4046 -0.3639
 
              Baa    -0.0031    -0.416    -0.148    -0.139  0.8659 -0.2552  0.4303
    34 C(13)  Bbb    -0.0028    -0.376    -0.134    -0.125 -0.3672  0.2601  0.8930
              Bcc     0.0059     0.791     0.282     0.264  0.3398  0.9312 -0.1316
 
              Baa    -0.0031    -1.655    -0.591    -0.552  0.3253 -0.1113  0.9390
    35 H(1)   Bbb    -0.0026    -1.391    -0.496    -0.464  0.9091 -0.2365 -0.3430
              Bcc     0.0057     3.047     1.087     1.016  0.2603  0.9652  0.0242
 
              Baa    -0.0031    -1.680    -0.600    -0.560 -0.0901  0.3306  0.9395
    36 H(1)   Bbb    -0.0026    -1.376    -0.491    -0.459  0.9691 -0.1885  0.1592
              Bcc     0.0057     3.056     1.091     1.019  0.2297  0.9248 -0.3034
 
              Baa    -0.0026    -1.375    -0.491    -0.459  0.1072  0.1118  0.9879
    37 H(1)   Bbb    -0.0021    -1.096    -0.391    -0.365  0.9015 -0.4300 -0.0492
              Bcc     0.0046     2.471     0.882     0.824  0.4193  0.8959 -0.1469
 
              Baa    -0.0040    -0.538    -0.192    -0.179 -0.1758 -0.6440  0.7445
    38 C(13)  Bbb    -0.0029    -0.395    -0.141    -0.132  0.4224  0.6338  0.6480
              Bcc     0.0070     0.933     0.333     0.311  0.8892 -0.4284 -0.1606
 
              Baa    -0.0038    -2.026    -0.723    -0.676 -0.0838  0.0534  0.9951
    39 H(1)   Bbb    -0.0031    -1.635    -0.583    -0.545  0.3371  0.9412 -0.0221
              Bcc     0.0069     3.661     1.306     1.221  0.9377 -0.3336  0.0968
 
              Baa    -0.0045    -2.401    -0.857    -0.801  0.2728 -0.0864  0.9582
    40 H(1)   Bbb    -0.0030    -1.603    -0.572    -0.535  0.2590  0.9658  0.0134
              Bcc     0.0075     4.004     1.429     1.336  0.9265 -0.2446 -0.2858
 
              Baa    -0.0033    -1.739    -0.620    -0.580  0.4860  0.4471  0.7509
    41 H(1)   Bbb    -0.0030    -1.584    -0.565    -0.529  0.2905  0.7277 -0.6213
              Bcc     0.0062     3.323     1.186     1.108  0.8243 -0.5200 -0.2238
 
              Baa    -0.0036    -0.480    -0.171    -0.160  0.3562  0.0069  0.9344
    42 C(13)  Bbb    -0.0025    -0.339    -0.121    -0.113  0.7887  0.5339 -0.3047
              Bcc     0.0061     0.819     0.292     0.273 -0.5010  0.8455  0.1847
 
              Baa    -0.0031    -1.657    -0.591    -0.553 -0.1189 -0.2910  0.9493
    43 H(1)   Bbb    -0.0027    -1.417    -0.506    -0.473  0.9447  0.2611  0.1983
              Bcc     0.0058     3.074     1.097     1.025 -0.3056  0.9204  0.2438
 
              Baa    -0.0046    -0.614    -0.219    -0.205  0.5704  0.2569  0.7802
    44 C(13)  Bbb     0.0004     0.056     0.020     0.019  0.0581  0.9348 -0.3503
              Bcc     0.0042     0.558     0.199     0.186  0.8193 -0.2451 -0.5183
 
              Baa    -0.0021    -1.112    -0.397    -0.371 -0.3981 -0.2516  0.8822
    45 H(1)   Bbb    -0.0018    -0.955    -0.341    -0.319  0.6683  0.5792  0.4668
              Bcc     0.0039     2.067     0.738     0.689 -0.6284  0.7754 -0.0625
 
              Baa    -0.0017    -0.888    -0.317    -0.296  0.3876  0.1026  0.9161
    46 H(1)   Bbb    -0.0012    -0.666    -0.238    -0.222  0.7986  0.4591 -0.3892
              Bcc     0.0029     1.553     0.554     0.518 -0.4605  0.8825  0.0960
 
              Baa    -0.0032    -0.434    -0.155    -0.145  0.3296 -0.2638  0.9065
    47 C(13)  Bbb    -0.0026    -0.346    -0.123    -0.115  0.8647 -0.3011 -0.4020
              Bcc     0.0058     0.779     0.278     0.260  0.3790  0.9164  0.1289
 
              Baa    -0.0029    -1.541    -0.550    -0.514 -0.0600  0.0276  0.9978
    48 H(1)   Bbb    -0.0021    -1.112    -0.397    -0.371  0.9512 -0.3016  0.0655
              Bcc     0.0050     2.654     0.947     0.885  0.3027  0.9530 -0.0081
 
              Baa    -0.0034    -1.795    -0.641    -0.599  0.2640 -0.3507  0.8985
    49 H(1)   Bbb    -0.0026    -1.374    -0.490    -0.458  0.9396 -0.1168 -0.3217
              Bcc     0.0059     3.170     1.131     1.057  0.2177  0.9292  0.2987
 
              Baa    -0.0030    -1.582    -0.565    -0.528  0.2374 -0.3614  0.9017
    50 H(1)   Bbb    -0.0014    -0.752    -0.268    -0.251  0.8560 -0.3611 -0.3701
              Bcc     0.0044     2.334     0.833     0.778  0.4593  0.8597  0.2236
 
              Baa    -0.0285    -3.829    -1.366    -1.277 -0.1225  0.3562  0.9263
    51 C(13)  Bbb     0.0070     0.945     0.337     0.315 -0.5922  0.7228 -0.3562
              Bcc     0.0215     2.883     1.029     0.962  0.7964  0.5922 -0.1224
 
              Baa    -0.0046    -2.431    -0.867    -0.811  0.0040 -0.2561  0.9666
    52 H(1)   Bbb    -0.0040    -2.149    -0.767    -0.717 -0.4602  0.8577  0.2292
              Bcc     0.0086     4.579     1.634     1.528  0.8878  0.4458  0.1144
 
              Baa    -0.0323    -4.335    -1.547    -1.446 -0.4574  0.7739 -0.4379
    53 C(13)  Bbb    -0.0262    -3.520    -1.256    -1.174  0.8882  0.4213 -0.1831
              Bcc     0.0585     7.855     2.803     2.620 -0.0428  0.4728  0.8801
 
              Baa    -0.0026    -1.403    -0.501    -0.468 -0.3215  0.1579  0.9337
    54 H(1)   Bbb    -0.0008    -0.412    -0.147    -0.138  0.9388  0.1819  0.2925
              Bcc     0.0034     1.815     0.648     0.605 -0.1236  0.9706 -0.2067
 
              Baa    -0.0048    -2.542    -0.907    -0.848 -0.1711  0.8369 -0.5200
    55 H(1)   Bbb    -0.0015    -0.799    -0.285    -0.267 -0.2147  0.4834  0.8487
              Bcc     0.0063     3.341     1.192     1.114  0.9616  0.2568  0.0970
 
              Baa    -0.0039    -0.521    -0.186    -0.174  0.0986  0.2605  0.9604
    56 C(13)  Bbb    -0.0035    -0.466    -0.166    -0.155  0.4020  0.8725 -0.2780
              Bcc     0.0074     0.987     0.352     0.329  0.9103 -0.4135  0.0187
 
              Baa    -0.0043    -2.270    -0.810    -0.757  0.1812  0.1075  0.9775
    57 H(1)   Bbb    -0.0030    -1.594    -0.569    -0.532  0.2548  0.9549 -0.1523
              Bcc     0.0072     3.864     1.379     1.289  0.9499 -0.2767 -0.1457
 
              Baa    -0.0044    -2.322    -0.828    -0.774 -0.2334  0.1553  0.9599
    58 H(1)   Bbb    -0.0031    -1.660    -0.592    -0.554  0.2801  0.9561 -0.0865
              Bcc     0.0075     3.981     1.421     1.328  0.9311 -0.2487  0.2667
 
              Baa    -0.0032    -1.698    -0.606    -0.567  0.5034  0.8527  0.1395
    59 H(1)   Bbb    -0.0030    -1.624    -0.579    -0.542 -0.1329 -0.0831  0.9876
              Bcc     0.0062     3.322     1.185     1.108  0.8538 -0.5157  0.0715
 
              Baa    -0.0034    -0.450    -0.160    -0.150  0.8750  0.4522 -0.1730
    60 C(13)  Bbb    -0.0031    -0.412    -0.147    -0.137  0.1118  0.1588  0.9810
              Bcc     0.0064     0.861     0.307     0.287 -0.4710  0.8777 -0.0884
 
              Baa    -0.0027    -1.456    -0.519    -0.486 -0.0008  0.1552  0.9879
    61 H(1)   Bbb    -0.0022    -1.180    -0.421    -0.394  0.8276  0.5546 -0.0865
              Bcc     0.0049     2.636     0.941     0.879 -0.5613  0.8175 -0.1289
 
              Baa    -0.0034    -1.807    -0.645    -0.603  0.2566  0.4341  0.8636
    62 H(1)   Bbb    -0.0027    -1.458    -0.520    -0.486  0.8905  0.2411 -0.3858
              Bcc     0.0061     3.264     1.165     1.089 -0.3756  0.8680 -0.3247
 
              Baa    -0.0032    -1.712    -0.611    -0.571 -0.1723 -0.0846  0.9814
    63 H(1)   Bbb    -0.0027    -1.441    -0.514    -0.481  0.9140  0.3578  0.1914
              Bcc     0.0059     3.153     1.125     1.052 -0.3673  0.9300  0.0157
 
              Baa    -0.0039    -0.525    -0.187    -0.175 -0.0444  0.9979  0.0466
    64 C(13)  Bbb    -0.0036    -0.477    -0.170    -0.159  0.9239  0.0588 -0.3782
              Bcc     0.0075     1.002     0.358     0.334  0.3802 -0.0263  0.9245
 
              Baa    -0.0023    -1.247    -0.445    -0.416  0.4065  0.8824 -0.2369
    65 H(1)   Bbb    -0.0022    -1.182    -0.422    -0.394  0.8687 -0.4536 -0.1991
              Bcc     0.0046     2.429     0.867     0.810  0.2831  0.1248  0.9509
 
              Baa    -0.0030    -1.590    -0.567    -0.530 -0.0542  0.9977  0.0397
    66 H(1)   Bbb    -0.0025    -1.320    -0.471    -0.440  0.8486  0.0670 -0.5247
              Bcc     0.0055     2.911     1.039     0.971  0.5262 -0.0053  0.8503
 
              Baa    -0.0023    -1.244    -0.444    -0.415 -0.4856  0.8105  0.3274
    67 H(1)   Bbb    -0.0022    -1.194    -0.426    -0.398  0.8173  0.5539 -0.1589
              Bcc     0.0046     2.438     0.870     0.813  0.3102 -0.1904  0.9314
 
              Baa    -0.0120    -0.462    -0.165    -0.154  0.9939  0.1071 -0.0273
    68 N(14)  Bbb    -0.0035    -0.137    -0.049    -0.046 -0.1048  0.9917  0.0750
              Bcc     0.0155     0.599     0.214     0.200  0.0351 -0.0717  0.9968
 
              Baa    -0.0046    -2.462    -0.879    -0.821 -0.0753  0.9950  0.0657
    69 H(1)   Bbb    -0.0040    -2.131    -0.761    -0.711  0.9795  0.0615  0.1918
              Bcc     0.0086     4.594     1.639     1.532 -0.1868 -0.0788  0.9792
 
              Baa    -0.0085    -1.137    -0.406    -0.379 -0.1525  0.9852  0.0783
    70 C(13)  Bbb    -0.0074    -0.990    -0.353    -0.330  0.9715  0.1639 -0.1715
              Bcc     0.0159     2.127     0.759     0.709  0.1818 -0.0499  0.9821
 
              Baa    -0.0199    -2.672    -0.953    -0.891  0.8984 -0.0004  0.4392
    71 C(13)  Bbb    -0.0144    -1.937    -0.691    -0.646 -0.0408  0.9956  0.0843
              Bcc     0.0343     4.609     1.645     1.537 -0.4373 -0.0937  0.8944
 
              Baa    -0.0157    -8.361    -2.983    -2.789 -0.0844  0.9948  0.0566
    72 H(1)   Bbb    -0.0102    -5.424    -1.935    -1.809  0.8001  0.0338  0.5989
              Bcc     0.0258    13.785     4.919     4.598 -0.5939 -0.0959  0.7988
 
              Baa    -0.1439    -5.552    -1.981    -1.852  0.9911  0.0855 -0.1024
    73 N(14)  Bbb    -0.1257    -4.847    -1.729    -1.617 -0.0798  0.9951  0.0584
              Bcc     0.2696    10.399     3.710     3.469  0.1069 -0.0497  0.9930
 
              Baa    -0.0244    -3.274    -1.168    -1.092 -0.0674  0.9965  0.0490
    74 C(13)  Bbb    -0.0175    -2.354    -0.840    -0.785  0.8070  0.0834 -0.5847
              Bcc     0.0419     5.629     2.008     1.877  0.5867 -0.0001  0.8098
 
              Baa    -0.0158    -8.420    -3.004    -2.809 -0.0733  0.9966  0.0374
    75 H(1)   Bbb    -0.0103    -5.517    -1.969    -1.840 -0.6573 -0.0764  0.7498
              Bcc     0.0261    13.937     4.973     4.649  0.7501  0.0304  0.6606
 

 ---------------------------------------------------------------------------------

 Unable to Open any file for archive entry.
 1\1\GINC-BGN1007\SP\UAPFD\Gen\C34H34Fe1N6(5)\BECSLEIP\06-Nov-2024\0\\#
  apfd/gen scf=maxcycle=999 geom=check\\6bdd_II_Q\\0,5\Fe,0,7.557591552
 8,-6.1772329313,-5.4819371401\N,0,8.1895563076,-4.333720727,-5.0396170
 151\N,0,7.4564980521,-5.673457919,-7.4265859223\N,0,6.6371308632,-7.89
 51159742,-5.9226191593\N,0,7.3941552896,-6.5603311057,-3.5164970514\C,
 0,8.3151752437,-3.7601779478,-3.8096926216\C,0,8.7317835751,-2.3811730
 647,-3.9154852858\C,0,8.8478867162,-2.1208988297,-5.2442222094\C,0,8.4
 909307139,-3.3438425843,-5.928848521\C,0,7.9335859665,-4.5304995109,-7
 .9964275299\C,0,7.7554553508,-4.5487613857,-9.4251820072\C,0,7.1317454
 752,-5.7317219142,-9.7181780397\C,0,6.9501978939,-6.41256471,-8.451697
 6445\C,0,6.1347413318,-8.3005877867,-7.1252731907\C,0,5.3751325926,-9.
 5142019121,-6.9968575468\C,0,5.4029472342,-9.8435084189,-5.668556534\C
 ,0,6.1747058404,-8.8040604342,-5.0164082186\C,0,6.8240145772,-7.660849
 9243,-2.9538758786\C,0,6.6122300576,-7.4773564685,-1.5377494839\C,0,7.
 0587557109,-6.2250927982,-1.2497127832\C,0,7.5290657486,-5.6649780954,
 -2.4954129945\C,0,8.047941839,-4.3903494208,-2.609604223\H,0,8.1566042
 505,-3.8114166479,-1.7054086508\C,0,8.4605831471,-3.4552515382,-7.3034
 352924\H,0,8.7873063511,-2.60262896,-7.8786110198\C,0,6.3416605503,-7.
 6440897608,-8.3255635589\H,0,5.9623701359,-8.110591747,-9.2215309105\C
 ,0,6.3848984491,-8.7726073363,-3.6510626923\H,0,5.9949906566,-9.595360
 2998,-3.0710630133\C,0,9.2268644199,-0.8526836249,-5.928799152\H,0,10.
 0826724715,-1.0100499876,-6.5854626893\H,0,9.4885968465,-0.0863388054,
 -5.2034509619\H,0,8.3988990467,-0.4823692991,-6.534002128\C,0,8.951411
 5566,-1.477461014,-2.7514980964\H,0,9.7045291019,-1.8915795524,-2.0811
 087053\H,0,8.0278010557,-1.3508503136,-2.1861440407\H,0,9.2865987979,-
 0.4972675426,-3.0813784374\C,0,8.1073878433,-3.4351743275,-10.34868601
 62\H,0,9.1733270096,-3.4450834388,-10.5822665615\H,0,7.8697406734,-2.4
 719447457,-9.8996325711\H,0,7.5503798955,-3.5316909414,-11.2781683896\
 C,0,6.6924794532,-6.239856261,-10.9994101469\H,0,5.7740909821,-6.81520
 36163,-10.9868204096\C,0,7.3243097599,-6.0606398399,-12.1545717258\H,0
 ,8.2633119371,-5.5388363733,-12.2187948605\H,0,6.9339365243,-6.4563889
 7,-13.0774643859\C,0,4.6407203012,-10.184335685,-8.1047822949\H,0,5.31
 65405809,-10.7970101187,-8.7037569644\H,0,4.1810709211,-9.447947986,-8
 .7621317118\H,0,3.8605557997,-10.8262982964,-7.701033298\C,0,4.7697424
 996,-10.9556850526,-4.9934517156\H,0,4.3983580264,-10.7525517329,-3.99
 58432868\C,0,4.6223884095,-12.175442576,-5.4997535544\H,0,5.0114804223
 ,-12.4448337218,-6.466276763\H,0,4.1270925444,-12.9579430461,-4.949205
 1744\C,0,5.9967698071,-8.4918573221,-0.6365461094\H,0,6.5037501116,-9.
 4518572294,-0.7323961126\H,0,4.9451634383,-8.6377184736,-0.8865424648\
 H,0,6.0587405883,-8.1733813029,0.4012598892\C,0,7.0513443954,-5.497966
 3857,0.0508319974\H,0,6.6850158556,-6.1388573059,0.8490011868\H,0,6.40
 75972127,-4.6197736811,-0.0054624547\H,0,8.0562057335,-5.164766873,0.3
 104731339\C,0,12.9134147973,-7.1795921925,-6.7189048789\H,0,13.6345957
 133,-7.2162337942,-5.9026957648\H,0,13.0419754576,-6.2448819183,-7.255
 2897959\H,0,13.125808875,-8.0044430351,-7.3987077102\N,0,11.0748183022
 ,-8.3457283454,-5.4831479759\H,0,11.6173261236,-9.1588243818,-5.241451
 9106\C,0,11.5250382639,-7.2691167728,-6.2005779517\C,0,9.7807183135,-8
 .117315716,-5.1666298848\H,0,9.1687425642,-8.7943760267,-4.6055399791\
 N,0,9.3812895523,-6.9590231012,-5.6405195374\C,0,10.4587187352,-6.4201
 247429,-6.286039349\H,0,10.3930378057,-5.4642643776,-6.7651041473\\Ver
 sion=ES64L-G16RevC.02\State=5-A\HF=-2906.9842976\S2=6.080428\S2-1=0.\S
 2A=6.001967\RMSD=3.127e-09\Dipole=2.4370078,-0.8053294,0.2837473\Quadr
 upole=5.4235249,-1.1753889,-4.248136,-5.841327,-1.462068,0.7822398\PG=
 C01 [X(C34H34Fe1N6)]\\@
 The archive entry for this job was punched.


 SEEN ON A WALL AT THE UNIVERSITY OF ILLINOIS AT CHICAGO CIRCLE:

 TO DO IS TO BE  -- SOCRATES
 TO BE IS TO DO  -- SARTRE
 OO BE DO BE DO  -- SINATRA
 Job cpu time:       0 days  3 hours 21 minutes 25.9 seconds.
 Elapsed time:       0 days  0 hours  3 minutes 27.7 seconds.
 File lengths (MBytes):  RWF=    408 Int=      0 D2E=      0 Chk=    150 Scr=      1
 Normal termination of Gaussian 16 at Wed Nov  6 04:28:19 2024.
