 Entering Gaussian System, Link 0=g16
 Input=6gd601.com
 Output=6gd601.log
 Initial command:
 /sw/chem/gaussian/g16_C02/a100/g16/l1.exe "/local/becsleip_8065562/Gau-1172691.inp" -scrdir="/local/becsleip_8065562/"
 Entering Link 1 = /sw/chem/gaussian/g16_C02/a100/g16/l1.exe PID=   1172692.
  
 Copyright (c) 1988-2021, Gaussian, Inc.  All Rights Reserved.
  
 This is part of the Gaussian(R) 16 program.  It is based on
 the Gaussian(R) 09 system (copyright 2009, Gaussian, Inc.),
 the Gaussian(R) 03 system (copyright 2003, Gaussian, Inc.),
 the Gaussian(R) 98 system (copyright 1998, Gaussian, Inc.),
 the Gaussian(R) 94 system (copyright 1995, Gaussian, Inc.),
 the Gaussian 92(TM) system (copyright 1992, Gaussian, Inc.),
 the Gaussian 90(TM) system (copyright 1990, Gaussian, Inc.),
 the Gaussian 88(TM) system (copyright 1988, Gaussian, Inc.),
 the Gaussian 86(TM) system (copyright 1986, Carnegie Mellon
 University), and the Gaussian 82(TM) system (copyright 1983,
 Carnegie Mellon University). Gaussian is a federally registered
 trademark of Gaussian, Inc.
  
 This software contains proprietary and confidential information,
 including trade secrets, belonging to Gaussian, Inc.
  
 This software is provided under written license and may be
 used, copied, transmitted, or stored only in accord with that
 written license.
  
 The following legend is applicable only to US Government
 contracts under FAR:
  
                    RESTRICTED RIGHTS LEGEND
  
 Use, reproduction and disclosure by the US Government is
 subject to restrictions as set forth in subparagraphs (a)
 and (c) of the Commercial Computer Software - Restricted
 Rights clause in FAR 52.227-19.
  
 Gaussian, Inc.
 340 Quinnipiac St., Bldg. 40, Wallingford CT 06492
  
  
 ---------------------------------------------------------------
 Warning -- This program may not be used in any manner that
 competes with the business of Gaussian, Inc. or will provide
 assistance to any competitor of Gaussian, Inc.  The licensee
 of this program is prohibited from giving any competitor of
 Gaussian, Inc. access to this program.  By using this program,
 the user acknowledges that Gaussian, Inc. is engaged in the
 business of creating and licensing software in the field of
 computational chemistry and represents and warrants to the
 licensee that it is not a competitor of Gaussian, Inc. and that
 it will not use this program in any manner prohibited above.
 ---------------------------------------------------------------
  

 Cite this work as:
 Gaussian 16, Revision C.02,
 M. J. Frisch, G. W. Trucks, H. B. Schlegel, G. E. Scuseria, 
 M. A. Robb, J. R. Cheeseman, G. Scalmani, V. Barone, 
 G. A. Petersson, H. Nakatsuji, X. Li, M. Caricato, A. V. Marenich, 
 J. Bloino, B. G. Janesko, R. Gomperts, B. Mennucci, H. P. Hratchian, 
 J. V. Ortiz, A. F. Izmaylov, J. L. Sonnenberg, D. Williams-Young, 
 F. Ding, F. Lipparini, F. Egidi, J. Goings, B. Peng, A. Petrone, 
 T. Henderson, D. Ranasinghe, V. G. Zakrzewski, J. Gao, N. Rega, 
 G. Zheng, W. Liang, M. Hada, M. Ehara, K. Toyota, R. Fukuda, 
 J. Hasegawa, M. Ishida, T. Nakajima, Y. Honda, O. Kitao, H. Nakai, 
 T. Vreven, K. Throssell, J. A. Montgomery, Jr., J. E. Peralta, 
 F. Ogliaro, M. J. Bearpark, J. J. Heyd, E. N. Brothers, K. N. Kudin, 
 V. N. Staroverov, T. A. Keith, R. Kobayashi, J. Normand, 
 K. Raghavachari, A. P. Rendell, J. C. Burant, S. S. Iyengar, 
 J. Tomasi, M. Cossi, J. M. Millam, M. Klene, C. Adamo, R. Cammi, 
 J. W. Ochterski, R. L. Martin, K. Morokuma, O. Farkas, 
 J. B. Foresman, and D. J. Fox, Gaussian, Inc., Wallingford CT, 2019.
 
 ******************************************
 Gaussian 16:  ES64L-G16RevC.02  7-Dec-2021
                31-Oct-2024 
 ******************************************
 %mem=16GB
 %CPU=0-71
 SetSPE:  set environment variable "OMP_PROC_BIND" = "true"
 SetSPE:  set environment variable "OMP_PLACES" = "{0},{1},{2},{3},{4},{5},{6},{7},{8},{9},{10},{11},{12},{13},{14},{15},{16},{17},{18},{19},{20},{21},{22},{23},{24},{25},{26},{27},{28},{29},{30},{31},{32},{33},{34},{35},{36},{37},{38},{39},{40},{41},{42},{43},{44},{45},{46},{47},{48},{49},{50},{51},{52},{53},{54},{55},{56},{57},{58},{59},{60},{61},{62},{63},{64},{65},{66},{67},{68},{69},{70},{71}"
 Will use up to   72 processors via shared memory.
 %gpucpu=0,1,2,3=0,1,2,3
 Will use    4 GPUs:
 Thread  CPU   GPU
      0    0     0
      1    1     1
      2    2     2
      3    3     3
      4    4    -1
      5    5    -1
      6    6    -1
      7    7    -1
      8    8    -1
      9    9    -1
     10   10    -1
     11   11    -1
     12   12    -1
     13   13    -1
     14   14    -1
     15   15    -1
     16   16    -1
     17   17    -1
     18   18    -1
     19   19    -1
     20   20    -1
     21   21    -1
     22   22    -1
     23   23    -1
     24   24    -1
     25   25    -1
     26   26    -1
     27   27    -1
     28   28    -1
     29   29    -1
     30   30    -1
     31   31    -1
     32   32    -1
     33   33    -1
     34   34    -1
     35   35    -1
     36   36    -1
     37   37    -1
     38   38    -1
     39   39    -1
     40   40    -1
     41   41    -1
     42   42    -1
     43   43    -1
     44   44    -1
     45   45    -1
     46   46    -1
     47   47    -1
     48   48    -1
     49   49    -1
     50   50    -1
     51   51    -1
     52   52    -1
     53   53    -1
     54   54    -1
     55   55    -1
     56   56    -1
     57   57    -1
     58   58    -1
     59   59    -1
     60   60    -1
     61   61    -1
     62   62    -1
     63   63    -1
     64   64    -1
     65   65    -1
     66   66    -1
     67   67    -1
     68   68    -1
     69   69    -1
     70   70    -1
     71   71    -1
 SetGPE:  set environment variable "OMP_PROC_BIND" = "true"
 SetGPE:  set environment variable "OMP_PLACES" = "{0},{1},{2},{3},{4},{5},{6},{7},{8},{9},{10},{11},{12},{13},{14},{15},{16},{17},{18},{19},{20},{21},{22},{23},{24},{25},{26},{27},{28},{29},{30},{31},{32},{33},{34},{35},{36},{37},{38},{39},{40},{41},{42},{43},{44},{45},{46},{47},{48},{49},{50},{51},{52},{53},{54},{55},{56},{57},{58},{59},{60},{61},{62},{63},{64},{65},{66},{67},{68},{69},{70},{71}"
 %chk=6gd6_II_O.chk
 Properties for Device   0
 Minimum vector length:                              32
 Maximum vector length:                            1024
 Number of SMPs:                                    108
 Maximum number of threads per SMP:                2048
 Number of ASync Engines:                             5
 Memory:                                           9207742464
 Properties for Device   1
 Minimum vector length:                              32
 Maximum vector length:                            1024
 Number of SMPs:                                    108
 Maximum number of threads per SMP:                2048
 Number of ASync Engines:                             5
 Memory:                                           9207742464
 Properties for Device   2
 Minimum vector length:                              32
 Maximum vector length:                            1024
 Number of SMPs:                                    108
 Maximum number of threads per SMP:                2048
 Number of ASync Engines:                             5
 Memory:                                           9207742464
 Properties for Device   3
 Minimum vector length:                              32
 Maximum vector length:                            1024
 Number of SMPs:                                    108
 Maximum number of threads per SMP:                2048
 Number of ASync Engines:                             5
 Memory:                                           9207742464
   8286968217 words of memory will be used on each GPU.
 ------------------------------------------
 # polar def2tzvp apfd int=(grid=ultrafine)
 ------------------------------------------
 1/38=1,172=1/1;
 2/12=2,17=6,18=5,40=1/2;
 3/5=44,7=101,11=2,25=1,30=1,74=-44,75=-5/1,2,3;
 4//1;
 5/5=2,38=5,98=1/2;
 8/6=4,10=90,11=11/1;
 10/6=1,13=10/2;
 6/7=2,8=2,9=2,10=2,28=1/1;
 99/5=1,9=1/99;
 ---------
 6gd6_II_S
 ---------
 Symbolic Z-matrix:
 Charge =  0 Multiplicity = 1
 Fe                    6.89978  -14.27924   3.71096 
 N                     5.35715  -14.86344   4.82029 
 N                     5.96859  -12.60789   3.2565 
 N                     8.49689  -13.72857   2.63095 
 N                     7.87003  -15.97587   4.19365 
 C                     5.26956  -15.96531   5.606 
 C                     3.93582  -16.10003   6.1506 
 C                     3.22064  -15.04826   5.67148 
 C                     4.13314  -14.27458   4.85691 
 C                     4.66617  -12.30639   3.49507 
 C                     4.33638  -11.0064   2.95561 
 C                     5.47229  -10.53534   2.37342 
 C                     6.47935  -11.55616   2.56406 
 C                     8.68882  -12.5036   2.0785 
 C                     9.98473  -12.434    1.43127 
 C                     10.54059  -13.67948   1.56326 
 C                     9.5955   -14.46561   2.31512 
 C                     9.06362  -16.40694   3.7106 
 C                     9.46833  -17.6316   4.37041 
 C                     8.47687  -17.92239   5.26922 
 C                     7.49263  -16.8802   5.13631 
 C                     6.28483  -16.87708   5.81347 
 H                     6.09485  -17.68744   6.50022 
 C                     3.79403  -13.09128   4.22744 
 H                     2.77965  -12.73993   4.33736 
 C                     7.76497  -11.47419   2.06415 
 H                     8.04276  -10.56471   1.55469 
 C                     9.84517  -15.74497   2.78203 
 H                     10.74891  -16.2336   2.45064 
 C                     3.50498  -17.20882   7.0486 
 H                     4.13331  -17.24661   7.93851 
 H                     3.58507  -18.16808   6.53718 
 H                     2.47293  -17.07471   7.36378 
 C                     1.79013  -14.69641   5.89924 
 H                     1.25369  -14.65071   4.9516 
 H                     1.70578  -13.72316   6.38356 
 H                     1.30757  -15.43744   6.53146 
 C                     8.42875  -19.03964   6.25188 
 H                     7.83456  -19.87076   5.86703 
 H                     7.9837   -18.71265   7.18999 
 H                     9.43648  -19.40393   6.448 
 C                     10.6768  -18.37375   4.08271 
 H                     11.55069  -17.7818   3.83295 
 C                     10.7738  -19.69904   4.0888 
 H                     9.92504  -20.33288   4.2844 
 H                     11.70345  -20.19874   3.87073 
 C                     11.8902  -14.14462   1.14022 
 H                     11.82941  -14.75039   0.235 
 H                     12.3497  -14.75126   1.91922 
 H                     12.53491  -13.29153   0.94095 
 C                     10.52736  -11.24216   0.81737 
 H                     10.23847  -10.30923   1.28882 
 C                     11.32435  -11.20666  -0.24545 
 H                     11.60826  -12.09571  -0.78197 
 H                     11.70548  -10.27637  -0.63265 
 C                     5.69946  -9.25899   1.63977 
 H                     5.9852   -9.46134   0.60717 
 H                     6.49987  -8.68273   2.10382 
 H                     4.79855  -8.65002   1.63215 
 C                     2.98121  -10.39075   3.03125 
 H                     2.96123  -9.43158   2.51998 
 H                     2.68619  -10.23359   4.06925 
 H                     2.24251  -11.04408   2.56613 
 C                     10.32312  -12.41195   7.70859 
 H                     11.18843  -12.94412   7.32618 
 H                     10.13532  -12.74065   8.73099 
 H                     10.54869  -11.34562   7.72893 
 N                     7.91915  -12.12204   7.07044 
 H                     7.69242  -11.48481   7.81651 
 C                     9.14792  -12.68529   6.84249 
 C                     7.07853  -12.57103   6.11158 
 H                     6.04651  -12.2978   6.03682 
 N                     7.69952  -13.3831   5.29234 
 C                     8.9865   -13.4649   5.73283 
 H                     9.70637  -14.07473   5.2276 
 C                     5.12382  -13.51943  -0.13593 
 H                     4.90258  -12.78528   0.63291 
 H                     4.22587  -14.10291  -0.325 
 H                     5.40137  -12.99422  -1.04793 
 C                     6.25822  -14.42268   0.30587 
 H                     7.16204  -13.84857   0.49874 
 H                     6.45962  -15.18621  -0.44403 
 S                     5.80646  -15.30743   1.85616 
 C                     6.63738  -16.88909   1.51606 
 H                     7.69765  -16.72271   1.35487 
 H                     6.17526  -17.35294   0.64879 
 H                     6.49411  -17.51184   2.39253 
 
 Stoichiometry    C37H42FeN6S
 Framework group  C1[X(C37H42FeN6S)]
 Deg. of freedom   255
 Full point group                 C1      NOp   1
 Largest Abelian subgroup         C1      NOp   1
 Largest concise Abelian subgroup C1      NOp   1
                         Standard orientation:                         
 ---------------------------------------------------------------------
 Center     Atomic      Atomic             Coordinates (Angstroms)
 Number     Number       Type             X           Y           Z
 ---------------------------------------------------------------------
      1         26           0       -0.056926   -0.245458   -0.092835
      2          7           0        0.296193   -2.201080   -0.043545
      3          7           0       -1.989148   -0.567452    0.080160
      4          7           0       -0.350298    1.737919   -0.117372
      5          7           0        1.921954    0.092793   -0.243023
      6          6           0        1.498827   -2.827137   -0.014405
      7          6           0        1.331053   -4.261092   -0.110417
      8          6           0       -0.006959   -4.483082   -0.198308
      9          6           0       -0.639014   -3.182620   -0.134490
     10          6           0       -2.632335   -1.758854   -0.024576
     11          6           0       -4.061489   -1.579613    0.098439
     12          6           0       -4.265630   -0.245202    0.268208
     13          6           0       -2.957420    0.371705    0.244208
     14          6           0       -1.528674    2.362234    0.136083
     15          6           0       -1.359330    3.802193    0.104948
     16          6           0       -0.050014    4.021597   -0.234449
     17          6           0        0.556382    2.720962   -0.365282
     18          6           0        2.540378    1.286385   -0.434572
     19          6           0        3.979824    1.126336   -0.398538
     20          6           0        4.206788   -0.205893   -0.177036
     21          6           0        2.911159   -0.827275   -0.088767
     22          6           0        2.724316   -2.193857    0.033233
     23          1           0        3.604481   -2.814795    0.097579
     24          6           0       -2.007598   -2.986961   -0.145146
     25          1           0       -2.636369   -3.860116   -0.227290
     26          6           0       -2.745535    1.734363    0.332143
     27          1           0       -3.608824    2.362215    0.488329
     28          6           0        1.910586    2.510425   -0.562532
     29          1           0        2.529308    3.371983   -0.763058
     30          6           0        2.456289   -5.238473   -0.113846
     31          1           0        3.062940   -5.126735    0.784848
     32          1           0        3.100077   -5.077298   -0.978546
     33          1           0        2.083890   -6.259462   -0.150637
     34          6           0       -0.744124   -5.771997   -0.329857
     35          1           0       -1.345838   -5.775504   -1.238589
     36          1           0       -1.411757   -5.921691    0.519115
     37          1           0       -0.051480   -6.608675   -0.373576
     38          6           0        5.512903   -0.894388    0.013282
     39          1           0        5.848528   -1.355913   -0.917465
     40          1           0        5.433885   -1.675164    0.767720
     41          1           0        6.268141   -0.175241    0.328140
     42          6           0        4.942168    2.190054   -0.589171
     43          1           0        4.667331    3.158448   -0.185269
     44          6           0        6.101303    2.060470   -1.225931
     45          1           0        6.399963    1.133002   -1.685295
     46          1           0        6.782632    2.888518   -1.333755
     47          6           0        0.677873    5.315919   -0.342484
     48          1           0        0.818915    5.599649   -1.386353
     49          1           0        1.660696    5.244420    0.121123
     50          1           0        0.117120    6.103656    0.155662
     51          6           0       -2.404093    4.753619    0.413270
     52          1           0       -3.117988    4.426955    1.161420
     53          6           0       -2.550024    5.955637   -0.134365
     54          1           0       -1.900165    6.316053   -0.913248
     55          1           0       -3.345693    6.617678    0.164357
     56          6           0       -5.544335    0.504293    0.416867
     57          1           0       -5.665898    1.212356   -0.403328
     58          1           0       -5.557828    1.065688    1.351062
     59          1           0       -6.394496   -0.173755    0.412022
     60          6           0       -5.052659   -2.688857    0.006959
     61          1           0       -6.068458   -2.309528    0.084915
     62          1           0       -4.894217   -3.414709    0.805221
     63          1           0       -4.951653   -3.208669   -0.946167
     64          6           0        1.166622    1.099095    5.187525
     65          1           0        1.788343    1.944918    4.911374
     66          1           0        1.769555    0.396176    5.762843
     67          1           0        0.355643    1.453637    5.823890
     68          7           0       -0.210809   -0.627062    4.007102
     69          1           0       -0.545800   -1.078191    4.842769
     70          6           0        0.630736    0.454058    3.961679
     71          6           0       -0.510545   -0.966591    2.733315
     72          1           0       -1.150927   -1.779167    2.459557
     73          7           0        0.089481   -0.167637    1.886036
     74          6           0        0.802911    0.720911    2.633395
     75          1           0        1.389362    1.487406    2.170878
     76          6           0       -2.837270    0.178596   -3.351639
     77          1           0       -3.243441   -0.263269   -2.446750
     78          1           0       -2.747626   -0.599591   -4.105882
     79          1           0       -3.530784    0.937529   -3.708969
     80          6           0       -1.484740    0.804217   -3.073831
     81          1           0       -1.562827    1.584176   -2.319344
     82          1           0       -1.053731    1.215227   -3.985524
     83         16           0       -0.305272   -0.467282   -2.455443
     84          6           0        1.207816    0.161922   -3.244379
     85          1           0        1.395807    1.181451   -2.923348
     86          1           0        1.095494    0.103313   -4.323644
     87          1           0        2.019640   -0.479506   -2.918718
 ---------------------------------------------------------------------
 Rotational constants (GHZ):           0.0832810           0.0811767           0.0582856
 Standard basis: def2TZVP (5D, 7F)
 There are  1894 symmetry adapted cartesian basis functions of A   symmetry.
 There are  1667 symmetry adapted basis functions of A   symmetry.
  1667 basis functions,  2700 primitive gaussians,  1894 cartesian basis functions
   174 alpha electrons      174 beta electrons
       nuclear repulsion energy      7157.6862982442 Hartrees.
 NAtoms=   87 NActive=   87 NUniq=   87 SFac= 1.00D+00 NAtFMM=   60 NAOKFM=T Big=T
 Integral buffers will be    131072 words long.
 Raffenetti 2 integral format.
 Two-electron integral symmetry is turned on.
 R6APFD:  NTU= -4 IXU= 1 FactS= 1.050
 Nuclear repulsion after empirical dispersion term =     7157.5031134062 Hartrees.
 One-electron integrals computed using PRISM.
   1 Symmetry operations used in ECPInt.
 ECPInt:  NShTT=  224115 NPrTT=  692067 LenC2=  178346 LenP2D=  363244.
 LDataN:  DoStor=T MaxTD1= 6 Len=  172
 Number of processors reduced to  21 by ecpmxn.
 NBasis=  1667 RedAO= T EigKep=  3.50D-06  NBF=  1667
 NBsUse=  1667 1.00D-06 EigRej= -1.00D+00 NBFU=  1667
 ExpMin= 4.20D-02 ExpMax= 3.01D+05 ExpMxC= 2.91D+03 IAcc=3 IRadAn=         5 AccDes= 0.00D+00
 Harris functional with IExCor= 3731 and IRadAn=       5 diagonalized for initial guess.
 HarFok:  IExCor= 3731 AccDes= 0.00D+00 IRadAn=         5 IDoV= 1 UseB2=F ITyADJ=14
 ICtDFT=  3500011 ScaDFX=  1.000000  1.000000  1.000000  1.000000
 FoFCou: FMM=F IPFlag=           0 FMFlag=      100000 FMFlg1=        2001
         NFxFlg=           0 DoJE=T BraDBF=F KetDBF=T FulRan=T
         wScrn=  0.000000 ICntrl=       500 IOpCl=  0 I1Cent=   200000004 NGrid=           0
         NMat0=    1 NMatS0=      1 NMatT0=    0 NMatD0=    1 NMtDS0=    0 NMtDT0=    0
 Petite list used in FoFCou.
 Requested convergence on RMS density matrix=1.00D-08 within 128 cycles.
 Requested convergence on MAX density matrix=1.00D-06.
 Requested convergence on             energy=1.00D-06.
 No special actions if energy rises.
 EnCoef did     2 forward-backward iterations
 EnCoef did   100 forward-backward iterations
 EnCoef did   100 forward-backward iterations
 EnCoef did   100 forward-backward iterations
 EnCoef did     7 forward-backward iterations
 EnCoef did   100 forward-backward iterations
 EnCoef did     2 forward-backward iterations
 EnCoef did    10 forward-backward iterations
 Restarting incremental Fock formation.
 SCF Done:  E(RAPFD) =  -3424.85187743     A.U. after   27 cycles
            NFock= 27  Conv=0.18D-08     -V/T= 2.0033
 DoSCS=F DFT=T ScalE2(SS,OS)=  1.000000  1.000000
 Range of M.O.s used for correlation:     1  1667
 NBasis=  1667 NAE=   174 NBE=   174 NFC=     0 NFV=     0
 NROrb=   1667 NOA=   174 NOB=   174 NVA=  1493 NVB=  1493

 **** Warning!!: The largest alpha MO coefficient is  0.52764460D+02

          Differentiating once with respect to electric field.
                with respect to dipole field.
          Electric field/nuclear overlap derivatives assumed to be zero.
          There are     3 degrees of freedom in the 1st order CPHF.  IDoFFX=0 NUNeed=     3.
      3 vectors produced by pass  0 Test12= 8.66D-12 3.33D-08 XBig12= 1.86D+03 2.07D+01.
 AX will form     3 AO Fock derivatives at one time.
      3 vectors produced by pass  1 Test12= 8.66D-12 3.33D-08 XBig12= 1.34D+03 6.95D+00.
      3 vectors produced by pass  2 Test12= 8.66D-12 3.33D-08 XBig12= 4.09D+02 2.87D+00.
      3 vectors produced by pass  3 Test12= 8.66D-12 3.33D-08 XBig12= 4.86D+02 5.78D+00.
      3 vectors produced by pass  4 Test12= 8.66D-12 3.33D-08 XBig12= 3.61D+02 3.57D+00.
      3 vectors produced by pass  5 Test12= 8.66D-12 3.33D-08 XBig12= 1.46D+02 2.10D+00.
      3 vectors produced by pass  6 Test12= 8.66D-12 3.33D-08 XBig12= 8.00D+01 2.28D+00.
      3 vectors produced by pass  7 Test12= 8.66D-12 3.33D-08 XBig12= 2.73D+01 9.90D-01.
      3 vectors produced by pass  8 Test12= 8.66D-12 3.33D-08 XBig12= 9.56D+00 5.84D-01.
      3 vectors produced by pass  9 Test12= 8.66D-12 3.33D-08 XBig12= 4.60D+00 4.17D-01.
      3 vectors produced by pass 10 Test12= 8.66D-12 3.33D-08 XBig12= 2.09D+00 3.70D-01.
      3 vectors produced by pass 11 Test12= 8.66D-12 3.33D-08 XBig12= 1.38D+00 2.24D-01.
      3 vectors produced by pass 12 Test12= 8.66D-12 3.33D-08 XBig12= 5.90D-01 1.14D-01.
      3 vectors produced by pass 13 Test12= 8.66D-12 3.33D-08 XBig12= 2.06D-01 9.38D-02.
      3 vectors produced by pass 14 Test12= 8.66D-12 3.33D-08 XBig12= 6.42D-02 6.99D-02.
      3 vectors produced by pass 15 Test12= 8.66D-12 3.33D-08 XBig12= 2.34D-02 2.77D-02.
      3 vectors produced by pass 16 Test12= 8.66D-12 3.33D-08 XBig12= 7.64D-03 1.24D-02.
      3 vectors produced by pass 17 Test12= 8.66D-12 3.33D-08 XBig12= 3.16D-03 1.14D-02.
      3 vectors produced by pass 18 Test12= 8.66D-12 3.33D-08 XBig12= 9.24D-04 7.01D-03.
      3 vectors produced by pass 19 Test12= 8.66D-12 3.33D-08 XBig12= 1.73D-04 2.77D-03.
      3 vectors produced by pass 20 Test12= 8.66D-12 3.33D-08 XBig12= 4.35D-05 1.20D-03.
      3 vectors produced by pass 21 Test12= 8.66D-12 3.33D-08 XBig12= 1.10D-05 5.51D-04.
      3 vectors produced by pass 22 Test12= 8.66D-12 3.33D-08 XBig12= 3.30D-06 3.03D-04.
      3 vectors produced by pass 23 Test12= 8.66D-12 3.33D-08 XBig12= 5.98D-07 1.07D-04.
      3 vectors produced by pass 24 Test12= 8.66D-12 3.33D-08 XBig12= 1.02D-07 4.28D-05.
      3 vectors produced by pass 25 Test12= 8.66D-12 3.33D-08 XBig12= 2.44D-08 1.55D-05.
      3 vectors produced by pass 26 Test12= 8.66D-12 3.33D-08 XBig12= 4.03D-09 9.82D-06.
      3 vectors produced by pass 27 Test12= 8.66D-12 3.33D-08 XBig12= 5.50D-10 2.70D-06.
      3 vectors produced by pass 28 Test12= 8.66D-12 3.33D-08 XBig12= 8.99D-11 1.24D-06.
      3 vectors produced by pass 29 Test12= 8.66D-12 3.33D-08 XBig12= 1.58D-11 7.44D-07.
      3 vectors produced by pass 30 Test12= 8.66D-12 3.33D-08 XBig12= 3.02D-12 4.04D-07.
      3 vectors produced by pass 31 Test12= 8.66D-12 3.33D-08 XBig12= 7.02D-13 1.68D-07.
      2 vectors produced by pass 32 Test12= 8.66D-12 3.33D-08 XBig12= 9.51D-14 7.02D-08.
 InvSVY:  IOpt=1 It=  1 EMax= 4.97D-14
 Solved reduced A of dimension    98 with     3 vectors.
 Isotropic polarizability for W=    0.000000      610.90 Bohr**3.
 End of Minotr F.D. properties file   721 does not exist.
 End of Minotr F.D. properties file   722 does not exist.
 End of Minotr F.D. properties file   788 does not exist.

 **********************************************************************

            Population analysis using the SCF Density.

 **********************************************************************

 Orbital symmetries:
       Occupied  (A) (A) (A) (A) (A) (A) (A) (A) (A) (A) (A) (A)
                 (A) (A) (A) (A) (A) (A) (A) (A) (A) (A) (A) (A)
                 (A) (A) (A) (A) (A) (A) (A) (A) (A) (A) (A) (A)
                 (A) (A) (A) (A) (A) (A) (A) (A) (A) (A) (A) (A)
                 (A) (A) (A) (A) (A) (A) (A) (A) (A) (A) (A) (A)
                 (A) (A) (A) (A) (A) (A) (A) (A) (A) (A) (A) (A)
                 (A) (A) (A) (A) (A) (A) (A) (A) (A) (A) (A) (A)
                 (A) (A) (A) (A) (A) (A) (A) (A) (A) (A) (A) (A)
                 (A) (A) (A) (A) (A) (A) (A) (A) (A) (A) (A) (A)
                 (A) (A) (A) (A) (A) (A) (A) (A) (A) (A) (A) (A)
                 (A) (A) (A) (A) (A) (A) (A) (A) (A) (A) (A) (A)
                 (A) (A) (A) (A) (A) (A) (A) (A) (A) (A) (A) (A)
                 (A) (A) (A) (A) (A) (A) (A) (A) (A) (A) (A) (A)
                 (A) (A) (A) (A) (A) (A) (A) (A) (A) (A) (A) (A)
                 (A) (A) (A) (A) (A) (A)
       Virtual   (A) (A) (A) (A) (A) (A) (A) (A) (A) (A) (A) (A)
                 (A) (A) (A) (A) (A) (A) (A) (A) (A) (A) (A) (A)
                 (A) (A) (A) (A) (A) (A) (A) (A) (A) (A) (A) (A)
                 (A) (A) (A) (A) (A) (A) (A) (A) (A) (A) (A) (A)
                 (A) (A) (A) (A) (A) (A) (A) (A) (A) (A) (A) (A)
                 (A) (A) (A) (A) (A) (A) (A) (A) (A) (A) (A) (A)
                 (A) (A) (A) (A) (A) (A) (A) (A) (A) (A) (A) (A)
                 (A) (A) (A) (A) (A) (A) (A) (A) (A) (A) (A) (A)
                 (A) (A) (A) (A) (A) (A) (A) (A) (A) (A) (A) (A)
                 (A) (A) (A) (A) (A) (A) (A) (A) (A) (A) (A) (A)
                 (A) (A) (A) (A) (A) (A) (A) (A) (A) (A) (A) (A)
                 (A) (A) (A) (A) (A) (A) (A) (A) (A) (A) (A) (A)
                 (A) (A) (A) (A) (A) (A) (A) (A) (A) (A) (A) (A)
                 (A) (A) (A) (A) (A) (A) (A) (A) (A) (A) (A) (A)
                 (A) (A) (A) (A) (A) (A) (A) (A) (A) (A) (A) (A)
                 (A) (A) (A) (A) (A) (A) (A) (A) (A) (A) (A) (A)
                 (A) (A) (A) (A) (A) (A) (A) (A) (A) (A) (A) (A)
                 (A) (A) (A) (A) (A) (A) (A) (A) (A) (A) (A) (A)
                 (A) (A) (A) (A) (A) (A) (A) (A) (A) (A) (A) (A)
                 (A) (A) (A) (A) (A) (A) (A) (A) (A) (A) (A) (A)
                 (A) (A) (A) (A) (A) (A) (A) (A) (A) (A) (A) (A)
                 (A) (A) (A) (A) (A) (A) (A) (A) (A) (A) (A) (A)
                 (A) (A) (A) (A) (A) (A) (A) (A) (A) (A) (A) (A)
                 (A) (A) (A) (A) (A) (A) (A) (A) (A) (A) (A) (A)
                 (A) (A) (A) (A) (A) (A) (A) (A) (A) (A) (A) (A)
                 (A) (A) (A) (A) (A) (A) (A) (A) (A) (A) (A) (A)
                 (A) (A) (A) (A) (A) (A) (A) (A) (A) (A) (A) (A)
                 (A) (A) (A) (A) (A) (A) (A) (A) (A) (A) (A) (A)
                 (A) (A) (A) (A) (A) (A) (A) (A) (A) (A) (A) (A)
                 (A) (A) (A) (A) (A) (A) (A) (A) (A) (A) (A) (A)
                 (A) (A) (A) (A) (A) (A) (A) (A) (A) (A) (A) (A)
                 (A) (A) (A) (A) (A) (A) (A) (A) (A) (A) (A) (A)
                 (A) (A) (A) (A) (A) (A) (A) (A) (A) (A) (A) (A)
                 (A) (A) (A) (A) (A) (A) (A) (A) (A) (A) (A) (A)
                 (A) (A) (A) (A) (A) (A) (A) (A) (A) (A) (A) (A)
                 (A) (A) (A) (A) (A) (A) (A) (A) (A) (A) (A) (A)
                 (A) (A) (A) (A) (A) (A) (A) (A) (A) (A) (A) (A)
                 (A) (A) (A) (A) (A) (A) (A) (A) (A) (A) (A) (A)
                 (A) (A) (A) (A) (A) (A) (A) (A) (A) (A) (A) (A)
                 (A) (A) (A) (A) (A) (A) (A) (A) (A) (A) (A) (A)
                 (A) (A) (A) (A) (A) (A) (A) (A) (A) (A) (A) (A)
                 (A) (A) (A) (A) (A) (A) (A) (A) (A) (A) (A) (A)
                 (A) (A) (A) (A) (A) (A) (A) (A) (A) (A) (A) (A)
                 (A) (A) (A) (A) (A) (A) (A) (A) (A) (A) (A) (A)
                 (A) (A) (A) (A) (A) (A) (A) (A) (A) (A) (A) (A)
                 (A) (A) (A) (A) (A) (A) (A) (A) (A) (A) (A) (A)
                 (A) (A) (A) (A) (A) (A) (A) (A) (A) (A) (A) (A)
                 (A) (A) (A) (A) (A) (A) (A) (A) (A) (A) (A) (A)
                 (A) (A) (A) (A) (A) (A) (A) (A) (A) (A) (A) (A)
                 (A) (A) (A) (A) (A) (A) (A) (A) (A) (A) (A) (A)
                 (A) (A) (A) (A) (A) (A) (A) (A) (A) (A) (A) (A)
                 (A) (A) (A) (A) (A) (A) (A) (A) (A) (A) (A) (A)
                 (A) (A) (A) (A) (A) (A) (A) (A) (A) (A) (A) (A)
                 (A) (A) (A) (A) (A) (A) (A) (A) (A) (A) (A) (A)
                 (A) (A) (A) (A) (A) (A) (A) (A) (A) (A) (A) (A)
                 (A) (A) (A) (A) (A) (A) (A) (A) (A) (A) (A) (A)
                 (A) (A) (A) (A) (A) (A) (A) (A) (A) (A) (A) (A)
                 (A) (A) (A) (A) (A) (A) (A) (A) (A) (A) (A) (A)
                 (A) (A) (A) (A) (A) (A) (A) (A) (A) (A) (A) (A)
                 (A) (A) (A) (A) (A) (A) (A) (A) (A) (A) (A) (A)
                 (A) (A) (A) (A) (A) (A) (A) (A) (A) (A) (A) (A)
                 (A) (A) (A) (A) (A) (A) (A) (A) (A) (A) (A) (A)
                 (A) (A) (A) (A) (A) (A) (A) (A) (A) (A) (A) (A)
                 (A) (A) (A) (A) (A) (A) (A) (A) (A) (A) (A) (A)
                 (A) (A) (A) (A) (A) (A) (A) (A) (A) (A) (A) (A)
                 (A) (A) (A) (A) (A) (A) (A) (A) (A) (A) (A) (A)
                 (A) (A) (A) (A) (A) (A) (A) (A) (A) (A) (A) (A)
                 (A) (A) (A) (A) (A) (A) (A) (A) (A) (A) (A) (A)
                 (A) (A) (A) (A) (A) (A) (A) (A) (A) (A) (A) (A)
                 (A) (A) (A) (A) (A) (A) (A) (A) (A) (A) (A) (A)
                 (A) (A) (A) (A) (A) (A) (A) (A) (A) (A) (A) (A)
                 (A) (A) (A) (A) (A) (A) (A) (A) (A) (A) (A) (A)
                 (A) (A) (A) (A) (A) (A) (A) (A) (A) (A) (A) (A)
                 (A) (A) (A) (A) (A) (A) (A) (A) (A) (A) (A) (A)
                 (A) (A) (A) (A) (A) (A) (A) (A) (A) (A) (A) (A)
                 (A) (A) (A) (A) (A) (A) (A) (A) (A) (A) (A) (A)
                 (A) (A) (A) (A) (A) (A) (A) (A) (A) (A) (A) (A)
                 (A) (A) (A) (A) (A) (A) (A) (A) (A) (A) (A) (A)
                 (A) (A) (A) (A) (A) (A) (A) (A) (A) (A) (A) (A)
                 (A) (A) (A) (A) (A) (A) (A) (A) (A) (A) (A) (A)
                 (A) (A) (A) (A) (A) (A) (A) (A) (A) (A) (A) (A)
                 (A) (A) (A) (A) (A) (A) (A) (A) (A) (A) (A) (A)
                 (A) (A) (A) (A) (A) (A) (A) (A) (A) (A) (A) (A)
                 (A) (A) (A) (A) (A) (A) (A) (A) (A) (A) (A) (A)
                 (A) (A) (A) (A) (A) (A) (A) (A) (A) (A) (A) (A)
                 (A) (A) (A) (A) (A) (A) (A) (A) (A) (A) (A) (A)
                 (A) (A) (A) (A) (A) (A) (A) (A) (A) (A) (A) (A)
                 (A) (A) (A) (A) (A) (A) (A) (A) (A) (A) (A) (A)
                 (A) (A) (A) (A) (A) (A) (A) (A) (A) (A) (A) (A)
                 (A) (A) (A) (A) (A) (A) (A) (A) (A) (A) (A) (A)
                 (A) (A) (A) (A) (A) (A) (A) (A) (A) (A) (A) (A)
                 (A) (A) (A) (A) (A) (A) (A) (A) (A) (A) (A) (A)
                 (A) (A) (A) (A) (A) (A) (A) (A) (A) (A) (A) (A)
                 (A) (A) (A) (A) (A) (A) (A) (A) (A) (A) (A) (A)
                 (A) (A) (A) (A) (A) (A) (A) (A) (A) (A) (A) (A)
                 (A) (A) (A) (A) (A) (A) (A) (A) (A) (A) (A) (A)
                 (A) (A) (A) (A) (A) (A) (A) (A) (A) (A) (A) (A)
                 (A) (A) (A) (A) (A) (A) (A) (A) (A) (A) (A) (A)
                 (A) (A) (A) (A) (A) (A) (A) (A) (A) (A) (A) (A)
                 (A) (A) (A) (A) (A) (A) (A) (A) (A) (A) (A) (A)
                 (A) (A) (A) (A) (A) (A) (A) (A) (A) (A) (A) (A)
                 (A) (A) (A) (A) (A) (A) (A) (A) (A) (A) (A) (A)
                 (A) (A) (A) (A) (A) (A) (A) (A) (A) (A) (A) (A)
                 (A) (A) (A) (A) (A) (A) (A) (A) (A) (A) (A) (A)
                 (A) (A) (A) (A) (A) (A) (A) (A) (A) (A) (A) (A)
                 (A) (A) (A) (A) (A) (A) (A) (A) (A) (A) (A) (A)
                 (A) (A) (A) (A) (A) (A) (A) (A) (A) (A) (A) (A)
                 (A) (A) (A) (A) (A) (A) (A) (A) (A) (A) (A) (A)
                 (A) (A) (A) (A) (A) (A) (A) (A) (A) (A) (A) (A)
                 (A) (A) (A) (A) (A) (A) (A) (A) (A) (A) (A) (A)
                 (A) (A) (A) (A) (A) (A) (A) (A) (A) (A) (A) (A)
                 (A) (A) (A) (A) (A) (A) (A) (A) (A) (A) (A) (A)
                 (A) (A) (A) (A) (A) (A) (A) (A) (A) (A) (A) (A)
                 (A) (A) (A) (A) (A) (A) (A) (A) (A) (A) (A) (A)
                 (A) (A) (A) (A) (A) (A) (A) (A) (A) (A) (A) (A)
                 (A) (A) (A) (A) (A) (A) (A) (A) (A) (A) (A) (A)
                 (A) (A) (A) (A) (A) (A) (A) (A) (A) (A) (A) (A)
                 (A) (A) (A) (A) (A) (A) (A) (A) (A) (A) (A) (A)
                 (A) (A) (A) (A) (A) (A) (A) (A) (A) (A) (A) (A)
                 (A) (A) (A) (A) (A) (A) (A) (A) (A) (A) (A) (A)
                 (A) (A) (A) (A) (A) (A) (A) (A) (A) (A) (A) (A)
                 (A) (A) (A) (A) (A) (A) (A) (A) (A) (A) (A) (A)
                 (A) (A) (A) (A) (A) (A) (A) (A) (A) (A) (A) (A)
                 (A) (A) (A) (A) (A) (A) (A) (A) (A) (A) (A) (A)
                 (A) (A) (A) (A) (A)
 The electronic state is 1-A.
 Alpha  occ. eigenvalues -- -256.17416 -88.93982 -30.02555 -25.86688 -25.86319
 Alpha  occ. eigenvalues --  -25.86290 -14.41516 -14.35940 -14.33173 -14.33122
 Alpha  occ. eigenvalues --  -14.33099 -14.32942 -10.25181 -10.23505 -10.20959
 Alpha  occ. eigenvalues --  -10.20872 -10.20791 -10.20787 -10.20770 -10.20664
 Alpha  occ. eigenvalues --  -10.20654 -10.20599 -10.20599 -10.20561 -10.20512
 Alpha  occ. eigenvalues --  -10.20135 -10.19563 -10.19548 -10.18960 -10.18840
 Alpha  occ. eigenvalues --  -10.18664 -10.18620 -10.18587 -10.18541 -10.18509
 Alpha  occ. eigenvalues --  -10.18490 -10.18452 -10.18424 -10.18381 -10.18379
 Alpha  occ. eigenvalues --  -10.18349 -10.18308 -10.18299 -10.18251 -10.18239
 Alpha  occ. eigenvalues --  -10.18219 -10.18158 -10.18152 -10.17454  -7.96646
 Alpha  occ. eigenvalues --   -5.91240  -5.90945  -5.90414  -3.39958  -2.16535
 Alpha  occ. eigenvalues --   -2.15847  -2.15790  -1.05112  -0.96911  -0.95973
 Alpha  occ. eigenvalues --   -0.95866  -0.94938  -0.90682  -0.82175  -0.81869
 Alpha  occ. eigenvalues --   -0.81486  -0.81391  -0.80631  -0.80269  -0.80050
 Alpha  occ. eigenvalues --   -0.79477  -0.79427  -0.76661  -0.75647  -0.74626
 Alpha  occ. eigenvalues --   -0.74200  -0.73833  -0.73072  -0.71652  -0.70895
 Alpha  occ. eigenvalues --   -0.70008  -0.68157  -0.67792  -0.67722  -0.64973
 Alpha  occ. eigenvalues --   -0.64349  -0.64046  -0.63960  -0.61097  -0.60524
 Alpha  occ. eigenvalues --   -0.59963  -0.58716  -0.57690  -0.56570  -0.55786
 Alpha  occ. eigenvalues --   -0.54383  -0.53575  -0.53264  -0.52506  -0.51006
 Alpha  occ. eigenvalues --   -0.50935  -0.50484  -0.48636  -0.47839  -0.47675
 Alpha  occ. eigenvalues --   -0.47414  -0.47216  -0.46826  -0.44894  -0.44847
 Alpha  occ. eigenvalues --   -0.44472  -0.44452  -0.44305  -0.43623  -0.43607
 Alpha  occ. eigenvalues --   -0.43445  -0.43237  -0.43076  -0.43009  -0.42883
 Alpha  occ. eigenvalues --   -0.42575  -0.42411  -0.42316  -0.42276  -0.41864
 Alpha  occ. eigenvalues --   -0.41647  -0.41550  -0.41375  -0.41231  -0.40199
 Alpha  occ. eigenvalues --   -0.40087  -0.39948  -0.39565  -0.39353  -0.39262
 Alpha  occ. eigenvalues --   -0.38938  -0.38472  -0.38218  -0.37946  -0.37643
 Alpha  occ. eigenvalues --   -0.37368  -0.37232  -0.36862  -0.36378  -0.36133
 Alpha  occ. eigenvalues --   -0.35878  -0.35560  -0.35245  -0.34384  -0.33974
 Alpha  occ. eigenvalues --   -0.33916  -0.33666  -0.33239  -0.32128  -0.31743
 Alpha  occ. eigenvalues --   -0.31343  -0.30760  -0.30297  -0.29208  -0.28971
 Alpha  occ. eigenvalues --   -0.28601  -0.26639  -0.26597  -0.24861  -0.24330
 Alpha  occ. eigenvalues --   -0.23730  -0.22927  -0.22257  -0.21972  -0.19189
 Alpha  occ. eigenvalues --   -0.17875  -0.17795  -0.17557  -0.17487
 Alpha virt. eigenvalues --   -0.06472  -0.06357  -0.01911   0.00533   0.01705
 Alpha virt. eigenvalues --    0.02052   0.02208   0.03308   0.03690   0.04047
 Alpha virt. eigenvalues --    0.04833   0.04985   0.05347   0.05742   0.06046
 Alpha virt. eigenvalues --    0.06079   0.06575   0.06689   0.07071   0.07915
 Alpha virt. eigenvalues --    0.07981   0.08192   0.08280   0.08715   0.08914
 Alpha virt. eigenvalues --    0.09140   0.09622   0.09686   0.10003   0.10420
 Alpha virt. eigenvalues --    0.10684   0.10996   0.11415   0.11567   0.11665
 Alpha virt. eigenvalues --    0.12035   0.12129   0.12186   0.12456   0.12727
 Alpha virt. eigenvalues --    0.12962   0.13258   0.13370   0.13469   0.13600
 Alpha virt. eigenvalues --    0.13987   0.14103   0.14541   0.14611   0.14713
 Alpha virt. eigenvalues --    0.14761   0.14995   0.15208   0.15341   0.15506
 Alpha virt. eigenvalues --    0.15760   0.15823   0.15964   0.16164   0.16281
 Alpha virt. eigenvalues --    0.16682   0.17052   0.17166   0.17391   0.17561
 Alpha virt. eigenvalues --    0.17647   0.17801   0.18154   0.18346   0.18512
 Alpha virt. eigenvalues --    0.18758   0.19243   0.19882   0.19995   0.20106
 Alpha virt. eigenvalues --    0.20469   0.20732   0.20845   0.20979   0.21224
 Alpha virt. eigenvalues --    0.21626   0.21839   0.22161   0.22368   0.22577
 Alpha virt. eigenvalues --    0.22837   0.23302   0.23503   0.23736   0.24194
 Alpha virt. eigenvalues --    0.24452   0.25010   0.25058   0.25625   0.25663
 Alpha virt. eigenvalues --    0.25751   0.26016   0.26159   0.26386   0.26835
 Alpha virt. eigenvalues --    0.27149   0.27283   0.27400   0.27688   0.28174
 Alpha virt. eigenvalues --    0.28435   0.28677   0.28831   0.28906   0.29281
 Alpha virt. eigenvalues --    0.29559   0.29654   0.29891   0.30276   0.30541
 Alpha virt. eigenvalues --    0.30594   0.30841   0.31012   0.31108   0.31560
 Alpha virt. eigenvalues --    0.32154   0.32230   0.32358   0.32813   0.32973
 Alpha virt. eigenvalues --    0.33168   0.33214   0.33557   0.34188   0.34351
 Alpha virt. eigenvalues --    0.34444   0.34567   0.34720   0.35206   0.35696
 Alpha virt. eigenvalues --    0.35886   0.36398   0.36582   0.36854   0.37189
 Alpha virt. eigenvalues --    0.37361   0.37391   0.37728   0.37793   0.38168
 Alpha virt. eigenvalues --    0.38395   0.38515   0.38765   0.39034   0.39195
 Alpha virt. eigenvalues --    0.39625   0.39731   0.39879   0.40071   0.40403
 Alpha virt. eigenvalues --    0.40807   0.40926   0.41027   0.41270   0.41485
 Alpha virt. eigenvalues --    0.41586   0.41728   0.41931   0.42213   0.42244
 Alpha virt. eigenvalues --    0.42699   0.42981   0.43096   0.43406   0.43465
 Alpha virt. eigenvalues --    0.43798   0.43824   0.44008   0.44254   0.44464
 Alpha virt. eigenvalues --    0.44547   0.44725   0.45014   0.45324   0.45383
 Alpha virt. eigenvalues --    0.45520   0.45835   0.46072   0.46286   0.46311
 Alpha virt. eigenvalues --    0.46662   0.46966   0.47183   0.47276   0.47434
 Alpha virt. eigenvalues --    0.47503   0.47762   0.47814   0.48051   0.48248
 Alpha virt. eigenvalues --    0.48446   0.48613   0.48772   0.48909   0.49233
 Alpha virt. eigenvalues --    0.49440   0.49452   0.49725   0.49794   0.49993
 Alpha virt. eigenvalues --    0.50131   0.50335   0.50386   0.50738   0.50854
 Alpha virt. eigenvalues --    0.51042   0.51210   0.51346   0.51774   0.51943
 Alpha virt. eigenvalues --    0.51977   0.52154   0.52564   0.52724   0.53056
 Alpha virt. eigenvalues --    0.53099   0.53295   0.53492   0.53754   0.54071
 Alpha virt. eigenvalues --    0.54203   0.54439   0.54715   0.55116   0.55192
 Alpha virt. eigenvalues --    0.55545   0.55637   0.56078   0.56367   0.56538
 Alpha virt. eigenvalues --    0.56737   0.57069   0.57176   0.57438   0.57552
 Alpha virt. eigenvalues --    0.57903   0.57985   0.58332   0.58559   0.58607
 Alpha virt. eigenvalues --    0.59202   0.59570   0.59803   0.60222   0.60401
 Alpha virt. eigenvalues --    0.60632   0.60827   0.61274   0.61750   0.62104
 Alpha virt. eigenvalues --    0.62283   0.62988   0.63143   0.63191   0.63519
 Alpha virt. eigenvalues --    0.63723   0.63856   0.64047   0.64309   0.64839
 Alpha virt. eigenvalues --    0.65209   0.65438   0.65486   0.65893   0.66077
 Alpha virt. eigenvalues --    0.66198   0.66611   0.67104   0.67336   0.67779
 Alpha virt. eigenvalues --    0.68228   0.68322   0.68752   0.69039   0.69468
 Alpha virt. eigenvalues --    0.69741   0.69884   0.70360   0.70675   0.71178
 Alpha virt. eigenvalues --    0.71465   0.71650   0.71960   0.72067   0.72424
 Alpha virt. eigenvalues --    0.72775   0.73199   0.73498   0.73786   0.74012
 Alpha virt. eigenvalues --    0.74301   0.74486   0.75191   0.75392   0.75717
 Alpha virt. eigenvalues --    0.76057   0.76443   0.76577   0.76929   0.77441
 Alpha virt. eigenvalues --    0.77539   0.77772   0.78155   0.78339   0.78808
 Alpha virt. eigenvalues --    0.79321   0.79421   0.79543   0.80202   0.80470
 Alpha virt. eigenvalues --    0.80703   0.80812   0.80962   0.81589   0.81824
 Alpha virt. eigenvalues --    0.82138   0.82671   0.82729   0.83223   0.83328
 Alpha virt. eigenvalues --    0.83616   0.84408   0.84644   0.84866   0.85143
 Alpha virt. eigenvalues --    0.85420   0.85643   0.86469   0.86805   0.87152
 Alpha virt. eigenvalues --    0.87194   0.87721   0.88304   0.88606   0.89058
 Alpha virt. eigenvalues --    0.89269   0.89659   0.89820   0.90105   0.90639
 Alpha virt. eigenvalues --    0.91081   0.91097   0.91744   0.91862   0.92393
 Alpha virt. eigenvalues --    0.92678   0.92859   0.93074   0.93288   0.93853
 Alpha virt. eigenvalues --    0.94152   0.94419   0.94750   0.95042   0.95363
 Alpha virt. eigenvalues --    0.95430   0.95914   0.96103   0.96265   0.96702
 Alpha virt. eigenvalues --    0.97219   0.97352   0.97556   0.97746   0.98131
 Alpha virt. eigenvalues --    0.98637   0.98905   0.99081   0.99599   0.99668
 Alpha virt. eigenvalues --    1.00326   1.00542   1.00908   1.01330   1.01729
 Alpha virt. eigenvalues --    1.01764   1.01942   1.02563   1.02792   1.02898
 Alpha virt. eigenvalues --    1.03020   1.03374   1.03702   1.04229   1.04302
 Alpha virt. eigenvalues --    1.04875   1.05241   1.05309   1.05914   1.05987
 Alpha virt. eigenvalues --    1.06490   1.06914   1.07201   1.07549   1.07853
 Alpha virt. eigenvalues --    1.08189   1.08589   1.08855   1.09269   1.09519
 Alpha virt. eigenvalues --    1.09750   1.10198   1.10448   1.11085   1.11251
 Alpha virt. eigenvalues --    1.11599   1.11789   1.12150   1.12861   1.13241
 Alpha virt. eigenvalues --    1.13450   1.13979   1.14014   1.14421   1.14983
 Alpha virt. eigenvalues --    1.15403   1.15787   1.16122   1.16525   1.16982
 Alpha virt. eigenvalues --    1.17191   1.17738   1.17946   1.18438   1.19034
 Alpha virt. eigenvalues --    1.19357   1.19646   1.20126   1.20263   1.20331
 Alpha virt. eigenvalues --    1.20793   1.20962   1.21526   1.21836   1.22067
 Alpha virt. eigenvalues --    1.22797   1.23157   1.23352   1.23829   1.24045
 Alpha virt. eigenvalues --    1.24321   1.24977   1.25538   1.25821   1.26433
 Alpha virt. eigenvalues --    1.26906   1.27235   1.27285   1.27752   1.28062
 Alpha virt. eigenvalues --    1.28377   1.28610   1.28773   1.29007   1.29489
 Alpha virt. eigenvalues --    1.29624   1.29875   1.30059   1.30789   1.31122
 Alpha virt. eigenvalues --    1.31421   1.32323   1.32413   1.33128   1.33573
 Alpha virt. eigenvalues --    1.33715   1.34514   1.34902   1.35418   1.35813
 Alpha virt. eigenvalues --    1.36036   1.36840   1.37143   1.37540   1.37730
 Alpha virt. eigenvalues --    1.38581   1.38952   1.39801   1.40334   1.40845
 Alpha virt. eigenvalues --    1.41492   1.42112   1.42304   1.42890   1.42985
 Alpha virt. eigenvalues --    1.43391   1.44240   1.44746   1.45187   1.45782
 Alpha virt. eigenvalues --    1.46631   1.46942   1.47292   1.47642   1.47749
 Alpha virt. eigenvalues --    1.47968   1.48396   1.48657   1.48859   1.49350
 Alpha virt. eigenvalues --    1.49522   1.49914   1.50496   1.50748   1.51159
 Alpha virt. eigenvalues --    1.51419   1.51638   1.51708   1.52085   1.52268
 Alpha virt. eigenvalues --    1.52376   1.52790   1.52996   1.53151   1.53410
 Alpha virt. eigenvalues --    1.53954   1.54095   1.54539   1.54668   1.54927
 Alpha virt. eigenvalues --    1.55140   1.55557   1.55796   1.56011   1.56351
 Alpha virt. eigenvalues --    1.56412   1.56841   1.56989   1.57274   1.57416
 Alpha virt. eigenvalues --    1.57923   1.58005   1.58296   1.58417   1.58758
 Alpha virt. eigenvalues --    1.59029   1.59131   1.59356   1.59651   1.59970
 Alpha virt. eigenvalues --    1.60180   1.60559   1.60877   1.61221   1.61478
 Alpha virt. eigenvalues --    1.61597   1.61695   1.62034   1.62300   1.62876
 Alpha virt. eigenvalues --    1.62966   1.63467   1.63805   1.63895   1.64404
 Alpha virt. eigenvalues --    1.64601   1.64726   1.64946   1.65502   1.65891
 Alpha virt. eigenvalues --    1.65979   1.66205   1.66544   1.66920   1.67288
 Alpha virt. eigenvalues --    1.67462   1.67923   1.67971   1.68257   1.68724
 Alpha virt. eigenvalues --    1.69003   1.69423   1.69714   1.69764   1.70104
 Alpha virt. eigenvalues --    1.70595   1.71016   1.71305   1.71570   1.71698
 Alpha virt. eigenvalues --    1.71940   1.72171   1.72662   1.72833   1.73120
 Alpha virt. eigenvalues --    1.73460   1.73744   1.73964   1.74502   1.74795
 Alpha virt. eigenvalues --    1.75329   1.75539   1.75730   1.76267   1.76783
 Alpha virt. eigenvalues --    1.77163   1.77795   1.78545   1.78890   1.79249
 Alpha virt. eigenvalues --    1.79741   1.80198   1.80407   1.81441   1.82200
 Alpha virt. eigenvalues --    1.82571   1.82783   1.83322   1.83598   1.83982
 Alpha virt. eigenvalues --    1.84102   1.84732   1.85164   1.85536   1.85953
 Alpha virt. eigenvalues --    1.86207   1.86500   1.86626   1.87039   1.87323
 Alpha virt. eigenvalues --    1.87757   1.88130   1.88538   1.89061   1.89152
 Alpha virt. eigenvalues --    1.89824   1.90177   1.90301   1.91004   1.91381
 Alpha virt. eigenvalues --    1.91935   1.92285   1.92815   1.93154   1.93692
 Alpha virt. eigenvalues --    1.93947   1.94626   1.94707   1.95229   1.95870
 Alpha virt. eigenvalues --    1.96384   1.96428   1.97302   1.97396   1.97866
 Alpha virt. eigenvalues --    1.97968   1.98588   1.98649   1.99199   1.99704
 Alpha virt. eigenvalues --    2.00023   2.00183   2.00666   2.01024   2.01562
 Alpha virt. eigenvalues --    2.01897   2.02325   2.02749   2.03159   2.03545
 Alpha virt. eigenvalues --    2.03833   2.04447   2.04983   2.05517   2.06092
 Alpha virt. eigenvalues --    2.06792   2.07120   2.07656   2.08016   2.08589
 Alpha virt. eigenvalues --    2.08806   2.09057   2.09804   2.10056   2.10255
 Alpha virt. eigenvalues --    2.10692   2.10791   2.11140   2.11612   2.11911
 Alpha virt. eigenvalues --    2.12212   2.12873   2.13377   2.13852   2.14266
 Alpha virt. eigenvalues --    2.14579   2.14941   2.15277   2.16046   2.16292
 Alpha virt. eigenvalues --    2.16599   2.16821   2.17328   2.17830   2.17863
 Alpha virt. eigenvalues --    2.18404   2.18990   2.19254   2.19882   2.20076
 Alpha virt. eigenvalues --    2.20257   2.20510   2.20931   2.21191   2.22230
 Alpha virt. eigenvalues --    2.22400   2.22568   2.22819   2.22976   2.23578
 Alpha virt. eigenvalues --    2.24291   2.25241   2.25568   2.26013   2.26305
 Alpha virt. eigenvalues --    2.26557   2.26938   2.27567   2.27930   2.28583
 Alpha virt. eigenvalues --    2.28797   2.29157   2.29264   2.29678   2.29804
 Alpha virt. eigenvalues --    2.30357   2.31148   2.31369   2.31623   2.31838
 Alpha virt. eigenvalues --    2.32347   2.32750   2.33166   2.33620   2.34595
 Alpha virt. eigenvalues --    2.34782   2.35017   2.35451   2.35890   2.36170
 Alpha virt. eigenvalues --    2.36585   2.36916   2.37360   2.37546   2.37722
 Alpha virt. eigenvalues --    2.38017   2.38168   2.38705   2.39138   2.39414
 Alpha virt. eigenvalues --    2.40030   2.40156   2.41076   2.41274   2.41610
 Alpha virt. eigenvalues --    2.42340   2.42779   2.43080   2.43400   2.43806
 Alpha virt. eigenvalues --    2.44363   2.45000   2.45147   2.45253   2.45868
 Alpha virt. eigenvalues --    2.46332   2.46586   2.46710   2.46868   2.47510
 Alpha virt. eigenvalues --    2.47831   2.47976   2.48917   2.48974   2.49558
 Alpha virt. eigenvalues --    2.50013   2.50162   2.50327   2.50773   2.51522
 Alpha virt. eigenvalues --    2.51949   2.52020   2.52421   2.52670   2.52859
 Alpha virt. eigenvalues --    2.53626   2.53775   2.54216   2.54583   2.54918
 Alpha virt. eigenvalues --    2.55749   2.55972   2.56374   2.56692   2.56869
 Alpha virt. eigenvalues --    2.57073   2.57284   2.57589   2.58106   2.58421
 Alpha virt. eigenvalues --    2.58602   2.59002   2.59311   2.59549   2.59957
 Alpha virt. eigenvalues --    2.60343   2.60585   2.61049   2.61333   2.61473
 Alpha virt. eigenvalues --    2.61667   2.62355   2.62484   2.62676   2.63632
 Alpha virt. eigenvalues --    2.63752   2.64101   2.64629   2.64650   2.65110
 Alpha virt. eigenvalues --    2.65417   2.65690   2.65867   2.66535   2.66946
 Alpha virt. eigenvalues --    2.67173   2.67362   2.67620   2.68277   2.68807
 Alpha virt. eigenvalues --    2.69131   2.69469   2.69574   2.70149   2.70382
 Alpha virt. eigenvalues --    2.70480   2.71221   2.71459   2.71857   2.72169
 Alpha virt. eigenvalues --    2.72604   2.72968   2.73146   2.73358   2.73712
 Alpha virt. eigenvalues --    2.74091   2.74872   2.75032   2.75294   2.75939
 Alpha virt. eigenvalues --    2.76143   2.77034   2.77350   2.77433   2.77646
 Alpha virt. eigenvalues --    2.78159   2.78456   2.79233   2.79518   2.79972
 Alpha virt. eigenvalues --    2.80369   2.80544   2.81030   2.81177   2.81665
 Alpha virt. eigenvalues --    2.82015   2.82543   2.82970   2.83265   2.83490
 Alpha virt. eigenvalues --    2.83691   2.84174   2.84707   2.85294   2.85665
 Alpha virt. eigenvalues --    2.86080   2.86454   2.86575   2.87187   2.87447
 Alpha virt. eigenvalues --    2.87790   2.88417   2.88578   2.89172   2.89566
 Alpha virt. eigenvalues --    2.90148   2.90427   2.90615   2.91083   2.91274
 Alpha virt. eigenvalues --    2.91894   2.92259   2.92929   2.93143   2.93778
 Alpha virt. eigenvalues --    2.93879   2.94213   2.94477   2.94617   2.95152
 Alpha virt. eigenvalues --    2.95580   2.96043   2.96124   2.96481   2.96681
 Alpha virt. eigenvalues --    2.96893   2.97447   2.97776   2.97821   2.98151
 Alpha virt. eigenvalues --    2.98347   2.98931   2.99482   3.00007   3.00120
 Alpha virt. eigenvalues --    3.00372   3.01006   3.01158   3.01524   3.01978
 Alpha virt. eigenvalues --    3.02124   3.02437   3.02734   3.03360   3.03509
 Alpha virt. eigenvalues --    3.03891   3.04241   3.04710   3.05007   3.05341
 Alpha virt. eigenvalues --    3.06171   3.06276   3.07116   3.07240   3.07649
 Alpha virt. eigenvalues --    3.08054   3.08387   3.08898   3.08975   3.09387
 Alpha virt. eigenvalues --    3.09694   3.09801   3.10062   3.10258   3.10587
 Alpha virt. eigenvalues --    3.11150   3.11474   3.11793   3.12364   3.12556
 Alpha virt. eigenvalues --    3.12966   3.12995   3.13278   3.13410   3.13997
 Alpha virt. eigenvalues --    3.14222   3.14425   3.14790   3.15209   3.15489
 Alpha virt. eigenvalues --    3.15881   3.16173   3.16480   3.16788   3.17053
 Alpha virt. eigenvalues --    3.17383   3.17527   3.17684   3.17829   3.18461
 Alpha virt. eigenvalues --    3.18768   3.18809   3.19138   3.19687   3.20002
 Alpha virt. eigenvalues --    3.20120   3.20615   3.20890   3.21283   3.21665
 Alpha virt. eigenvalues --    3.21690   3.22005   3.22175   3.22739   3.22842
 Alpha virt. eigenvalues --    3.23333   3.23687   3.24022   3.24326   3.24695
 Alpha virt. eigenvalues --    3.24756   3.25084   3.25337   3.25590   3.25762
 Alpha virt. eigenvalues --    3.25876   3.26312   3.26674   3.26934   3.27031
 Alpha virt. eigenvalues --    3.27461   3.27646   3.27827   3.28135   3.28276
 Alpha virt. eigenvalues --    3.28363   3.28922   3.29153   3.29228   3.29542
 Alpha virt. eigenvalues --    3.29944   3.30017   3.30621   3.30780   3.30834
 Alpha virt. eigenvalues --    3.31127   3.31214   3.31928   3.32073   3.32126
 Alpha virt. eigenvalues --    3.32192   3.32568   3.32885   3.33523   3.33871
 Alpha virt. eigenvalues --    3.34099   3.34219   3.34424   3.34904   3.35214
 Alpha virt. eigenvalues --    3.35373   3.35511   3.35838   3.36418   3.36465
 Alpha virt. eigenvalues --    3.36716   3.37008   3.37236   3.37557   3.37705
 Alpha virt. eigenvalues --    3.37892   3.37999   3.38370   3.38896   3.38967
 Alpha virt. eigenvalues --    3.39370   3.39608   3.39726   3.39965   3.40298
 Alpha virt. eigenvalues --    3.40526   3.40744   3.41343   3.41893   3.42129
 Alpha virt. eigenvalues --    3.42377   3.42520   3.43004   3.43369   3.43799
 Alpha virt. eigenvalues --    3.43979   3.44405   3.44618   3.44870   3.45318
 Alpha virt. eigenvalues --    3.45364   3.46117   3.46322   3.46449   3.46838
 Alpha virt. eigenvalues --    3.47618   3.47910   3.48148   3.48577   3.49150
 Alpha virt. eigenvalues --    3.49364   3.49967   3.50279   3.50787   3.51035
 Alpha virt. eigenvalues --    3.51227   3.51808   3.52162   3.52592   3.53042
 Alpha virt. eigenvalues --    3.53494   3.54405   3.54877   3.55140   3.55463
 Alpha virt. eigenvalues --    3.55723   3.55816   3.56643   3.56818   3.57139
 Alpha virt. eigenvalues --    3.57322   3.57975   3.58627   3.58808   3.58820
 Alpha virt. eigenvalues --    3.59541   3.59785   3.59971   3.60517   3.60777
 Alpha virt. eigenvalues --    3.61375   3.61489   3.61961   3.62362   3.62791
 Alpha virt. eigenvalues --    3.63004   3.63559   3.64061   3.64961   3.65143
 Alpha virt. eigenvalues --    3.65646   3.66228   3.66303   3.66979   3.67217
 Alpha virt. eigenvalues --    3.67275   3.67870   3.68133   3.69217   3.69376
 Alpha virt. eigenvalues --    3.69750   3.69847   3.70233   3.70550   3.71100
 Alpha virt. eigenvalues --    3.71347   3.71484   3.71906   3.72369   3.72633
 Alpha virt. eigenvalues --    3.72920   3.73351   3.74210   3.74459   3.74902
 Alpha virt. eigenvalues --    3.75188   3.75267   3.75620   3.75751   3.76545
 Alpha virt. eigenvalues --    3.77417   3.77884   3.77973   3.78918   3.79315
 Alpha virt. eigenvalues --    3.79582   3.79690   3.80717   3.80807   3.81322
 Alpha virt. eigenvalues --    3.81560   3.82090   3.82152   3.82669   3.83167
 Alpha virt. eigenvalues --    3.84155   3.84797   3.85254   3.85866   3.86245
 Alpha virt. eigenvalues --    3.86817   3.88181   3.88470   3.88809   3.89506
 Alpha virt. eigenvalues --    3.90147   3.90738   3.91199   3.91266   3.91798
 Alpha virt. eigenvalues --    3.91983   3.92445   3.93035   3.94016   3.94642
 Alpha virt. eigenvalues --    3.95202   3.95515   3.96875   3.97203   3.97853
 Alpha virt. eigenvalues --    3.98036   3.98643   3.99508   3.99940   4.00119
 Alpha virt. eigenvalues --    4.01057   4.01612   4.01765   4.02118   4.02808
 Alpha virt. eigenvalues --    4.03187   4.03403   4.03859   4.05016   4.05169
 Alpha virt. eigenvalues --    4.05481   4.06042   4.06658   4.07015   4.07229
 Alpha virt. eigenvalues --    4.08167   4.08423   4.09592   4.10303   4.11872
 Alpha virt. eigenvalues --    4.12124   4.12865   4.13687   4.14195   4.15725
 Alpha virt. eigenvalues --    4.16087   4.16778   4.17050   4.17263   4.18057
 Alpha virt. eigenvalues --    4.18245   4.19341   4.19523   4.20011   4.20469
 Alpha virt. eigenvalues --    4.20807   4.21094   4.21613   4.22576   4.22688
 Alpha virt. eigenvalues --    4.23469   4.23869   4.24354   4.24673   4.25190
 Alpha virt. eigenvalues --    4.26022   4.26603   4.27136   4.27346   4.28058
 Alpha virt. eigenvalues --    4.28845   4.29645   4.30202   4.30694   4.31268
 Alpha virt. eigenvalues --    4.31669   4.32036   4.32455   4.33775   4.34136
 Alpha virt. eigenvalues --    4.34466   4.34867   4.35408   4.35607   4.36342
 Alpha virt. eigenvalues --    4.36506   4.37014   4.37349   4.38051   4.38702
 Alpha virt. eigenvalues --    4.39333   4.40027   4.40252   4.40929   4.41433
 Alpha virt. eigenvalues --    4.41592   4.41798   4.41890   4.42669   4.43471
 Alpha virt. eigenvalues --    4.43865   4.44296   4.44641   4.45190   4.45787
 Alpha virt. eigenvalues --    4.45835   4.46641   4.47147   4.47200   4.47686
 Alpha virt. eigenvalues --    4.47767   4.48552   4.49011   4.49755   4.50683
 Alpha virt. eigenvalues --    4.51132   4.52098   4.52948   4.53770   4.54478
 Alpha virt. eigenvalues --    4.55413   4.55634   4.55989   4.56847   4.56953
 Alpha virt. eigenvalues --    4.57745   4.58282   4.59062   4.59206   4.60720
 Alpha virt. eigenvalues --    4.61517   4.62401   4.64316   4.65570   4.66390
 Alpha virt. eigenvalues --    4.67146   4.67978   4.69350   4.69771   4.70680
 Alpha virt. eigenvalues --    4.70796   4.71422   4.72409   4.72598   4.73449
 Alpha virt. eigenvalues --    4.73938   4.74087   4.74569   4.75549   4.75696
 Alpha virt. eigenvalues --    4.76830   4.76882   4.78761   4.80648   4.81842
 Alpha virt. eigenvalues --    4.82166   4.83650   4.83979   4.84629   4.85228
 Alpha virt. eigenvalues --    4.85687   4.85948   4.86291   4.87015   4.87535
 Alpha virt. eigenvalues --    4.88013   4.88664   4.89558   4.90198   4.90499
 Alpha virt. eigenvalues --    4.92468   4.93704   4.95537   4.95669   4.96412
 Alpha virt. eigenvalues --    4.96551   4.97398   4.97779   4.98881   4.99421
 Alpha virt. eigenvalues --    5.00101   5.00829   5.02302   5.02855   5.03195
 Alpha virt. eigenvalues --    5.04706   5.05876   5.06813   5.06994   5.07352
 Alpha virt. eigenvalues --    5.08946   5.09243   5.09793   5.11697   5.12885
 Alpha virt. eigenvalues --    5.13320   5.14461   5.15277   5.16204   5.18908
 Alpha virt. eigenvalues --    5.20579   5.21057   5.22115   5.23090   5.23881
 Alpha virt. eigenvalues --    5.24090   5.24333   5.27703   5.28390   5.29214
 Alpha virt. eigenvalues --    5.29956   5.31903   5.32137   5.33560   5.35627
 Alpha virt. eigenvalues --    5.38123   5.39178   5.39649   5.40216   5.40501
 Alpha virt. eigenvalues --    5.40719   5.41933   5.42555   5.43237   5.45002
 Alpha virt. eigenvalues --    5.48110   5.49564   5.50459   5.51068   5.51924
 Alpha virt. eigenvalues --    5.53128   5.54375   5.55611   5.58464   5.61385
 Alpha virt. eigenvalues --    5.61989   5.62510   5.64264   5.64846   5.65146
 Alpha virt. eigenvalues --    5.66547   5.67529   5.68218   5.68901   5.70349
 Alpha virt. eigenvalues --    5.73289   5.74816   5.78545   5.79228   5.83313
 Alpha virt. eigenvalues --    5.87466   5.88321   5.94644   5.96278   5.99094
 Alpha virt. eigenvalues --    6.02185   6.02447   6.03154   6.03893   6.05012
 Alpha virt. eigenvalues --    6.10205   6.15523   6.16665   6.17365   6.18114
 Alpha virt. eigenvalues --    6.20403   6.22351   6.29099   6.35501   6.36505
 Alpha virt. eigenvalues --    6.42533   9.30008   9.48229   9.58473  20.04806
 Alpha virt. eigenvalues --   22.35668  22.36922  22.42795  22.44171  22.46235
 Alpha virt. eigenvalues --   22.46991  22.47701  22.51973  22.52954  22.53890
 Alpha virt. eigenvalues --   22.62681  22.63116  22.83103  22.87112  22.87614
 Alpha virt. eigenvalues --   22.94506  22.96592  22.97235  22.98356  23.00121
 Alpha virt. eigenvalues --   23.04341  23.05259  23.12484  23.14594  23.29305
 Alpha virt. eigenvalues --   23.29662  23.32463  23.33767  23.42654  23.44683
 Alpha virt. eigenvalues --   23.51482  23.52341  23.56432  23.74998  23.79701
 Alpha virt. eigenvalues --   23.80672  23.90425  32.42125  32.85121  32.96912
 Alpha virt. eigenvalues --   33.07916  33.09333  33.15968
          Condensed to atoms (all electrons):
 Mulliken charges:
               1
     1  Fe  -0.535483
     2  N    0.034986
     3  N    0.054598
     4  N    0.001019
     5  N    0.013517
     6  C    0.206941
     7  C   -0.023220
     8  C   -0.055855
     9  C    0.246118
    10  C    0.191786
    11  C   -0.009190
    12  C   -0.040503
    13  C    0.196078
    14  C    0.168569
    15  C    0.079691
    16  C   -0.036265
    17  C    0.269108
    18  C    0.169327
    19  C    0.109753
    20  C   -0.061548
    21  C    0.256071
    22  C   -0.457000
    23  H    0.130244
    24  C   -0.478230
    25  H    0.136263
    26  C   -0.447084
    27  H    0.121355
    28  C   -0.573303
    29  H    0.112771
    30  C   -0.417719
    31  H    0.131554
    32  H    0.139150
    33  H    0.119056
    34  C   -0.415297
    35  H    0.137667
    36  H    0.130321
    37  H    0.119335
    38  C   -0.458223
    39  H    0.141828
    40  H    0.129066
    41  H    0.158790
    42  C   -0.210798
    43  H    0.108557
    44  C   -0.284211
    45  H    0.137260
    46  H    0.121357
    47  C   -0.444605
    48  H    0.140490
    49  H    0.126068
    50  H    0.152666
    51  C   -0.211225
    52  H    0.112024
    53  C   -0.287654
    54  H    0.138819
    55  H    0.121521
    56  C   -0.419959
    57  H    0.140701
    58  H    0.132463
    59  H    0.119421
    60  C   -0.411059
    61  H    0.120454
    62  H    0.132549
    63  H    0.136725
    64  C   -0.394409
    65  H    0.146218
    66  H    0.135076
    67  H    0.134064
    68  N   -0.230007
    69  H    0.233933
    70  C    0.175490
    71  C    0.002138
    72  H    0.177704
    73  N    0.091844
    74  C   -0.221243
    75  H    0.156792
    76  C   -0.352150
    77  H    0.147776
    78  H    0.113732
    79  H    0.112565
    80  C   -0.165536
    81  H    0.142701
    82  H    0.118535
    83  S    0.027460
    84  C   -0.372443
    85  H    0.153396
    86  H    0.149596
    87  H    0.149158
 Sum of Mulliken charges =  -0.00000
 Mulliken charges with hydrogens summed into heavy atoms:
               1
     1  Fe  -0.535483
     2  N    0.034986
     3  N    0.054598
     4  N    0.001019
     5  N    0.013517
     6  C    0.206941
     7  C   -0.023220
     8  C   -0.055855
     9  C    0.246118
    10  C    0.191786
    11  C   -0.009190
    12  C   -0.040503
    13  C    0.196078
    14  C    0.168569
    15  C    0.079691
    16  C   -0.036265
    17  C    0.269108
    18  C    0.169327
    19  C    0.109753
    20  C   -0.061548
    21  C    0.256071
    22  C   -0.326756
    24  C   -0.341966
    26  C   -0.325729
    28  C   -0.460533
    30  C   -0.027960
    34  C   -0.027975
    38  C   -0.028539
    42  C   -0.102241
    44  C   -0.025594
    47  C   -0.025381
    51  C   -0.099201
    53  C   -0.027314
    56  C   -0.027373
    60  C   -0.021331
    64  C    0.020949
    68  N    0.003926
    70  C    0.175490
    71  C    0.179843
    73  N    0.091844
    74  C   -0.064451
    76  C    0.021924
    80  C    0.095700
    83  S    0.027460
    84  C    0.079707
 Electronic spatial extent (au):  <R**2>=          21607.3463
 Charge=             -0.0000 electrons
 Dipole moment (field-independent basis, Debye):
    X=             -0.6390    Y=             -1.0453    Z=              3.7396  Tot=              3.9352
 Quadrupole moment (field-independent basis, Debye-Ang):
   XX=           -270.0530   YY=           -269.3035   ZZ=           -250.1323
   XY=              2.0453   XZ=             -3.0964   YZ=             -5.8502
 Traceless Quadrupole moment (field-independent basis, Debye-Ang):
   XX=             -6.8901   YY=             -6.1405   ZZ=             13.0306
   XY=              2.0453   XZ=             -3.0964   YZ=             -5.8502
 Octapole moment (field-independent basis, Debye-Ang**2):
  XXX=            -32.9314  YYY=            -43.4927  ZZZ=            133.0467  XYY=              7.5058
  XXY=            -21.0740  XXZ=              0.1334  XZZ=             -7.9796  YZZ=            -15.7815
  YYZ=              2.7735  XYZ=              8.3963
 Hexadecapole moment (field-independent basis, Debye-Ang**3):
 XXXX=         -12424.7540 YYYY=         -11877.9326 ZZZZ=          -4349.2608 XXXY=            -32.8526
 XXXZ=           -106.1627 YYYX=             36.6348 YYYZ=            -60.8851 ZZZX=              0.1669
 ZZZY=           -118.3817 XXYY=          -3999.0543 XXZZ=          -3009.4386 YYZZ=          -2922.6176
 XXYZ=             36.6696 YYXZ=            -17.9984 ZZXY=             20.5382
 N-N= 7.157503113406D+03 E-N=-2.237133203752D+04  KE= 3.413664072653D+03
  Exact polarizability:     730.762      -2.230     719.454     -22.165      -8.927     382.484
 Approx polarizability:    1374.818       7.261    1374.564     -68.601     -29.341     599.055

 ----------------------------------------------------------------------

 Electric dipole moment (input orientation):
 (Debye = 10**-18 statcoulomb cm , SI units = C m)
                  (au)            (Debye)         (10**-30 SI)
   Tot        0.154821D+01      0.393515D+01      0.131262D+02
   x          0.564590D-01      0.143504D+00      0.478679D+00
   y          0.896490D+00      0.227865D+01      0.760076D+01
   z          0.126098D+01      0.320509D+01      0.106910D+02

 Dipole polarizability, Alpha (input orientation).
 (esu units = cm**3 , SI units = C**2 m**2 J**-1)
 Alpha(0;0):
               (au)            (10**-24 esu)      (10**-40 SI)
   iso        0.610900D+03      0.905261D+02      0.100724D+03
   aniso      0.345275D+03      0.511644D+02      0.569281D+02
   xx         0.669059D+03      0.991444D+02      0.110313D+03
   yx        -0.630054D+02     -0.933644D+01     -0.103882D+02
   yy         0.658425D+03      0.975685D+02      0.108560D+03
   zx        -0.103959D+03     -0.154051D+02     -0.171405D+02
   zy        -0.128670D+03     -0.190669D+02     -0.212148D+02
   zz         0.505216D+03      0.748653D+02      0.832988D+02

 First dipole hyperpolarizability, Beta (input orientation).
 ||, _|_  parallel and perpendicular components, (z) with respect to z axis,
 vector components x,y,z.  Values do not include the 1/n! factor of 1/2.
 (esu units = statvolt**-1 cm**4 , SI units = C**3 m**3 J**-2)
 Beta(0;0,0):
               (au)            (10**-30 esu)      (10**-50 SI)
   || (z)    -0.193129D+03     -0.166849D+01     -0.619242D+00
   _|_(z)    -0.643764D+02     -0.556162D+00     -0.206414D+00
   x          0.538659D+04      0.465360D+02      0.172714D+02
   y         -0.131899D+04     -0.113950D+02     -0.422914D+01
   z         -0.965646D+03     -0.834243D+01     -0.309621D+01
   ||         0.112583D+04      0.972633D+01      0.360983D+01
   xxx        0.524630D+03      0.453239D+01      0.168215D+01
   xxy        0.686427D+02      0.593019D+00      0.220093D+00
   yxy        0.824727D+03      0.712500D+01      0.264437D+01
   yyy       -0.781774D+03     -0.675392D+01     -0.250665D+01
   xxz       -0.269481D+03     -0.232810D+01     -0.864053D+00
   yxz       -0.354012D+03     -0.305839D+01     -0.113509D+01
   yyz        0.481065D+02      0.415603D+00      0.154247D+00
   zxz        0.446174D+03      0.385460D+01      0.143060D+01
   zyz        0.273470D+03      0.236257D+01      0.876844D+00
   zzz       -0.100508D+03     -0.868309D+00     -0.322264D+00

 ----------------------------------------------------------------------

 Dipole orientation:
    26         13.08743136        -26.20992998         -9.43784618
     7         10.11083301        -28.28985055         -8.47600401
     7         11.32359095        -23.11739389         -8.37262057
     7         16.16564973        -24.21492965        -10.38750668
     7         14.92365359        -29.37314096        -10.48459510
     6          9.91551452        -30.84513611         -8.47844808
     6          7.36239668        -31.61927200         -7.87956258
     6          6.02176659        -29.45898595         -7.51537813
     6          7.78400937        -27.39584773         -7.85962725
     6          8.84111762        -22.88533687         -7.76527390
     6          8.22693479        -20.28513184         -7.19578722
     6         10.40169187        -18.94737561         -7.49812191
     6         12.31266177        -20.75071511         -8.25233814
     6         16.53920769        -21.72755103         -9.88414647
     6         19.02939139        -20.94058975        -10.71485805
     6         20.09734704        -23.01594052        -11.83626435
     6         18.27816277        -25.02891621        -11.60440032
     6         17.22031846        -29.53489093        -11.61751125
     6         17.96601187        -32.15239249        -11.91417162
     6         16.03826100        -33.56207751        -10.91728851
     6         14.16591508        -31.78947605        -10.04927175
     6         11.83844056        -32.49909112         -9.08684937
     1         11.45019855        -34.49476141         -8.92968508
     6          7.16099632        -24.87670668         -7.55701582
     1          5.23019773        -24.43340592         -7.07327526
     6         14.77300868        -20.10568196         -8.84347207
     1         15.31267328        -18.15325257         -8.61325351
     6         18.74558978        -27.51620301        -12.26848883
     1         20.48573003        -27.92619889        -13.25094407
     6          6.51131664        -34.30054062         -7.74038423
     1          7.63732338        -35.34636012         -6.36875472
     1          6.71889562        -35.22044606         -9.57167762
     1          4.53778000        -34.41612578         -7.17966094
     6          3.29705134        -29.13471770         -6.87839380
     1          2.34836919        -28.01557767         -8.32389493
     1          3.08297939        -28.16352886         -5.07379086
     1          2.35854090        -30.95748708         -6.74945405
     6         15.90423192        -36.35743638        -10.63069797
     1         14.82701281        -37.20360694        -12.17345189
     1         14.99198891        -36.87044091         -8.85969193
     1         17.80166797        -37.15540022        -10.65802841
     6         20.28416011        -33.00744321        -13.08578515
     1         21.93855481        -31.84146395        -12.76223557
     6         20.49606715        -35.05788155        -14.51992618
     1         18.89377233        -36.22969390        -14.97092987
     1         22.27757202        -35.60951328        -15.33829636
     6         22.68524716        -23.29926101        -12.90336094
     1         22.64616521        -23.24059998        -14.96365414
     1         23.51259211        -25.09631676        -12.33651320
     1         23.89765422        -21.78118768        -12.23214496
     6         20.07015470        -18.44471008        -10.31817216
     1         19.47163562        -17.51703876         -8.59159400
     6         21.64761590        -17.24456462        -11.86022832
     1         22.24024646        -18.03332697        -13.63929045
     1         22.37354057        -15.39612158        -11.41195483
     6         10.85315068        -16.18332604         -7.21500662
     1         11.46832460        -15.37141835         -9.00604982
     1         12.31993980        -15.82096875         -5.81504515
     1          9.13905145        -15.21704534         -6.62245736
     6          5.64917163        -19.38967656         -6.49909385
     1          5.62556714        -17.35215104         -6.23780644
     1          5.01706756        -20.27690481         -4.74982579
     1          4.30065939        -19.87092872         -7.98078123
     6         19.23530946        -27.78299580         -1.00575398
     1         20.90737111        -28.20339276         -2.11703704
     1         18.81744746        -29.40399095          0.19524094
     1         19.63641445        -26.16751562          0.20791776
     7         14.73340357        -26.58522056         -1.83638138
     1         14.23981916        -26.41495847         -0.00643224
     6         17.08182458        -27.23052327         -2.71889382
     6         13.22197705        -26.20917771         -3.86143995
     1         11.27231192        -25.68375977         -3.74864729
     7         14.46892644        -26.57741329         -5.96817336
     6         16.87063507        -27.21372791         -5.29102084
     1         18.27821702        -27.61617400         -6.68633779
     6          9.98220438        -20.79091929        -14.64970770
     1          9.49530436        -20.49638365        -12.67825895
     1          8.31244204        -21.46314684        -15.64105332
     1         10.55761424        -18.98997053        -15.45956165
     6         12.11376597        -22.69077826        -14.87991072
     1         13.79456669        -22.03727335        -13.89256256
     1         12.56255032        -23.05085984        -16.85571350
    16         11.17330447        -25.74021068        -13.49306965
     6         12.80058057        -27.82291414        -15.69000350
     1         14.81018539        -27.41354787        -15.68296740
     1         11.99792268        -27.57831698        -17.56426493
     1         12.48333250        -29.73819745        -15.03231235

 Electric dipole moment (dipole orientation):
 (Debye = 10**-18 statcoulomb cm , SI units = C m)
                  (au)            (Debye)         (10**-30 SI)
   Tot        0.154821D+01      0.393515D+01      0.131262D+02
   x          0.000000D+00      0.000000D+00      0.000000D+00
   y          0.000000D+00      0.000000D+00      0.000000D+00
   z          0.154821D+01      0.393515D+01      0.131262D+02

 Dipole polarizability, Alpha (dipole orientation).
 (esu units = cm**3 , SI units = C**2 m**2 J**-1)
 Alpha(0;0):
               (au)            (10**-24 esu)      (10**-40 SI)
   iso        0.610900D+03      0.905261D+02      0.100724D+03
   aniso      0.345275D+03      0.511644D+02      0.569281D+02
   xx         0.677773D+03      0.100436D+03      0.111750D+03
   yx         0.837491D+01      0.124103D+01      0.138084D+01
   yy         0.728326D+03      0.107927D+03      0.120085D+03
   zx        -0.112027D+03     -0.166006D+02     -0.184707D+02
   zy         0.316947D+02      0.469667D+01      0.522575D+01
   zz         0.426601D+03      0.632157D+02      0.703370D+02

 First dipole hyperpolarizability, Beta (dipole orientation).
 ||, _|_  parallel and perpendicular components, (z) with respect to z axis,
 vector components x,y,z.  Values do not include the 1/n! factor of 1/2.
 (esu units = statvolt**-1 cm**4 , SI units = C**3 m**3 J**-2)
 Beta(0;0,0):
               (au)            (10**-30 esu)      (10**-50 SI)
   || (z)    -0.270764D+03     -0.233919D+01     -0.868167D+00
   _|_(z)    -0.902547D+02     -0.779730D+00     -0.289389D+00
   x          0.543321D+04      0.469387D+02      0.174208D+02
   y         -0.578778D+03     -0.500019D+01     -0.185577D+01
   z         -0.135382D+04     -0.116959D+02     -0.434084D+01
   ||         0.112583D+04      0.972633D+01      0.360983D+01
   xxx        0.551728D+03      0.476650D+01      0.176904D+01
   xxy        0.225019D+03      0.194399D+01      0.721493D+00
   yxy        0.104105D+04      0.899388D+01      0.333799D+01
   yyy       -0.271248D+03     -0.234337D+01     -0.869720D+00
   xxz       -0.175386D+03     -0.151520D+01     -0.562350D+00
   yxz        0.722997D+02      0.624613D+00      0.231819D+00
   yyz       -0.449761D+03     -0.388558D+01     -0.144210D+01
   zxz        0.218289D+03      0.188585D+01      0.699915D+00
   zyz       -0.146697D+03     -0.126735D+01     -0.470364D+00
   zzz        0.173873D+03      0.150213D+01      0.557501D+00

 ----------------------------------------------------------------------
 Unable to Open any file for archive entry.
 1\1\GINC-BGN1019\SP\RAPFD\def2TZVP\C37H42Fe1N6S1\BECSLEIP\31-Oct-2024\
 0\\# polar def2tzvp apfd int=(grid=ultrafine)\\6gd6_II_S\\0,1\Fe,0,6.8
 997780713,-14.2792443298,3.7109629666\N,0,5.3571548713,-14.8634421025,
 4.8202899937\N,0,5.9685892276,-12.6078863031,3.2564999945\N,0,8.496894
 9062,-13.7285734065,2.6309465087\N,0,7.8700334537,-15.9758749269,4.193
 6488452\C,0,5.2695619155,-15.9653126155,5.605996836\C,0,3.9358249069,-
 16.1000332481,6.1505978205\C,0,3.220637912,-15.0482579617,5.6714778948
 \C,0,4.133144257,-14.2745784356,4.856911443\C,0,4.6661749986,-12.30638
 78322,3.4950666841\C,0,4.3363782368,-11.0064009608,2.9556136499\C,0,5.
 4722938255,-10.5353409296,2.3734235192\C,0,6.4793455053,-11.5561590743
 ,2.5640570822\C,0,8.6888237158,-12.5036041245,2.0785040216\C,0,9.98472
 91339,-12.433999368,1.4312700336\C,0,10.5405930918,-13.679483228,1.563
 2618661\C,0,9.5954990022,-14.4656095371,2.315118131\C,0,9.0636188927,-
 16.4069444449,3.7106027886\C,0,9.4683284839,-17.6316032779,4.370406686
 7\C,0,8.4768732948,-17.9223901856,5.2692224221\C,0,7.4926309412,-16.88
 01992096,5.1363105261\C,0,6.2848297928,-16.8770807844,5.8134717946\H,0
 ,6.0948546439,-17.6874435784,6.5002157352\C,0,3.7940273297,-13.0912833
 27,4.2274446646\H,0,2.779646597,-12.7399292903,4.3373614782\C,0,7.7649
 708921,-11.4741855018,2.0641469859\H,0,8.0427585739,-10.5647070016,1.5
 546936387\C,0,9.8451718489,-15.7449687431,2.7820292015\H,0,10.74890534
 09,-16.2335974771,2.4506392952\C,0,3.5049810516,-17.2088171581,7.04860
 2644\H,0,4.1333113098,-17.2466126364,7.9385087051\H,0,3.5850720838,-18
 .1680787008,6.537183171\H,0,2.4729283392,-17.0747086128,7.3637778429\C
 ,0,1.790132793,-14.6964070915,5.8992377966\H,0,1.2536928105,-14.650709
 666,4.9516040701\H,0,1.7057774653,-13.7231609105,6.383564664\H,0,1.307
 572087,-15.4374419507,6.5314554755\C,0,8.428745693,-19.0396373208,6.25
 18843455\H,0,7.8345631997,-19.8707637271,5.8670257425\H,0,7.9836968846
 ,-18.7126523426,7.1899907469\H,0,9.4364764859,-19.4039307062,6.4480009
 871\C,0,10.6767969784,-18.373745722,4.0827087379\H,0,11.5506864558,-17
 .7818003688,3.8329537473\C,0,10.7738030627,-19.6990389327,4.0887973288
 \H,0,9.9250398017,-20.3328759905,4.2844013047\H,0,11.7034484363,-20.19
 87437112,3.870730264\C,0,11.8901994872,-14.1446221593,1.1402156764\H,0
 ,11.8294132405,-14.7503910998,0.2350042802\H,0,12.3496965819,-14.75125
[...]
                                                    1560(r),1562(r),1563(r)
                                                    180(r),184(r),186(r),183(r)
   159. CR (   1) C  74                  1.99896   -10.05727  1300(v),1646(v),1650(g)
                                                    1358(v),1410(v),1303(v)
                                                    171(r),172(r),1563(r)
   174. LP (   1) N  68                  1.57963    -0.28245  1654(v),1651(v),1329(v)
                                                    1301(v),1295(v),1327(v)
                                                    181(r)
   175. LP (   1) N  73                  1.60629    -0.35246  172(r),171(r),1649(v)
                                                    1650(v),1652(v),1326(v)
                                                    1656(v),1653(g),1360(g)
                                                    1383(v),1655(g),1561(r)
                                                    182(r),1563(r),1560(r)
                                                    1562(r),1359(g),1567(r)
                                                    1571(r),191(r),1566(r)
                                                    1568(r),233(r),1564(r)
                                                    285(r),207(r),1569(r)
                                                    1572(r),259(r),204(r),196(r)
                                                    1574(r),257(r),282(r),193(r)
                                                    231(r),189(r),178(r),258(r)
                                                    1573(r),232(r),284(r),185(r)
  1228. RY*(   1) C  64                  0.00116     1.16325   
  1229. RY*(   2) C  64                  0.00079     2.00662   
  1230. RY*(   3) C  64                  0.00051     1.33548   
  1231. RY*(   4) C  64                  0.00012     1.27132   
  1232. RY*(   5) C  64                  0.00009     2.14763   
  1233. RY*(   6) C  64                  0.00007     1.38816   
  1234. RY*(   7) C  64                  0.00001     1.70150   
  1235. RY*(   8) C  64                  0.00001     1.89907   
  1236. RY*(   9) C  64                  0.00001     1.46109   
  1237. RY*(  10) C  64                  0.00000     3.09036   
  1238. RY*(  11) C  64                  0.00000     2.49064   
  1239. RY*(  12) C  64                  0.00001     1.60591   
  1240. RY*(  13) C  64                  0.00000     2.39600   
  1241. RY*(  14) C  64                  0.00000     3.05431   
  1242. RY*(  15) C  64                  0.00000     2.48975   
  1243. RY*(  16) C  64                  0.00000     2.63673   
  1244. RY*(  17) C  64                  0.00001     2.35105   
  1245. RY*(  18) C  64                  0.00000    21.60031   
  1246. RY*(  19) C  64                  0.00000     2.71421   
  1247. RY*(  20) C  64                  0.00000     3.66595   
  1248. RY*(  21) C  64                  0.00000     3.39426   
  1249. RY*(  22) C  64                  0.00001     3.39552   
  1250. RY*(  23) C  64                  0.00000     3.36644   
  1251. RY*(  24) C  64                  0.00000     3.73848   
  1252. RY*(  25) C  64                  0.00000     3.41736   
  1253. RY*(  26) C  64                  0.00000     3.28187   
  1254. RY*(   1) H  65                  0.00024     1.39009   
  1255. RY*(   2) H  65                  0.00012     1.73682   
  1256. RY*(   3) H  65                  0.00008     2.05860   
  1257. RY*(   4) H  65                  0.00002     1.60665   
  1258. RY*(   5) H  65                  0.00001     2.86086   
  1259. RY*(   1) H  66                  0.00074     1.01169   
  1260. RY*(   2) H  66                  0.00014     1.68618   
  1261. RY*(   3) H  66                  0.00008     1.96210   
  1262. RY*(   4) H  66                  0.00006     2.01430   
  1263. RY*(   5) H  66                  0.00000     2.88319   
  1264. RY*(   1) H  67                  0.00073     1.00442   
  1265. RY*(   2) H  67                  0.00015     1.68664   
  1266. RY*(   3) H  67                  0.00008     1.97215   
  1267. RY*(   4) H  67                  0.00006     2.01078   
  1268. RY*(   5) H  67                  0.00000     2.88214   
  1269. RY*(   1) N  68                  0.00279     0.67794   
  1270. RY*(   2) N  68                  0.00220     1.78186   
  1271. RY*(   3) N  68                  0.00098     2.07852   
  1272. RY*(   4) N  68                  0.00079     2.14684   
  1273. RY*(   5) N  68                  0.00051     1.22668   
  1274. RY*(   6) N  68                  0.00026     2.26221   
  1275. RY*(   7) N  68                  0.00020     1.79794   
  1276. RY*(   8) N  68                  0.00006     2.21742   
  1277. RY*(   9) N  68                  0.00007     2.44196   
  1278. RY*(  10) N  68                  0.00006     3.67783   
  1279. RY*(  11) N  68                  0.00004     3.05457   
  1280. RY*(  12) N  68                  0.00000    30.75379   
  1281. RY*(  13) N  68                  0.00001     3.60770   
  1282. RY*(  14) N  68                  0.00000     2.32779   
  1283. RY*(  15) N  68                  0.00001     4.00941   
  1284. RY*(  16) N  68                  0.00001     2.24020   
  1285. RY*(  17) N  68                  0.00000     4.06322   
  1286. RY*(  18) N  68                  0.00001     3.46898   
  1287. RY*(  19) N  68                  0.00000     4.58407   
  1288. RY*(  20) N  68                  0.00000     4.68475   
  1289. RY*(  21) N  68                  0.00000     4.53728   
  1290. RY*(  22) N  68                  0.00000     4.63262   
  1291. RY*(  23) N  68                  0.00000     4.31130   
  1292. RY*(  24) N  68                  0.00000     4.53671   
  1293. RY*(  25) N  68                  0.00000     4.44682   
  1294. RY*(  26) N  68                  0.00000     4.42858   
  1295. RY*(   1) H  69                  0.00058     2.15284   
  1296. RY*(   2) H  69                  0.00040     2.13976   
  1297. RY*(   3) H  69                  0.00031     1.00784   
  1298. RY*(   4) H  69                  0.00021     2.55837   
  1299. RY*(   5) H  69                  0.00001     3.08981   
  1300. RY*(   1) C  70                  0.00399     1.69612   
  1301. RY*(   2) C  70                  0.00260     1.00044   
  1302. RY*(   3) C  70                  0.00190     1.51518   
  1303. RY*(   4) C  70                  0.00163     2.06662   
  1304. RY*(   5) C  70                  0.00124     1.76353   
  1305. RY*(   6) C  70                  0.00113     1.74089   
  1306. RY*(   7) C  70                  0.00037     2.86646   
  1307. RY*(   8) C  70                  0.00019     2.75915   
  1308. RY*(   9) C  70                  0.00017     2.52753   
  1309. RY*(  10) C  70                  0.00007     3.58968   
  1310. RY*(  11) C  70                  0.00003     2.57376   
  1311. RY*(  12) C  70                  0.00001     1.55404   
  1312. RY*(  13) C  70                  0.00001     2.73377   
  1313. RY*(  14) C  70                  0.00001     1.97861   
  1314. RY*(  15) C  70                  0.00001     1.63709   
  1315. RY*(  16) C  70                  0.00001     1.08052   
  1316. RY*(  17) C  70                  0.00001     1.99244   
  1317. RY*(  18) C  70                  0.00000    21.29005   
  1318. RY*(  19) C  70                  0.00001     3.47996   
  1319. RY*(  20) C  70                  0.00000     4.05773   
  1320. RY*(  21) C  70                  0.00000     3.62927   
  1321. RY*(  22) C  70                  0.00000     3.63929   
  1322. RY*(  23) C  70                  0.00000     3.36158   
  1323. RY*(  24) C  70                  0.00000     3.83364   
  1324. RY*(  25) C  70                  0.00000     3.53585   
  1325. RY*(  26) C  70                  0.00000     3.51603   
  1326. RY*(   1) C  71                  0.00407     1.57839   
  1327. RY*(   2) C  71                  0.00345     0.64296   
  1328. RY*(   3) C  71                  0.00204     1.31838   
  1329. RY*(   4) C  71                  0.00127     2.55538   
  1330. RY*(   5) C  71                  0.00111     1.26513   
  1331. RY*(   6) C  71                  0.00043     1.73931   
  1332. RY*(   7) C  71                  0.00026     1.71059   
  1333. RY*(   8) C  71                  0.00014     2.40178   
  1334. RY*(   9) C  71                  0.00008     3.06010   
  1335. RY*(  10) C  71                  0.00006     2.33815   
  1336. RY*(  11) C  71                  0.00003     3.15329   
  1337. RY*(  12) C  71                  0.00002     2.56583   
  1338. RY*(  13) C  71                  0.00003     1.95552   
  1339. RY*(  14) C  71                  0.00002     2.47118   
  1340. RY*(  15) C  71                  0.00002     2.89249   
  1341. RY*(  16) C  71                  0.00000     3.17414   
  1342. RY*(  17) C  71                  0.00000     3.55433   
  1343. RY*(  18) C  71                  0.00000     2.81602   
  1344. RY*(  19) C  71                  0.00000    21.48020   
  1345. RY*(  20) C  71                  0.00001     3.97339   
  1346. RY*(  21) C  71                  0.00000     3.76543   
  1347. RY*(  22) C  71                  0.00001     3.90860   
  1348. RY*(  23) C  71                  0.00000     3.66221   
  1349. RY*(  24) C  71                  0.00000     3.78356   
  1350. RY*(  25) C  71                  0.00000     3.51174   
  1351. RY*(  26) C  71                  0.00000     3.37262   
  1352. RY*(   1) H  72                  0.00066     0.61001   
  1353. RY*(   2) H  72                  0.00034     2.45532   
  1354. RY*(   3) H  72                  0.00021     2.11185   
  1355. RY*(   4) H  72                  0.00012     2.44162   
  1356. RY*(   5) H  72                  0.00001     3.16916   
  1357. RY*(   1) N  73                  0.01092     0.83023   
  1358. RY*(   2) N  73                  0.00972     1.29570   
  1359. RY*(   3) N  73                  0.00661     1.39525   
  1360. RY*(   4) N  73                  0.00114     1.69202   
  1361. RY*(   5) N  73                  0.00074     1.74496   
  1362. RY*(   6) N  73                  0.00059     2.00886   
  1363. RY*(   7) N  73                  0.00038     3.10199   
  1364. RY*(   8) N  73                  0.00037     3.38096   
  1365. RY*(   9) N  73                  0.00014     2.83864   
  1366. RY*(  10) N  73                  0.00009     2.47761   
  1367. RY*(  11) N  73                  0.00009     3.37191   
  1368. RY*(  12) N  73                  0.00008     3.62017   
  1369. RY*(  13) N  73                  0.00005     3.40622   
  1370. RY*(  14) N  73                  0.00004     3.75454   
  1371. RY*(  15) N  73                  0.00003     4.81715   
  1372. RY*(  16) N  73                  0.00000    31.70489   
  1373. RY*(  17) N  73                  0.00001     4.15174   
  1374. RY*(  18) N  73                  0.00001     4.04054   
  1375. RY*(  19) N  73                  0.00000     4.83756   
  1376. RY*(  20) N  73                  0.00000     4.46366   
  1377. RY*(  21) N  73                  0.00001     4.36039   
  1378. RY*(  22) N  73                  0.00001     4.65732   
  1379. RY*(  23) N  73                  0.00000     4.66919   
  1380. RY*(  24) N  73                  0.00000     4.78397   
  1381. RY*(  25) N  73                  0.00000     4.68159   
  1382. RY*(  26) N  73                  0.00000     4.50210   
  1383. RY*(   1) C  74                  0.00407     1.48760   
  1384. RY*(   2) C  74                  0.00273     0.71318   
  1385. RY*(   3) C  74                  0.00174     1.82696   
  1386. RY*(   4) C  74                  0.00064     2.00435   
  1387. RY*(   5) C  74                  0.00060     1.49435   
  1388. RY*(   6) C  74                  0.00050     1.87865   
  1389. RY*(   7) C  74                  0.00044     2.41142   
  1390. RY*(   8) C  74                  0.00026     1.42712   
  1391. RY*(   9) C  74                  0.00025     1.61845   
  1392. RY*(  10) C  74                  0.00016     2.01782   
  1393. RY*(  11) C  74                  0.00011     1.08336   
  1394. RY*(  12) C  74                  0.00007     1.99453   
  1395. RY*(  13) C  74                  0.00005     2.64047   
  1396. RY*(  14) C  74                  0.00005     2.83047   
  1397. RY*(  15) C  74                  0.00003     1.30842   
  1398. RY*(  16) C  74                  0.00002     3.26900   
  1399. RY*(  17) C  74                  0.00000     3.28486   
  1400. RY*(  18) C  74                  0.00001     3.59547   
  1401. RY*(  19) C  74                  0.00000    21.82003   
  1402. RY*(  20) C  74                  0.00001     4.03342   
  1403. RY*(  21) C  74                  0.00001     3.68279   
  1404. RY*(  22) C  74                  0.00001     3.81460   
  1405. RY*(  23) C  74                  0.00001     3.36961   
  1406. RY*(  24) C  74                  0.00000     3.81283   
  1407. RY*(  25) C  74                  0.00000     3.68291   
  1408. RY*(  26) C  74                  0.00000     3.48741   
  1409. RY*(   1) H  75                  0.00055     0.66447   
  1410. RY*(   2) H  75                  0.00035     2.37208   
  1411. RY*(   3) H  75                  0.00024     2.32101   
  1412. RY*(   4) H  75                  0.00007     2.73853   
  1413. RY*(   5) H  75                  0.00001     3.17963   
  1643. BD*(   1) C  64 - H  65          0.00346     0.37377   
  1644. BD*(   1) C  64 - H  66          0.01211     0.35984   
  1645. BD*(   1) C  64 - H  67          0.01172     0.35979   
  1646. BD*(   1) C  64 - C  70          0.01381     0.38988   
  1647. BD*(   1) N  68 - H  69          0.01444     0.36752   
  1648. BD*(   1) N  68 - C  70          0.02714     0.43061   
  1649. BD*(   1) N  68 - C  71          0.02248     0.44952   
  1650. BD*(   1) C  70 - C  74          0.02116     0.56741   
  1651. BD*(   2) C  70 - C  74          0.30050     0.03655  1654(v),1644(v),1645(v)
                                                    1389(g),1304(g)
  1652. BD*(   1) C  71 - H  72          0.01787     0.39398   
  1653. BD*(   1) C  71 - N  73          0.01699     0.53716   
  1654. BD*(   2) C  71 - N  73          0.41678    -0.00312  1651(v),1327(g),1357(g)
                                                    1384(v),1573(r),171(r)
                                                    1562(r),1570(r),1560(r)
                                                    172(r)
  1655. BD*(   1) N  73 - C  74          0.01701     0.48339   
  1656. BD*(   1) C  74 - H  75          0.01436     0.43368   
       -------------------------------
              Total Lewis   42.67715  ( 97.7182%)
        Valence non-Lewis    0.90985  (  2.0833%)
        Rydberg non-Lewis    0.08669  (  0.1985%)
       -------------------------------
            Total unit  2   43.67369  (100.0000%)
           Charge unit  2    0.32631
 Unable to Open any file for archive entry.
 1\1\GINC-BGN1019\SP\RAPFD\def2TZVP\C37H42Fe1N6S1\BECSLEIP\31-Oct-2024\
 0\\# apfd/def2TZVP int=(grid=ultrafine) geom=check guess=read pop=nbo 
 scf=qc\\6gd6_II_S_nbo\\0,1\Fe,0,6.8997780713,-14.2792443298,3.71096296
 66\N,0,5.3571548713,-14.8634421025,4.8202899937\N,0,5.9685892276,-12.6
 078863031,3.2564999945\N,0,8.4968949062,-13.7285734065,2.6309465087\N,
 0,7.8700334537,-15.9758749269,4.1936488452\C,0,5.2695619155,-15.965312
 6155,5.605996836\C,0,3.9358249069,-16.1000332481,6.1505978205\C,0,3.22
 0637912,-15.0482579617,5.6714778948\C,0,4.133144257,-14.2745784356,4.8
 56911443\C,0,4.6661749986,-12.3063878322,3.4950666841\C,0,4.3363782368
 ,-11.0064009608,2.9556136499\C,0,5.4722938255,-10.5353409296,2.3734235
 192\C,0,6.4793455053,-11.5561590743,2.5640570822\C,0,8.6888237158,-12.
 5036041245,2.0785040216\C,0,9.9847291339,-12.433999368,1.4312700336\C,
 0,10.5405930918,-13.679483228,1.5632618661\C,0,9.5954990022,-14.465609
 5371,2.315118131\C,0,9.0636188927,-16.4069444449,3.7106027886\C,0,9.46
 83284839,-17.6316032779,4.3704066867\C,0,8.4768732948,-17.9223901856,5
 .2692224221\C,0,7.4926309412,-16.8801992096,5.1363105261\C,0,6.2848297
 928,-16.8770807844,5.8134717946\H,0,6.0948546439,-17.6874435784,6.5002
 157352\C,0,3.7940273297,-13.091283327,4.2274446646\H,0,2.779646597,-12
 .7399292903,4.3373614782\C,0,7.7649708921,-11.4741855018,2.0641469859\
 H,0,8.0427585739,-10.5647070016,1.5546936387\C,0,9.8451718489,-15.7449
 687431,2.7820292015\H,0,10.7489053409,-16.2335974771,2.4506392952\C,0,
 3.5049810516,-17.2088171581,7.048602644\H,0,4.1333113098,-17.246612636
 4,7.9385087051\H,0,3.5850720838,-18.1680787008,6.537183171\H,0,2.47292
 83392,-17.0747086128,7.3637778429\C,0,1.790132793,-14.6964070915,5.899
 2377966\H,0,1.2536928105,-14.650709666,4.9516040701\H,0,1.7057774653,-
 13.7231609105,6.383564664\H,0,1.307572087,-15.4374419507,6.5314554755\
 C,0,8.428745693,-19.0396373208,6.2518843455\H,0,7.8345631997,-19.87076
 37271,5.8670257425\H,0,7.9836968846,-18.7126523426,7.1899907469\H,0,9.
 4364764859,-19.4039307062,6.4480009871\C,0,10.6767969784,-18.373745722
 ,4.0827087379\H,0,11.5506864558,-17.7818003688,3.8329537473\C,0,10.773
 8030627,-19.6990389327,4.0887973288\H,0,9.9250398017,-20.3328759905,4.
 2844013047\H,0,11.7034484363,-20.1987437112,3.870730264\C,0,11.8901994
 872,-14.1446221593,1.1402156764\H,0,11.8294132405,-14.7503910998,0.235
 0042802\H,0,12.3496965819,-14.7512554726,1.9192165381\H,0,12.534911405
 6,-13.2915330169,0.9409462328\C,0,10.527358119,-11.2421589198,0.817370
 2857\H,0,10.2384735393,-10.3092265335,1.2888218899\C,0,11.3243537187,-
 11.2066600557,-0.2454492431\H,0,11.6082562349,-12.095714388,-0.7819724
 27\H,0,11.7054820984,-10.2763708571,-0.6326513324\C,0,5.6994617006,-9.
 2589858226,1.639774139\H,0,5.9851960866,-9.4613372962,0.6071744675\H,0
 ,6.4998686408,-8.6827252173,2.1038212529\H,0,4.7985483104,-8.650016850
 5,1.6321543339\C,0,2.9812144496,-10.3907546919,3.0312492129\H,0,2.9612
 269331,-9.4315776023,2.519981217\H,0,2.6861852769,-10.2335922319,4.069
 2501667\H,0,2.2425061562,-11.0440762179,2.5661273812\C,0,10.3231180103
 ,-12.4119471917,7.7085916461\H,0,11.1884302401,-12.94411903,7.32617753
 92\H,0,10.1353162183,-12.7406457291,8.7309923399\H,0,10.548690284,-11.
 3456219825,7.7289305813\N,0,7.9191524586,-12.1220353404,7.0704433172\H
 ,0,7.6924154796,-11.4848129527,7.8165085004\C,0,9.1479161281,-12.68529
 46301,6.8424933217\C,0,7.0785314309,-12.5710250291,6.1115787461\H,0,6.
 0465101295,-12.2977962023,6.0368179641\N,0,7.6995177114,-13.3831030197
 ,5.2923438494\C,0,8.9865018597,-13.4649002969,5.7328302425\H,0,9.70636
 82942,-14.0747332436,5.2276002724\C,0,5.1238176651,-13.5194338903,-0.1
 359307561\H,0,4.9025806086,-12.7852839728,0.6329121396\H,0,4.225874301
 4,-14.1029112717,-0.3249961771\H,0,5.4013689684,-12.9942219445,-1.0479
 306049\C,0,6.2582225347,-14.4226798361,0.3058721988\H,0,7.162041041,-1
 3.8485720984,0.4987386838\H,0,6.4596240662,-15.1862050425,-0.444027149
 4\S,0,5.8064590133,-15.307426425,1.8561599243\C,0,6.6373757825,-16.889
 0900431,1.5160565705\H,0,7.697648168,-16.722713561,1.3548703633\H,0,6.
 1752636037,-17.3529416935,0.6487859109\H,0,6.4941054209,-17.5118403845
 ,2.3925264224\\Version=ES64L-G16RevC.02\State=1-A\HF=-3424.8518774\RMS
 D=8.196e-10\Dipole=0.056459,0.8964898,1.2609776\Quadrupole=-5.1557431,
 -0.3975344,5.5532775,-0.2748563,0.7891958,8.2165495\PG=C01 [X(C37H42Fe
 1N6S1)]\\@
 The archive entry for this job was punched.


 ERWIN WITH HIS PSI CAN DO
 CALCULATIONS QUITE A FEW.
 BUT ONE THING HAS NOT BEEN SEEN
 JUST WHAT DOES PSI REALLY MEAN.
 -- WALTER HUCKEL, TRANS. BY FELIX BLOCH
 Job cpu time:       0 days  1 hours  0 minutes 33.2 seconds.
 Elapsed time:       0 days  0 hours  1 minutes 10.7 seconds.
 File lengths (MBytes):  RWF=    938 Int=      0 D2E=      0 Chk=    161 Scr=      1
 Normal termination of Gaussian 16 at Thu Oct 31 16:05:33 2024.
