 Entering Gaussian System, Link 0=g16
 Input=6hqk05.com
 Output=6hqk05.log
 Initial command:
 /sw/chem/gaussian/g16_C02/a100/g16/l1.exe "/local/becsleip_8076539/Gau-1245610.inp" -scrdir="/local/becsleip_8076539/"
 Entering Link 1 = /sw/chem/gaussian/g16_C02/a100/g16/l1.exe PID=   1245611.
  
 Copyright (c) 1988-2021, Gaussian, Inc.  All Rights Reserved.
  
 This is part of the Gaussian(R) 16 program.  It is based on
 the Gaussian(R) 09 system (copyright 2009, Gaussian, Inc.),
 the Gaussian(R) 03 system (copyright 2003, Gaussian, Inc.),
 the Gaussian(R) 98 system (copyright 1998, Gaussian, Inc.),
 the Gaussian(R) 94 system (copyright 1995, Gaussian, Inc.),
 the Gaussian 92(TM) system (copyright 1992, Gaussian, Inc.),
 the Gaussian 90(TM) system (copyright 1990, Gaussian, Inc.),
 the Gaussian 88(TM) system (copyright 1988, Gaussian, Inc.),
 the Gaussian 86(TM) system (copyright 1986, Carnegie Mellon
 University), and the Gaussian 82(TM) system (copyright 1983,
 Carnegie Mellon University). Gaussian is a federally registered
 trademark of Gaussian, Inc.
  
 This software contains proprietary and confidential information,
 including trade secrets, belonging to Gaussian, Inc.
  
 This software is provided under written license and may be
 used, copied, transmitted, or stored only in accord with that
 written license.
  
 The following legend is applicable only to US Government
 contracts under FAR:
  
                    RESTRICTED RIGHTS LEGEND
  
 Use, reproduction and disclosure by the US Government is
 subject to restrictions as set forth in subparagraphs (a)
 and (c) of the Commercial Computer Software - Restricted
 Rights clause in FAR 52.227-19.
  
 Gaussian, Inc.
 340 Quinnipiac St., Bldg. 40, Wallingford CT 06492
  
  
 ---------------------------------------------------------------
 Warning -- This program may not be used in any manner that
 competes with the business of Gaussian, Inc. or will provide
 assistance to any competitor of Gaussian, Inc.  The licensee
 of this program is prohibited from giving any competitor of
 Gaussian, Inc. access to this program.  By using this program,
 the user acknowledges that Gaussian, Inc. is engaged in the
 business of creating and licensing software in the field of
 computational chemistry and represents and warrants to the
 licensee that it is not a competitor of Gaussian, Inc. and that
 it will not use this program in any manner prohibited above.
 ---------------------------------------------------------------
  

 Cite this work as:
 Gaussian 16, Revision C.02,
 M. J. Frisch, G. W. Trucks, H. B. Schlegel, G. E. Scuseria, 
 M. A. Robb, J. R. Cheeseman, G. Scalmani, V. Barone, 
 G. A. Petersson, H. Nakatsuji, X. Li, M. Caricato, A. V. Marenich, 
 J. Bloino, B. G. Janesko, R. Gomperts, B. Mennucci, H. P. Hratchian, 
 J. V. Ortiz, A. F. Izmaylov, J. L. Sonnenberg, D. Williams-Young, 
 F. Ding, F. Lipparini, F. Egidi, J. Goings, B. Peng, A. Petrone, 
 T. Henderson, D. Ranasinghe, V. G. Zakrzewski, J. Gao, N. Rega, 
 G. Zheng, W. Liang, M. Hada, M. Ehara, K. Toyota, R. Fukuda, 
 J. Hasegawa, M. Ishida, T. Nakajima, Y. Honda, O. Kitao, H. Nakai, 
 T. Vreven, K. Throssell, J. A. Montgomery, Jr., J. E. Peralta, 
 F. Ogliaro, M. J. Bearpark, J. J. Heyd, E. N. Brothers, K. N. Kudin, 
 V. N. Staroverov, T. A. Keith, R. Kobayashi, J. Normand, 
 K. Raghavachari, A. P. Rendell, J. C. Burant, S. S. Iyengar, 
 J. Tomasi, M. Cossi, J. M. Millam, M. Klene, C. Adamo, R. Cammi, 
 J. W. Ochterski, R. L. Martin, K. Morokuma, O. Farkas, 
 J. B. Foresman, and D. J. Fox, Gaussian, Inc., Wallingford CT, 2019.
 
 ******************************************
 Gaussian 16:  ES64L-G16RevC.02  7-Dec-2021
                11-Nov-2024 
 ******************************************
 %mem=16GB
 %CPU=0-71
 SetSPE:  set environment variable "OMP_PROC_BIND" = "true"
 SetSPE:  set environment variable "OMP_PLACES" = "{0},{1},{2},{3},{4},{5},{6},{7},{8},{9},{10},{11},{12},{13},{14},{15},{16},{17},{18},{19},{20},{21},{22},{23},{24},{25},{26},{27},{28},{29},{30},{31},{32},{33},{34},{35},{36},{37},{38},{39},{40},{41},{42},{43},{44},{45},{46},{47},{48},{49},{50},{51},{52},{53},{54},{55},{56},{57},{58},{59},{60},{61},{62},{63},{64},{65},{66},{67},{68},{69},{70},{71}"
 Will use up to   72 processors via shared memory.
 %gpucpu=0,1,2,3=0,1,2,3
 Will use    4 GPUs:
 Thread  CPU   GPU
      0    0     0
      1    1     1
      2    2     2
      3    3     3
      4    4    -1
      5    5    -1
      6    6    -1
      7    7    -1
      8    8    -1
      9    9    -1
     10   10    -1
     11   11    -1
     12   12    -1
     13   13    -1
     14   14    -1
     15   15    -1
     16   16    -1
     17   17    -1
     18   18    -1
     19   19    -1
     20   20    -1
     21   21    -1
     22   22    -1
     23   23    -1
     24   24    -1
     25   25    -1
     26   26    -1
     27   27    -1
     28   28    -1
     29   29    -1
     30   30    -1
     31   31    -1
     32   32    -1
     33   33    -1
     34   34    -1
     35   35    -1
     36   36    -1
     37   37    -1
     38   38    -1
     39   39    -1
     40   40    -1
     41   41    -1
     42   42    -1
     43   43    -1
     44   44    -1
     45   45    -1
     46   46    -1
     47   47    -1
     48   48    -1
     49   49    -1
     50   50    -1
     51   51    -1
     52   52    -1
     53   53    -1
     54   54    -1
     55   55    -1
     56   56    -1
     57   57    -1
     58   58    -1
     59   59    -1
     60   60    -1
     61   61    -1
     62   62    -1
     63   63    -1
     64   64    -1
     65   65    -1
     66   66    -1
     67   67    -1
     68   68    -1
     69   69    -1
     70   70    -1
     71   71    -1
 SetGPE:  set environment variable "OMP_PROC_BIND" = "true"
 SetGPE:  set environment variable "OMP_PLACES" = "{0},{1},{2},{3},{4},{5},{6},{7},{8},{9},{10},{11},{12},{13},{14},{15},{16},{17},{18},{19},{20},{21},{22},{23},{24},{25},{26},{27},{28},{29},{30},{31},{32},{33},{34},{35},{36},{37},{38},{39},{40},{41},{42},{43},{44},{45},{46},{47},{48},{49},{50},{51},{52},{53},{54},{55},{56},{57},{58},{59},{60},{61},{62},{63},{64},{65},{66},{67},{68},{69},{70},{71}"
 %oldchk=6hqk_II_Sre.chk
 %chk=6hqk_II_Qn.chk
 Properties for Device   0
 Minimum vector length:                              32
 Maximum vector length:                            1024
 Number of SMPs:                                    108
 Maximum number of threads per SMP:                2048
 Number of ASync Engines:                             5
 Memory:                                           9207742464
 Properties for Device   1
 Minimum vector length:                              32
 Maximum vector length:                            1024
 Number of SMPs:                                    108
 Maximum number of threads per SMP:                2048
 Number of ASync Engines:                             5
 Memory:                                           9207742464
 Properties for Device   2
 Minimum vector length:                              32
 Maximum vector length:                            1024
 Number of SMPs:                                    108
 Maximum number of threads per SMP:                2048
 Number of ASync Engines:                             5
 Memory:                                           9207742464
 Properties for Device   3
 Minimum vector length:                              32
 Maximum vector length:                            1024
 Number of SMPs:                                    108
 Maximum number of threads per SMP:                2048
 Number of ASync Engines:                             5
 Memory:                                           9207742464
   8286968217 words of memory will be used on each GPU.
 Copying data from "6hqk_II_Sre.chk" to current chk file "6hqk_II_Qn.chk"
 IOpt=  2 FromEx=T IUOpen= 4 IOptOp= 5 NList=   0 IFRang= 0 IUIn= 4 IUOut= 2.
 --------------------------------------------------------------
 # apfd/def2TZVP guess=read scf=maxcycle=999 geom=check pop=nbo
 --------------------------------------------------------------
 1/29=2,38=1,172=1/1;
 2/12=2,40=1/2;
 3/5=44,7=101,11=2,14=-4,25=1,30=1,74=-44,116=-2/1,2,3;
 4/5=1/1;
 5/5=2,7=999,38=6/2;
 6/7=2,8=2,9=2,10=2,28=1,40=1/1,7;
 99/5=1,9=1/99;
 ---------
 6hqk_II_Q
 ---------
 Structure from the checkpoint file:  "6hqk_II_Qn.chk"
 Charge =  0 Multiplicity = 5
 Z-Matrix found in chk file.
 Fe,0,41.8499036903,82.7436987183,43.0666408536
 N,0,42.6080531431,83.6502483432,41.4490705029
 N,0,43.7015805529,82.7201397396,43.8753734703
 N,0,41.3042170625,81.3850682701,44.4252831703
 N,0,40.2362793055,82.2606670684,41.9586732911
 C,0,42.0065783397,83.8738604325,40.2449420818
 C,0,42.855314941,84.6588298116,39.3790130048
 C,0,43.9716396783,84.9483136876,40.0995586815
 C,0,43.8056781229,84.3033224886,41.3823200026
 C,0,44.7264706622,83.5523072604,43.5273471984
 C,0,45.7913159142,83.4994540184,44.4933086156
 C,0,45.3697304801,82.649714232,45.4812269882
 C,0,44.0686511845,82.1689022622,45.0651373131
 C,0,42.0236764675,80.8884640529,45.4721742448
 C,0,41.2306037541,79.9979657799,46.2788053215
 C,0,39.9949279815,79.9519734801,45.6941551317
 C,0,40.0754922988,80.8042643479,44.5233870427
 C,0,39.1273207129,81.615792245,42.416294637
 C,0,38.0754187385,81.6287489689,41.4261634373
 C,0,38.5696780341,82.3053720084,40.354205254
 C,0,39.9122265765,82.7005796522,40.7102632784
 C,0,40.7504423335,83.423575149,39.8844825604
 H,0,40.3891074275,83.6800490928,38.9008929579
 C,0,44.7822661203,84.2877830975,42.3571407496
 H,0,45.668859001,84.8763349292,42.179450582
 C,0,43.3177106543,81.2604815924,45.7841627718
 H,0,43.7493904381,80.8541063067,46.6853876113
 C,0,39.0375810578,80.9560490985,43.6257404113
 H,0,38.1008931296,80.4741342918,43.8583452266
 C,0,45.1748342768,85.7308630653,39.7015556162
 H,0,45.3815377381,86.515394101,40.4293076181
 H,0,45.0284093653,86.1949902377,38.7295025028
 H,0,46.0501027269,85.0831580292,39.6435491638
 C,0,42.5029549743,85.0451673339,37.9843887231
 H,0,41.595744107,85.6501774331,37.969015592
 H,0,42.3281385994,84.1578718758,37.3761775798
 H,0,43.3057069461,85.6191586077,37.5287688139
 C,0,47.0919458669,84.2128688415,44.3758699283
 H,0,46.9920524786,85.2576376743,44.6746223184
 H,0,47.4524962989,84.1884664111,43.3485925318
 H,0,47.8341086375,83.7411874144,45.0162156211
 C,0,46.0573227684,82.2353425508,46.6847353863
 H,0,45.8855062922,81.2116451823,46.9956344734
 C,0,46.853995538,83.0068827676,47.416256869
 H,0,47.0229663334,84.0430585647,47.1801178472
 H,0,47.3471551757,82.6312671122,48.2971681537
 C,0,41.7321995428,79.2400051723,47.456606039
 H,0,41.7415107966,79.8700039155,48.3473274232
 H,0,42.7471537777,78.8864185843,47.2818169389
 H,0,41.0913610637,78.3819290633,47.6485250163
 C,0,38.8289358332,79.1910761352,46.0883870704
 H,0,38.2149778464,78.8153676009,45.2785219706
 C,0,38.4712197724,78.9373122553,47.3424605939
 H,0,39.0173777415,79.3283998492,48.1830403175
 H,0,37.5950466212,78.3538533731,47.5710620417
 C,0,36.7402922357,80.9953920967,41.611081336
 H,0,36.2584436753,81.3718266668,42.5132901972
 H,0,36.8413197164,79.914025445,41.707295388
 H,0,36.0929340958,81.2034855718,40.7628810155
 C,0,37.9231887394,82.6100754423,39.0474030858
 H,0,36.9062902986,82.2269592025,39.0215285759
 H,0,38.4817239036,82.1545588202,38.2295502758
 H,0,37.8899925494,83.6863802463,38.8765100096
 C,0,39.9602620511,85.4716187377,42.8991951175
 H,0,40.407902463,85.4482782217,41.9109343939
 H,0,39.777538899,86.4895976876,43.2287844041
 H,0,39.0343930156,84.9057589419,42.8965801591
 S,0,41.0714343442,84.6401906448,44.0953912738
 H,0,42.0925150908,85.4891486967,43.9024022251
 Recover connectivity data from disk.
 Stoichiometry    C31H32FeN4S(5)
 Framework group  C1[X(C31H32FeN4S)]
 Deg. of freedom   201
 Full point group                 C1      NOp   1
 Largest Abelian subgroup         C1      NOp   1
 Largest concise Abelian subgroup C1      NOp   1
                         Standard orientation:                         
 ---------------------------------------------------------------------
 Center     Atomic      Atomic             Coordinates (Angstroms)
 Number     Number       Type             X           Y           Z
 ---------------------------------------------------------------------
      1         26           0        0.127599   -0.075504    0.035716
      2          7           0        1.083319   -1.809456   -0.269513
      3          7           0       -1.624214   -1.024547   -0.301593
      4          7           0       -0.830663    1.658000   -0.221687
      5          7           0        1.883663    0.869224   -0.261647
      6          6           0        2.422426   -2.021625   -0.422739
      7          6           0        2.717206   -3.432879   -0.511226
      8          6           0        1.530637   -4.080304   -0.362694
      9          6           0        0.522481   -3.053914   -0.224205
     10          6           0       -1.831435   -2.368362   -0.178117
     11          6           0       -3.235836   -2.680426   -0.171558
     12          6           0       -3.894396   -1.481427   -0.238463
     13          6           0       -2.865812   -0.466205   -0.330428
     14          6           0       -2.164393    1.876786   -0.404758
     15          6           0       -2.464321    3.284145   -0.449348
     16          6           0       -1.270637    3.933771   -0.294655
     17          6           0       -0.263323    2.896279   -0.182776
     18          6           0        2.087740    2.211422   -0.152432
     19          6           0        3.496449    2.526978   -0.207082
     20          6           0        4.147500    1.340296   -0.345373
     21          6           0        3.126262    0.319478   -0.365508
     22          6           0        3.385668   -1.032025   -0.481230
     23          1           0        4.413495   -1.339019   -0.595757
     24          6           0       -0.829277   -3.321430   -0.150532
     25          1           0       -1.126797   -4.356840   -0.092027
     26          6           0       -3.125909    0.884787   -0.445780
     27          1           0       -4.157237    1.193178   -0.516154
     28          6           0        1.088237    3.161661   -0.088299
     29          1           0        1.391146    4.194563   -0.016952
     30          6           0        1.246399   -5.542370   -0.368977
     31          1           0        0.686548   -5.829260    0.521022
     32          1           0        2.170489   -6.114452   -0.391819
     33          1           0        0.654305   -5.812914   -1.243741
     34          6           0        4.081823   -3.993749   -0.715277
     35          1           0        4.743197   -3.707268    0.103147
     36          1           0        4.511964   -3.620171   -1.644360
     37          1           0        4.049060   -5.079029   -0.765875
     38          6           0       -3.809179   -4.053256   -0.139831
     39          1           0       -3.805831   -4.453933    0.875167
     40          1           0       -3.230275   -4.726386   -0.770432
     41          1           0       -4.835571   -4.036152   -0.499773
     42          6           0       -5.317110   -1.221144   -0.270980
     43          1           0       -5.628060   -0.384108   -0.884834
     44          6           0       -6.238154   -1.914360    0.389485
     45          1           0       -5.981650   -2.724993    1.049070
     46          1           0       -7.285577   -1.675394    0.311390
     47          6           0       -3.812589    3.860861   -0.700125
     48          1           0       -4.406336    3.869969    0.215163
     49          1           0       -4.348457    3.274662   -1.445057
     50          1           0       -3.719857    4.883271   -1.060514
     51          6           0       -1.002268    5.355684   -0.286655
     52          1           0       -0.063800    5.661043   -0.733887
     53          6           0       -1.806469    6.281416    0.224556
     54          1           0       -2.725366    6.027955    0.723753
     55          1           0       -1.554059    7.328052    0.189834
     56          6           0        4.051500    3.906806   -0.130323
     57          1           0        3.702544    4.411426    0.770483
     58          1           0        3.733485    4.494171   -0.992116
     59          1           0        5.138290    3.885917   -0.113903
     60          6           0        5.607446    1.070179   -0.464194
     61          1           0        6.176846    1.994083   -0.403244
     62          1           0        5.831061    0.592337   -1.418135
     63          1           0        5.941871    0.406458    0.333536
     64          6           0        1.857831   -0.374593    2.856563
     65          1           0        2.353944   -1.093186    2.212294
     66          1           0        1.882627   -0.688644    3.895338
     67          1           0        2.323398    0.599458    2.747435
     68         16           0        0.114956   -0.177281    2.327114
     69          1           0       -0.207968   -1.462623    2.537345
 ---------------------------------------------------------------------
 Rotational constants (GHZ):           0.1103613           0.1091583           0.0597240
 Standard basis: def2TZVP (5D, 7F)
 There are  1546 symmetry adapted cartesian basis functions of A   symmetry.
 There are  1359 symmetry adapted basis functions of A   symmetry.
  1359 basis functions,  2212 primitive gaussians,  1546 cartesian basis functions
   146 alpha electrons      142 beta electrons
       nuclear repulsion energy      5027.9853294138 Hartrees.
 NAtoms=   69 NActive=   69 NUniq=   69 SFac= 1.00D+00 NAtFMM=   60 NAOKFM=T Big=T
 Integral buffers will be    131072 words long.
 Raffenetti 2 integral format.
 Two-electron integral symmetry is turned on.
 R6APFD:  NTU= -4 IXU= 1 FactS= 1.050
 Nuclear repulsion after empirical dispersion term =     5027.8556328168 Hartrees.
 One-electron integrals computed using PRISM.
   1 Symmetry operations used in ECPInt.
 ECPInt:  NShTT=  146611 NPrTT=  457451 LenC2=  115581 LenP2D=  240726.
 LDataN:  DoStor=T MaxTD1= 6 Len=  172
 Number of processors reduced to  26 by ecpmxn.
 NBasis=  1359 RedAO= T EigKep=  3.32D-06  NBF=  1359
 NBsUse=  1359 1.00D-06 EigRej= -1.00D+00 NBFU=  1359
 Initial guess from the checkpoint file:  "6hqk_II_Qn.chk"
 B after Tr=     0.000000    0.000000    0.000000
         Rot=    1.000000    0.000000    0.000000    0.000000 Ang=   0.00 deg.
 Initial guess <Sx>= 0.0000 <Sy>= 0.0000 <Sz>= 2.0000 <S**2>= 6.0533 S= 2.0106
 Requested convergence on RMS density matrix=1.00D-08 within 999 cycles.
 Requested convergence on MAX density matrix=1.00D-06.
 Requested convergence on             energy=1.00D-06.
 No special actions if energy rises.
 Restarting incremental Fock formation.
 SCF Done:  E(UAPFD) =  -3080.77707766     A.U. after   35 cycles
            NFock= 35  Conv=0.82D-09     -V/T= 2.0028
 <Sx>= 0.0000 <Sy>= 0.0000 <Sz>= 2.0000 <S**2>= 6.0574 S= 2.0115
 <L.S>=  0.00000000000    
 Annihilation of the first spin contaminant:
 S**2 before annihilation     6.0574,   after     6.0003

 **********************************************************************

            Population analysis using the SCF Density.

 **********************************************************************

 Orbital symmetries:
 Alpha Orbitals:
       Occupied  (A) (A) (A) (A) (A) (A) (A) (A) (A) (A) (A) (A)
                 (A) (A) (A) (A) (A) (A) (A) (A) (A) (A) (A) (A)
                 (A) (A) (A) (A) (A) (A) (A) (A) (A) (A) (A) (A)
                 (A) (A) (A) (A) (A) (A) (A) (A) (A) (A) (A) (A)
                 (A) (A) (A) (A) (A) (A) (A) (A) (A) (A) (A) (A)
                 (A) (A) (A) (A) (A) (A) (A) (A) (A) (A) (A) (A)
                 (A) (A) (A) (A) (A) (A) (A) (A) (A) (A) (A) (A)
                 (A) (A) (A) (A) (A) (A) (A) (A) (A) (A) (A) (A)
                 (A) (A) (A) (A) (A) (A) (A) (A) (A) (A) (A) (A)
                 (A) (A) (A) (A) (A) (A) (A) (A) (A) (A) (A) (A)
                 (A) (A) (A) (A) (A) (A) (A) (A) (A) (A) (A) (A)
                 (A) (A) (A) (A) (A) (A) (A) (A) (A) (A) (A) (A)
                 (A) (A)
       Virtual   (A) (A) (A) (A) (A) (A) (A) (A) (A) (A) (A) (A)
                 (A) (A) (A) (A) (A) (A) (A) (A) (A) (A) (A) (A)
                 (A) (A) (A) (A) (A) (A) (A) (A) (A) (A) (A) (A)
                 (A) (A) (A) (A) (A) (A) (A) (A) (A) (A) (A) (A)
                 (A) (A) (A) (A) (A) (A) (A) (A) (A) (A) (A) (A)
                 (A) (A) (A) (A) (A) (A) (A) (A) (A) (A) (A) (A)
                 (A) (A) (A) (A) (A) (A) (A) (A) (A) (A) (A) (A)
                 (A) (A) (A) (A) (A) (A) (A) (A) (A) (A) (A) (A)
                 (A) (A) (A) (A) (A) (A) (A) (A) (A) (A) (A) (A)
                 (A) (A) (A) (A) (A) (A) (A) (A) (A) (A) (A) (A)
                 (A) (A) (A) (A) (A) (A) (A) (A) (A) (A) (A) (A)
                 (A) (A) (A) (A) (A) (A) (A) (A) (A) (A) (A) (A)
                 (A) (A) (A) (A) (A) (A) (A) (A) (A) (A) (A) (A)
                 (A) (A) (A) (A) (A) (A) (A) (A) (A) (A) (A) (A)
                 (A) (A) (A) (A) (A) (A) (A) (A) (A) (A) (A) (A)
                 (A) (A) (A) (A) (A) (A) (A) (A) (A) (A) (A) (A)
                 (A) (A) (A) (A) (A) (A) (A) (A) (A) (A) (A) (A)
                 (A) (A) (A) (A) (A) (A) (A) (A) (A) (A) (A) (A)
                 (A) (A) (A) (A) (A) (A) (A) (A) (A) (A) (A) (A)
                 (A) (A) (A) (A) (A) (A) (A) (A) (A) (A) (A) (A)
                 (A) (A) (A) (A) (A) (A) (A) (A) (A) (A) (A) (A)
                 (A) (A) (A) (A) (A) (A) (A) (A) (A) (A) (A) (A)
                 (A) (A) (A) (A) (A) (A) (A) (A) (A) (A) (A) (A)
                 (A) (A) (A) (A) (A) (A) (A) (A) (A) (A) (A) (A)
                 (A) (A) (A) (A) (A) (A) (A) (A) (A) (A) (A) (A)
                 (A) (A) (A) (A) (A) (A) (A) (A) (A) (A) (A) (A)
                 (A) (A) (A) (A) (A) (A) (A) (A) (A) (A) (A) (A)
                 (A) (A) (A) (A) (A) (A) (A) (A) (A) (A) (A) (A)
                 (A) (A) (A) (A) (A) (A) (A) (A) (A) (A) (A) (A)
                 (A) (A) (A) (A) (A) (A) (A) (A) (A) (A) (A) (A)
                 (A) (A) (A) (A) (A) (A) (A) (A) (A) (A) (A) (A)
                 (A) (A) (A) (A) (A) (A) (A) (A) (A) (A) (A) (A)
                 (A) (A) (A) (A) (A) (A) (A) (A) (A) (A) (A) (A)
                 (A) (A) (A) (A) (A) (A) (A) (A) (A) (A) (A) (A)
                 (A) (A) (A) (A) (A) (A) (A) (A) (A) (A) (A) (A)
                 (A) (A) (A) (A) (A) (A) (A) (A) (A) (A) (A) (A)
                 (A) (A) (A) (A) (A) (A) (A) (A) (A) (A) (A) (A)
                 (A) (A) (A) (A) (A) (A) (A) (A) (A) (A) (A) (A)
                 (A) (A) (A) (A) (A) (A) (A) (A) (A) (A) (A) (A)
                 (A) (A) (A) (A) (A) (A) (A) (A) (A) (A) (A) (A)
                 (A) (A) (A) (A) (A) (A) (A) (A) (A) (A) (A) (A)
                 (A) (A) (A) (A) (A) (A) (A) (A) (A) (A) (A) (A)
                 (A) (A) (A) (A) (A) (A) (A) (A) (A) (A) (A) (A)
                 (A) (A) (A) (A) (A) (A) (A) (A) (A) (A) (A) (A)
                 (A) (A) (A) (A) (A) (A) (A) (A) (A) (A) (A) (A)
                 (A) (A) (A) (A) (A) (A) (A) (A) (A) (A) (A) (A)
                 (A) (A) (A) (A) (A) (A) (A) (A) (A) (A) (A) (A)
                 (A) (A) (A) (A) (A) (A) (A) (A) (A) (A) (A) (A)
                 (A) (A) (A) (A) (A) (A) (A) (A) (A) (A) (A) (A)
                 (A) (A) (A) (A) (A) (A) (A) (A) (A) (A) (A) (A)
                 (A) (A) (A) (A) (A) (A) (A) (A) (A) (A) (A) (A)
                 (A) (A) (A) (A) (A) (A) (A) (A) (A) (A) (A) (A)
                 (A) (A) (A) (A) (A) (A) (A) (A) (A) (A) (A) (A)
                 (A) (A) (A) (A) (A) (A) (A) (A) (A) (A) (A) (A)
                 (A) (A) (A) (A) (A) (A) (A) (A) (A) (A) (A) (A)
                 (A) (A) (A) (A) (A) (A) (A) (A) (A) (A) (A) (A)
                 (A) (A) (A) (A) (A) (A) (A) (A) (A) (A) (A) (A)
                 (A) (A) (A) (A) (A) (A) (A) (A) (A) (A) (A) (A)
                 (A) (A) (A) (A) (A) (A) (A) (A) (A) (A) (A) (A)
                 (A) (A) (A) (A) (A) (A) (A) (A) (A) (A) (A) (A)
                 (A) (A) (A) (A) (A) (A) (A) (A) (A) (A) (A) (A)
                 (A) (A) (A) (A) (A) (A) (A) (A) (A) (A) (A) (A)
                 (A) (A) (A) (A) (A) (A) (A) (A) (A) (A) (A) (A)
                 (A) (A) (A) (A) (A) (A) (A) (A) (A) (A) (A) (A)
                 (A) (A) (A) (A) (A) (A) (A) (A) (A) (A) (A) (A)
                 (A) (A) (A) (A) (A) (A) (A) (A) (A) (A) (A) (A)
                 (A) (A) (A) (A) (A) (A) (A) (A) (A) (A) (A) (A)
                 (A) (A) (A) (A) (A) (A) (A) (A) (A) (A) (A) (A)
                 (A) (A) (A) (A) (A) (A) (A) (A) (A) (A) (A) (A)
                 (A) (A) (A) (A) (A) (A) (A) (A) (A) (A) (A) (A)
                 (A) (A) (A) (A) (A) (A) (A) (A) (A) (A) (A) (A)
                 (A) (A) (A) (A) (A) (A) (A) (A) (A) (A) (A) (A)
                 (A) (A) (A) (A) (A) (A) (A) (A) (A) (A) (A) (A)
                 (A) (A) (A) (A) (A) (A) (A) (A) (A) (A) (A) (A)
                 (A) (A) (A) (A) (A) (A) (A) (A) (A) (A) (A) (A)
                 (A) (A) (A) (A) (A) (A) (A) (A) (A) (A) (A) (A)
                 (A) (A) (A) (A) (A) (A) (A) (A) (A) (A) (A) (A)
                 (A) (A) (A) (A) (A) (A) (A) (A) (A) (A) (A) (A)
                 (A) (A) (A) (A) (A) (A) (A) (A) (A) (A) (A) (A)
                 (A) (A) (A) (A) (A) (A) (A) (A) (A) (A) (A) (A)
                 (A) (A) (A) (A) (A) (A) (A) (A) (A) (A) (A) (A)
                 (A) (A) (A) (A) (A) (A) (A) (A) (A) (A) (A) (A)
                 (A) (A) (A) (A) (A) (A) (A) (A) (A) (A) (A) (A)
                 (A) (A) (A) (A) (A) (A) (A) (A) (A) (A) (A) (A)
                 (A) (A) (A) (A) (A) (A) (A) (A) (A) (A) (A) (A)
                 (A) (A) (A) (A) (A) (A) (A) (A) (A) (A) (A) (A)
                 (A) (A) (A) (A) (A) (A) (A) (A) (A) (A) (A) (A)
                 (A) (A) (A) (A) (A) (A) (A) (A) (A) (A) (A) (A)
                 (A) (A) (A) (A) (A) (A) (A) (A) (A) (A) (A) (A)
                 (A) (A) (A) (A) (A) (A) (A) (A) (A) (A) (A) (A)
                 (A) (A) (A) (A) (A) (A) (A) (A) (A) (A) (A) (A)
                 (A) (A) (A) (A) (A) (A) (A) (A) (A) (A) (A) (A)
                 (A) (A) (A) (A) (A) (A) (A) (A) (A) (A) (A) (A)
                 (A) (A) (A) (A) (A) (A) (A) (A) (A) (A) (A) (A)
                 (A) (A) (A) (A) (A) (A) (A) (A) (A) (A) (A) (A)
                 (A) (A) (A) (A) (A) (A) (A) (A) (A) (A) (A) (A)
                 (A) (A) (A) (A) (A) (A) (A) (A) (A) (A) (A) (A)
                 (A) (A) (A) (A) (A) (A) (A) (A) (A) (A) (A) (A)
                 (A) (A) (A) (A) (A) (A) (A) (A) (A) (A) (A) (A)
                 (A) (A) (A) (A) (A) (A) (A) (A) (A) (A) (A) (A)
                 (A) (A) (A) (A) (A) (A) (A) (A) (A) (A) (A) (A)
                 (A)
 Beta  Orbitals:
       Occupied  (A) (A) (A) (A) (A) (A) (A) (A) (A) (A) (A) (A)
                 (A) (A) (A) (A) (A) (A) (A) (A) (A) (A) (A) (A)
                 (A) (A) (A) (A) (A) (A) (A) (A) (A) (A) (A) (A)
                 (A) (A) (A) (A) (A) (A) (A) (A) (A) (A) (A) (A)
                 (A) (A) (A) (A) (A) (A) (A) (A) (A) (A) (A) (A)
                 (A) (A) (A) (A) (A) (A) (A) (A) (A) (A) (A) (A)
                 (A) (A) (A) (A) (A) (A) (A) (A) (A) (A) (A) (A)
                 (A) (A) (A) (A) (A) (A) (A) (A) (A) (A) (A) (A)
                 (A) (A) (A) (A) (A) (A) (A) (A) (A) (A) (A) (A)
                 (A) (A) (A) (A) (A) (A) (A) (A) (A) (A) (A) (A)
                 (A) (A) (A) (A) (A) (A) (A) (A) (A) (A) (A) (A)
                 (A) (A) (A) (A) (A) (A) (A) (A) (A) (A)
       Virtual   (A) (A) (A) (A) (A) (A) (A) (A) (A) (A) (A) (A)
                 (A) (A) (A) (A) (A) (A) (A) (A) (A) (A) (A) (A)
                 (A) (A) (A) (A) (A) (A) (A) (A) (A) (A) (A) (A)
                 (A) (A) (A) (A) (A) (A) (A) (A) (A) (A) (A) (A)
                 (A) (A) (A) (A) (A) (A) (A) (A) (A) (A) (A) (A)
                 (A) (A) (A) (A) (A) (A) (A) (A) (A) (A) (A) (A)
                 (A) (A) (A) (A) (A) (A) (A) (A) (A) (A) (A) (A)
                 (A) (A) (A) (A) (A) (A) (A) (A) (A) (A) (A) (A)
                 (A) (A) (A) (A) (A) (A) (A) (A) (A) (A) (A) (A)
                 (A) (A) (A) (A) (A) (A) (A) (A) (A) (A) (A) (A)
                 (A) (A) (A) (A) (A) (A) (A) (A) (A) (A) (A) (A)
                 (A) (A) (A) (A) (A) (A) (A) (A) (A) (A) (A) (A)
                 (A) (A) (A) (A) (A) (A) (A) (A) (A) (A) (A) (A)
                 (A) (A) (A) (A) (A) (A) (A) (A) (A) (A) (A) (A)
                 (A) (A) (A) (A) (A) (A) (A) (A) (A) (A) (A) (A)
                 (A) (A) (A) (A) (A) (A) (A) (A) (A) (A) (A) (A)
                 (A) (A) (A) (A) (A) (A) (A) (A) (A) (A) (A) (A)
                 (A) (A) (A) (A) (A) (A) (A) (A) (A) (A) (A) (A)
                 (A) (A) (A) (A) (A) (A) (A) (A) (A) (A) (A) (A)
                 (A) (A) (A) (A) (A) (A) (A) (A) (A) (A) (A) (A)
                 (A) (A) (A) (A) (A) (A) (A) (A) (A) (A) (A) (A)
                 (A) (A) (A) (A) (A) (A) (A) (A) (A) (A) (A) (A)
                 (A) (A) (A) (A) (A) (A) (A) (A) (A) (A) (A) (A)
                 (A) (A) (A) (A) (A) (A) (A) (A) (A) (A) (A) (A)
                 (A) (A) (A) (A) (A) (A) (A) (A) (A) (A) (A) (A)
                 (A) (A) (A) (A) (A) (A) (A) (A) (A) (A) (A) (A)
                 (A) (A) (A) (A) (A) (A) (A) (A) (A) (A) (A) (A)
                 (A) (A) (A) (A) (A) (A) (A) (A) (A) (A) (A) (A)
                 (A) (A) (A) (A) (A) (A) (A) (A) (A) (A) (A) (A)
                 (A) (A) (A) (A) (A) (A) (A) (A) (A) (A) (A) (A)
                 (A) (A) (A) (A) (A) (A) (A) (A) (A) (A) (A) (A)
                 (A) (A) (A) (A) (A) (A) (A) (A) (A) (A) (A) (A)
                 (A) (A) (A) (A) (A) (A) (A) (A) (A) (A) (A) (A)
                 (A) (A) (A) (A) (A) (A) (A) (A) (A) (A) (A) (A)
                 (A) (A) (A) (A) (A) (A) (A) (A) (A) (A) (A) (A)
                 (A) (A) (A) (A) (A) (A) (A) (A) (A) (A) (A) (A)
                 (A) (A) (A) (A) (A) (A) (A) (A) (A) (A) (A) (A)
                 (A) (A) (A) (A) (A) (A) (A) (A) (A) (A) (A) (A)
                 (A) (A) (A) (A) (A) (A) (A) (A) (A) (A) (A) (A)
                 (A) (A) (A) (A) (A) (A) (A) (A) (A) (A) (A) (A)
                 (A) (A) (A) (A) (A) (A) (A) (A) (A) (A) (A) (A)
                 (A) (A) (A) (A) (A) (A) (A) (A) (A) (A) (A) (A)
                 (A) (A) (A) (A) (A) (A) (A) (A) (A) (A) (A) (A)
                 (A) (A) (A) (A) (A) (A) (A) (A) (A) (A) (A) (A)
                 (A) (A) (A) (A) (A) (A) (A) (A) (A) (A) (A) (A)
                 (A) (A) (A) (A) (A) (A) (A) (A) (A) (A) (A) (A)
                 (A) (A) (A) (A) (A) (A) (A) (A) (A) (A) (A) (A)
                 (A) (A) (A) (A) (A) (A) (A) (A) (A) (A) (A) (A)
                 (A) (A) (A) (A) (A) (A) (A) (A) (A) (A) (A) (A)
                 (A) (A) (A) (A) (A) (A) (A) (A) (A) (A) (A) (A)
                 (A) (A) (A) (A) (A) (A) (A) (A) (A) (A) (A) (A)
                 (A) (A) (A) (A) (A) (A) (A) (A) (A) (A) (A) (A)
                 (A) (A) (A) (A) (A) (A) (A) (A) (A) (A) (A) (A)
                 (A) (A) (A) (A) (A) (A) (A) (A) (A) (A) (A) (A)
                 (A) (A) (A) (A) (A) (A) (A) (A) (A) (A) (A) (A)
                 (A) (A) (A) (A) (A) (A) (A) (A) (A) (A) (A) (A)
                 (A) (A) (A) (A) (A) (A) (A) (A) (A) (A) (A) (A)
                 (A) (A) (A) (A) (A) (A) (A) (A) (A) (A) (A) (A)
                 (A) (A) (A) (A) (A) (A) (A) (A) (A) (A) (A) (A)
                 (A) (A) (A) (A) (A) (A) (A) (A) (A) (A) (A) (A)
                 (A) (A) (A) (A) (A) (A) (A) (A) (A) (A) (A) (A)
                 (A) (A) (A) (A) (A) (A) (A) (A) (A) (A) (A) (A)
                 (A) (A) (A) (A) (A) (A) (A) (A) (A) (A) (A) (A)
                 (A) (A) (A) (A) (A) (A) (A) (A) (A) (A) (A) (A)
                 (A) (A) (A) (A) (A) (A) (A) (A) (A) (A) (A) (A)
                 (A) (A) (A) (A) (A) (A) (A) (A) (A) (A) (A) (A)
                 (A) (A) (A) (A) (A) (A) (A) (A) (A) (A) (A) (A)
                 (A) (A) (A) (A) (A) (A) (A) (A) (A) (A) (A) (A)
                 (A) (A) (A) (A) (A) (A) (A) (A) (A) (A) (A) (A)
                 (A) (A) (A) (A) (A) (A) (A) (A) (A) (A) (A) (A)
                 (A) (A) (A) (A) (A) (A) (A) (A) (A) (A) (A) (A)
                 (A) (A) (A) (A) (A) (A) (A) (A) (A) (A) (A) (A)
                 (A) (A) (A) (A) (A) (A) (A) (A) (A) (A) (A) (A)
                 (A) (A) (A) (A) (A) (A) (A) (A) (A) (A) (A) (A)
                 (A) (A) (A) (A) (A) (A) (A) (A) (A) (A) (A) (A)
                 (A) (A) (A) (A) (A) (A) (A) (A) (A) (A) (A) (A)
                 (A) (A) (A) (A) (A) (A) (A) (A) (A) (A) (A) (A)
                 (A) (A) (A) (A) (A) (A) (A) (A) (A) (A) (A) (A)
                 (A) (A) (A) (A) (A) (A) (A) (A) (A) (A) (A) (A)
                 (A) (A) (A) (A) (A) (A) (A) (A) (A) (A) (A) (A)
                 (A) (A) (A) (A) (A) (A) (A) (A) (A) (A) (A) (A)
                 (A) (A) (A) (A) (A) (A) (A) (A) (A) (A) (A) (A)
                 (A) (A) (A) (A) (A) (A) (A) (A) (A) (A) (A) (A)
                 (A) (A) (A) (A) (A) (A) (A) (A) (A) (A) (A) (A)
                 (A) (A) (A) (A) (A) (A) (A) (A) (A) (A) (A) (A)
                 (A) (A) (A) (A) (A) (A) (A) (A) (A) (A) (A) (A)
                 (A) (A) (A) (A) (A) (A) (A) (A) (A) (A) (A) (A)
                 (A) (A) (A) (A) (A) (A) (A) (A) (A) (A) (A) (A)
                 (A) (A) (A) (A) (A) (A) (A) (A) (A) (A) (A) (A)
                 (A) (A) (A) (A) (A) (A) (A) (A) (A) (A) (A) (A)
                 (A) (A) (A) (A) (A) (A) (A) (A) (A) (A) (A) (A)
                 (A) (A) (A) (A) (A) (A) (A) (A) (A) (A) (A) (A)
                 (A) (A) (A) (A) (A) (A) (A) (A) (A) (A) (A) (A)
                 (A) (A) (A) (A) (A) (A) (A) (A) (A) (A) (A) (A)
                 (A) (A) (A) (A) (A) (A) (A) (A) (A) (A) (A) (A)
                 (A) (A) (A) (A) (A) (A) (A) (A) (A) (A) (A) (A)
                 (A) (A) (A) (A) (A) (A) (A) (A) (A) (A) (A) (A)
                 (A) (A) (A) (A) (A) (A) (A) (A) (A) (A) (A) (A)
                 (A) (A) (A) (A) (A) (A) (A) (A) (A) (A) (A) (A)
                 (A) (A) (A) (A) (A) (A) (A) (A) (A) (A) (A) (A)
                 (A) (A) (A) (A) (A) (A) (A) (A) (A) (A) (A) (A)
                 (A) (A) (A) (A) (A)
 The electronic state is 5-A.
 Alpha  occ. eigenvalues -- -256.20500 -88.96348 -30.09513 -25.94189 -25.92162
 Alpha  occ. eigenvalues --  -25.91748 -14.33834 -14.33783 -14.33766 -14.33622
 Alpha  occ. eigenvalues --  -10.22661 -10.22309 -10.22097 -10.22010 -10.21975
 Alpha  occ. eigenvalues --  -10.21869 -10.21863 -10.21857 -10.21771 -10.20184
 Alpha  occ. eigenvalues --  -10.20148 -10.19937 -10.19772 -10.19743 -10.19690
 Alpha  occ. eigenvalues --  -10.19551 -10.19474 -10.19457 -10.19449 -10.19442
 Alpha  occ. eigenvalues --  -10.19389 -10.19382 -10.19345 -10.19277 -10.19248
 Alpha  occ. eigenvalues --  -10.19246 -10.19204 -10.18958 -10.18904 -10.18789
 Alpha  occ. eigenvalues --  -10.18768  -7.99257  -5.93812  -5.93540  -5.93059
 Alpha  occ. eigenvalues --   -3.54876  -2.34839  -2.30371  -2.29707  -0.97980
 Alpha  occ. eigenvalues --   -0.97043  -0.96913  -0.95970  -0.83267  -0.82740
 Alpha  occ. eigenvalues --   -0.82410  -0.81807  -0.81391  -0.80933  -0.80547
 Alpha  occ. eigenvalues --   -0.80507  -0.77537  -0.76450  -0.75172  -0.74934
 Alpha  occ. eigenvalues --   -0.74004  -0.71810  -0.70919  -0.69259  -0.68853
 Alpha  occ. eigenvalues --   -0.68686  -0.67144  -0.65079  -0.64974  -0.61408
 Alpha  occ. eigenvalues --   -0.60772  -0.58846  -0.57602  -0.55453  -0.54613
 Alpha  occ. eigenvalues --   -0.54167  -0.53719  -0.52035  -0.51943  -0.51450
 Alpha  occ. eigenvalues --   -0.49919  -0.48782  -0.48528  -0.47344  -0.46377
 Alpha  occ. eigenvalues --   -0.45974  -0.45604  -0.45429  -0.44762  -0.44629
 Alpha  occ. eigenvalues --   -0.44459  -0.44290  -0.44086  -0.43881  -0.43608
 Alpha  occ. eigenvalues --   -0.43112  -0.42603  -0.42243  -0.42072  -0.41644
 Alpha  occ. eigenvalues --   -0.41559  -0.40980  -0.40820  -0.40693  -0.40427
 Alpha  occ. eigenvalues --   -0.40248  -0.39928  -0.39861  -0.39485  -0.39296
 Alpha  occ. eigenvalues --   -0.39094  -0.38732  -0.38538  -0.37973  -0.37776
 Alpha  occ. eigenvalues --   -0.37492  -0.37018  -0.36749  -0.35584  -0.35377
 Alpha  occ. eigenvalues --   -0.35051  -0.34522  -0.34111  -0.33004  -0.32644
 Alpha  occ. eigenvalues --   -0.32351  -0.32188  -0.30748  -0.30184  -0.30010
 Alpha  occ. eigenvalues --   -0.28405  -0.27409  -0.27141  -0.25767  -0.23415
 Alpha  occ. eigenvalues --   -0.22963  -0.22386  -0.22189  -0.18938  -0.18711
 Alpha  occ. eigenvalues --   -0.17682
 Alpha virt. eigenvalues --   -0.07742  -0.07615  -0.02702  -0.00101   0.00532
 Alpha virt. eigenvalues --    0.01432   0.03240   0.03738   0.04478   0.04766
 Alpha virt. eigenvalues --    0.05362   0.05582   0.06413   0.06845   0.07075
 Alpha virt. eigenvalues --    0.07265   0.07747   0.08401   0.08483   0.08999
 Alpha virt. eigenvalues --    0.09112   0.09427   0.09972   0.10456   0.10814
 Alpha virt. eigenvalues --    0.11040   0.11248   0.11474   0.11717   0.11928
 Alpha virt. eigenvalues --    0.12097   0.12551   0.12642   0.12789   0.13217
 Alpha virt. eigenvalues --    0.13606   0.13682   0.13945   0.14170   0.14375
 Alpha virt. eigenvalues --    0.14551   0.14822   0.15030   0.15276   0.15439
 Alpha virt. eigenvalues --    0.15583   0.15772   0.16134   0.16383   0.16883
 Alpha virt. eigenvalues --    0.17149   0.17188   0.17393   0.17584   0.17999
 Alpha virt. eigenvalues --    0.18418   0.18494   0.18647   0.19525   0.19564
 Alpha virt. eigenvalues --    0.19779   0.19861   0.20342   0.20575   0.20884
 Alpha virt. eigenvalues --    0.21232   0.21395   0.21613   0.22002   0.22179
 Alpha virt. eigenvalues --    0.22510   0.22985   0.23516   0.23760   0.24041
 Alpha virt. eigenvalues --    0.24297   0.25064   0.25147   0.25260   0.25640
 Alpha virt. eigenvalues --    0.25756   0.26218   0.26414   0.26622   0.27041
 Alpha virt. eigenvalues --    0.27121   0.27563   0.28024   0.28241   0.28526
 Alpha virt. eigenvalues --    0.28770   0.28877   0.28991   0.29407   0.29443
 Alpha virt. eigenvalues --    0.30002   0.30284   0.30649   0.30853   0.31297
 Alpha virt. eigenvalues --    0.31413   0.31697   0.32126   0.32435   0.32905
 Alpha virt. eigenvalues --    0.33170   0.33570   0.34030   0.34094   0.34330
 Alpha virt. eigenvalues --    0.34522   0.35144   0.35326   0.35873   0.36135
 Alpha virt. eigenvalues --    0.36282   0.36560   0.36822   0.37232   0.37389
 Alpha virt. eigenvalues --    0.38049   0.38360   0.38506   0.38676   0.38874
 Alpha virt. eigenvalues --    0.39050   0.39521   0.39680   0.40026   0.40105
 Alpha virt. eigenvalues --    0.40577   0.40795   0.41145   0.41327   0.41389
 Alpha virt. eigenvalues --    0.41485   0.41779   0.41871   0.42163   0.42367
 Alpha virt. eigenvalues --    0.42620   0.43073   0.43233   0.43381   0.43538
 Alpha virt. eigenvalues --    0.44019   0.44319   0.44541   0.44748   0.45040
 Alpha virt. eigenvalues --    0.45232   0.45591   0.45839   0.46166   0.46375
 Alpha virt. eigenvalues --    0.46525   0.46770   0.46981   0.47244   0.47372
 Alpha virt. eigenvalues --    0.47618   0.47683   0.48274   0.48570   0.48629
 Alpha virt. eigenvalues --    0.48982   0.49027   0.49407   0.49739   0.49863
 Alpha virt. eigenvalues --    0.50197   0.50469   0.50699   0.50900   0.50978
 Alpha virt. eigenvalues --    0.51100   0.51279   0.51697   0.51864   0.52156
 Alpha virt. eigenvalues --    0.52483   0.52647   0.53041   0.53206   0.53542
 Alpha virt. eigenvalues --    0.54079   0.54232   0.54597   0.54646   0.54922
 Alpha virt. eigenvalues --    0.55253   0.55606   0.55968   0.56497   0.56915
 Alpha virt. eigenvalues --    0.56977   0.57062   0.57708   0.58022   0.58429
 Alpha virt. eigenvalues --    0.58891   0.59132   0.59416   0.60590   0.60960
 Alpha virt. eigenvalues --    0.61235   0.61315   0.61581   0.61803   0.62136
 Alpha virt. eigenvalues --    0.62338   0.62467   0.62609   0.62996   0.63247
 Alpha virt. eigenvalues --    0.63621   0.64002   0.64250   0.64676   0.65020
 Alpha virt. eigenvalues --    0.65187   0.65444   0.65860   0.66443   0.66776
 Alpha virt. eigenvalues --    0.67303   0.67716   0.67881   0.68122   0.68616
 Alpha virt. eigenvalues --    0.68846   0.69342   0.69770   0.70095   0.70441
 Alpha virt. eigenvalues --    0.70697   0.70846   0.70986   0.71445   0.71895
 Alpha virt. eigenvalues --    0.72132   0.72305   0.73002   0.73415   0.73544
 Alpha virt. eigenvalues --    0.73764   0.73947   0.74291   0.74365   0.75208
 Alpha virt. eigenvalues --    0.75256   0.75377   0.75845   0.76494   0.76787
 Alpha virt. eigenvalues --    0.77342   0.78017   0.78339   0.78389   0.78916
 Alpha virt. eigenvalues --    0.79090   0.79466   0.79622   0.80057   0.80420
 Alpha virt. eigenvalues --    0.80980   0.81062   0.81788   0.82316   0.82601
 Alpha virt. eigenvalues --    0.82960   0.83402   0.84065   0.84376   0.84915
 Alpha virt. eigenvalues --    0.85181   0.85334   0.86013   0.86567   0.86955
 Alpha virt. eigenvalues --    0.87608   0.87930   0.88750   0.89056   0.89152
 Alpha virt. eigenvalues --    0.89368   0.89844   0.90343   0.91041   0.91169
 Alpha virt. eigenvalues --    0.91716   0.91836   0.92263   0.93058   0.93434
 Alpha virt. eigenvalues --    0.93841   0.94234   0.94305   0.95066   0.95278
 Alpha virt. eigenvalues --    0.95942   0.96093   0.96618   0.97002   0.97344
 Alpha virt. eigenvalues --    0.97652   0.97916   0.98503   0.99002   0.99159
 Alpha virt. eigenvalues --    0.99634   1.00052   1.00134   1.00715   1.01020
 Alpha virt. eigenvalues --    1.01389   1.01588   1.01704   1.02096   1.02246
 Alpha virt. eigenvalues --    1.02660   1.02894   1.03099   1.03252   1.03422
 Alpha virt. eigenvalues --    1.04521   1.04757   1.05403   1.05654   1.06368
 Alpha virt. eigenvalues --    1.06492   1.07124   1.07915   1.08400   1.08713
 Alpha virt. eigenvalues --    1.08993   1.09039   1.10002   1.10082   1.10543
 Alpha virt. eigenvalues --    1.11083   1.12146   1.12352   1.13083   1.13453
 Alpha virt. eigenvalues --    1.14073   1.14984   1.15749   1.16139   1.16864
 Alpha virt. eigenvalues --    1.17006   1.17364   1.17865   1.18049   1.18504
 Alpha virt. eigenvalues --    1.18788   1.19284   1.19402   1.19803   1.20148
 Alpha virt. eigenvalues --    1.21307   1.21660   1.22018   1.22443   1.22486
 Alpha virt. eigenvalues --    1.23474   1.23906   1.24440   1.25022   1.25413
 Alpha virt. eigenvalues --    1.25593   1.26515   1.26649   1.27058   1.27511
 Alpha virt. eigenvalues --    1.27649   1.27832   1.28255   1.28782   1.29194
 Alpha virt. eigenvalues --    1.29583   1.30152   1.30401   1.30862   1.31524
 Alpha virt. eigenvalues --    1.32178   1.33126   1.34067   1.35003   1.35810
 Alpha virt. eigenvalues --    1.36326   1.36585   1.37306   1.38027   1.38521
 Alpha virt. eigenvalues --    1.39086   1.39503   1.40773   1.41512   1.42432
 Alpha virt. eigenvalues --    1.42779   1.42871   1.43383   1.44013   1.44351
 Alpha virt. eigenvalues --    1.44638   1.45348   1.46041   1.46463   1.46798
 Alpha virt. eigenvalues --    1.47183   1.47584   1.47855   1.48306   1.48674
 Alpha virt. eigenvalues --    1.48999   1.49493   1.49512   1.50127   1.50288
 Alpha virt. eigenvalues --    1.50786   1.51012   1.51181   1.51841   1.52052
 Alpha virt. eigenvalues --    1.52312   1.52715   1.53100   1.53587   1.53856
 Alpha virt. eigenvalues --    1.53901   1.54287   1.54434   1.54600   1.54828
 Alpha virt. eigenvalues --    1.55209   1.55713   1.55853   1.56107   1.56413
 Alpha virt. eigenvalues --    1.56665   1.56879   1.57535   1.57695   1.57903
 Alpha virt. eigenvalues --    1.58312   1.58798   1.58987   1.59278   1.60037
 Alpha virt. eigenvalues --    1.60113   1.60739   1.60849   1.61033   1.61294
 Alpha virt. eigenvalues --    1.61610   1.62368   1.62541   1.62741   1.63338
 Alpha virt. eigenvalues --    1.63544   1.63823   1.64063   1.64337   1.64592
 Alpha virt. eigenvalues --    1.64808   1.65415   1.65713   1.65932   1.66144
 Alpha virt. eigenvalues --    1.66689   1.67040   1.67473   1.67633   1.67999
 Alpha virt. eigenvalues --    1.68638   1.68962   1.69449   1.69842   1.69932
 Alpha virt. eigenvalues --    1.70051   1.70850   1.70916   1.71307   1.71869
 Alpha virt. eigenvalues --    1.72017   1.72439   1.72852   1.72916   1.74067
 Alpha virt. eigenvalues --    1.74356   1.74955   1.75570   1.76089   1.76855
 Alpha virt. eigenvalues --    1.77144   1.77879   1.78284   1.79018   1.79739
 Alpha virt. eigenvalues --    1.80423   1.80958   1.81347   1.81572   1.81965
 Alpha virt. eigenvalues --    1.82580   1.83285   1.83744   1.84293   1.84585
 Alpha virt. eigenvalues --    1.84804   1.85180   1.85964   1.86259   1.86900
 Alpha virt. eigenvalues --    1.87124   1.87636   1.88024   1.89036   1.89327
 Alpha virt. eigenvalues --    1.89572   1.89863   1.90048   1.90420   1.91252
 Alpha virt. eigenvalues --    1.93115   1.93509   1.94131   1.94857   1.95205
 Alpha virt. eigenvalues --    1.95513   1.95937   1.96233   1.96770   1.97387
 Alpha virt. eigenvalues --    1.97959   1.98454   1.98673   1.99051   1.99896
 Alpha virt. eigenvalues --    2.00202   2.00445   2.00900   2.01244   2.01781
 Alpha virt. eigenvalues --    2.02205   2.03295   2.03465   2.04213   2.05301
 Alpha virt. eigenvalues --    2.05433   2.06136   2.06691   2.07142   2.07261
 Alpha virt. eigenvalues --    2.08034   2.08350   2.08989   2.09213   2.09719
 Alpha virt. eigenvalues --    2.10023   2.10949   2.11098   2.11860   2.12348
 Alpha virt. eigenvalues --    2.12969   2.13328   2.13910   2.14234   2.14364
 Alpha virt. eigenvalues --    2.14646   2.15690   2.16131   2.17523   2.17616
 Alpha virt. eigenvalues --    2.18167   2.18514   2.19143   2.19285   2.20090
 Alpha virt. eigenvalues --    2.20279   2.21362   2.22039   2.22483   2.23427
 Alpha virt. eigenvalues --    2.24260   2.24414   2.24688   2.25323   2.26017
 Alpha virt. eigenvalues --    2.26144   2.26416   2.27128   2.27396   2.27773
 Alpha virt. eigenvalues --    2.28510   2.28703   2.29359   2.29806   2.29996
 Alpha virt. eigenvalues --    2.30392   2.30957   2.31066   2.32534   2.32662
 Alpha virt. eigenvalues --    2.33565   2.33870   2.34421   2.34682   2.35156
 Alpha virt. eigenvalues --    2.35643   2.36102   2.36393   2.36550   2.36773
 Alpha virt. eigenvalues --    2.37362   2.37760   2.38083   2.39023   2.39210
 Alpha virt. eigenvalues --    2.39772   2.40245   2.40702   2.41057   2.41498
 Alpha virt. eigenvalues --    2.42118   2.42804   2.43246   2.43470   2.44025
 Alpha virt. eigenvalues --    2.44581   2.44936   2.45341   2.45468   2.46002
 Alpha virt. eigenvalues --    2.46652   2.47227   2.47327   2.47687   2.48841
 Alpha virt. eigenvalues --    2.49030   2.49907   2.50551   2.51611   2.52122
 Alpha virt. eigenvalues --    2.52303   2.52497   2.52591   2.53449   2.53640
 Alpha virt. eigenvalues --    2.54381   2.54881   2.55099   2.55902   2.56028
 Alpha virt. eigenvalues --    2.56239   2.56546   2.56974   2.57185   2.57715
 Alpha virt. eigenvalues --    2.58064   2.58819   2.59228   2.59325   2.59761
 Alpha virt. eigenvalues --    2.60370   2.60586   2.61131   2.61493   2.61565
 Alpha virt. eigenvalues --    2.62143   2.62871   2.63735   2.64059   2.64452
 Alpha virt. eigenvalues --    2.65083   2.65345   2.65707   2.66411   2.66633
 Alpha virt. eigenvalues --    2.67004   2.67253   2.67853   2.67941   2.68398
 Alpha virt. eigenvalues --    2.69268   2.69401   2.69931   2.70278   2.70552
 Alpha virt. eigenvalues --    2.71596   2.72195   2.72859   2.73282   2.73399
 Alpha virt. eigenvalues --    2.73732   2.74385   2.74742   2.75201   2.75886
 Alpha virt. eigenvalues --    2.76284   2.77159   2.77646   2.77749   2.78094
 Alpha virt. eigenvalues --    2.78682   2.79495   2.79933   2.80318   2.81042
 Alpha virt. eigenvalues --    2.81397   2.81955   2.82548   2.82784   2.83159
 Alpha virt. eigenvalues --    2.83435   2.84241   2.84438   2.84985   2.85008
 Alpha virt. eigenvalues --    2.85943   2.86093   2.86790   2.87138   2.87397
 Alpha virt. eigenvalues --    2.87872   2.88493   2.88756   2.89142   2.89572
 Alpha virt. eigenvalues --    2.89782   2.90342   2.91027   2.91358   2.92517
 Alpha virt. eigenvalues --    2.92725   2.92992   2.93742   2.94138   2.94231
 Alpha virt. eigenvalues --    2.94759   2.95249   2.96033   2.96233   2.96868
 Alpha virt. eigenvalues --    2.97390   2.97771   2.98128   2.98452   2.98861
 Alpha virt. eigenvalues --    2.99273   2.99813   3.00253   3.00653   3.00853
 Alpha virt. eigenvalues --    3.01661   3.02019   3.03094   3.03358   3.03612
 Alpha virt. eigenvalues --    3.04154   3.04443   3.05163   3.05387   3.06001
 Alpha virt. eigenvalues --    3.06716   3.06831   3.07084   3.07453   3.07669
 Alpha virt. eigenvalues --    3.07849   3.08293   3.08987   3.09261   3.09758
 Alpha virt. eigenvalues --    3.10298   3.10586   3.10881   3.11312   3.11828
 Alpha virt. eigenvalues --    3.12202   3.12530   3.12605   3.13475   3.13688
 Alpha virt. eigenvalues --    3.14032   3.14278   3.14425   3.15170   3.15374
 Alpha virt. eigenvalues --    3.15935   3.16469   3.16734   3.17106   3.17383
 Alpha virt. eigenvalues --    3.17907   3.18141   3.18704   3.18930   3.19027
 Alpha virt. eigenvalues --    3.19626   3.19672   3.19805   3.20078   3.20552
 Alpha virt. eigenvalues --    3.20869   3.21385   3.21685   3.22039   3.22145
 Alpha virt. eigenvalues --    3.22489   3.23112   3.23498   3.23655   3.23995
 Alpha virt. eigenvalues --    3.24399   3.24695   3.25140   3.25578   3.25892
 Alpha virt. eigenvalues --    3.26432   3.26562   3.27222   3.27493   3.27681
 Alpha virt. eigenvalues --    3.27993   3.28395   3.28734   3.29052   3.29475
 Alpha virt. eigenvalues --    3.29761   3.29832   3.30045   3.30423   3.30557
 Alpha virt. eigenvalues --    3.30819   3.31511   3.31677   3.32009   3.32335
 Alpha virt. eigenvalues --    3.32666   3.33237   3.33689   3.33941   3.34094
 Alpha virt. eigenvalues --    3.34455   3.34647   3.34869   3.35160   3.35359
 Alpha virt. eigenvalues --    3.35748   3.36021   3.36212   3.36342   3.36841
 Alpha virt. eigenvalues --    3.37192   3.37430   3.37966   3.38145   3.38309
 Alpha virt. eigenvalues --    3.38528   3.39117   3.39659   3.40018   3.40107
 Alpha virt. eigenvalues --    3.40307   3.40828   3.41836   3.42021   3.42430
 Alpha virt. eigenvalues --    3.42527   3.42875   3.43474   3.43563   3.44460
 Alpha virt. eigenvalues --    3.44811   3.44857   3.45074   3.45667   3.46222
 Alpha virt. eigenvalues --    3.46695   3.47352   3.47638   3.48650   3.49160
 Alpha virt. eigenvalues --    3.49641   3.49810   3.50627   3.50983   3.51731
 Alpha virt. eigenvalues --    3.52798   3.52909   3.53375   3.54269   3.54770
 Alpha virt. eigenvalues --    3.55530   3.55971   3.56417   3.56570   3.57092
 Alpha virt. eigenvalues --    3.57741   3.57854   3.58832   3.59114   3.59839
 Alpha virt. eigenvalues --    3.60465   3.60800   3.61563   3.62082   3.62474
 Alpha virt. eigenvalues --    3.62737   3.63261   3.63735   3.64043   3.64621
 Alpha virt. eigenvalues --    3.65314   3.65667   3.66634   3.67379   3.67865
 Alpha virt. eigenvalues --    3.68073   3.68784   3.69408   3.69913   3.70143
 Alpha virt. eigenvalues --    3.70366   3.71080   3.71475   3.72049   3.72514
 Alpha virt. eigenvalues --    3.72760   3.73108   3.73773   3.73904   3.74229
 Alpha virt. eigenvalues --    3.74608   3.74983   3.75684   3.75884   3.76617
 Alpha virt. eigenvalues --    3.77202   3.78125   3.78900   3.79143   3.79897
 Alpha virt. eigenvalues --    3.80445   3.80938   3.81933   3.82681   3.83488
 Alpha virt. eigenvalues --    3.83580   3.84498   3.84764   3.84992   3.85731
 Alpha virt. eigenvalues --    3.86447   3.87030   3.87901   3.88303   3.88929
 Alpha virt. eigenvalues --    3.89659   3.90802   3.91431   3.91881   3.92102
 Alpha virt. eigenvalues --    3.92219   3.93537   3.94474   3.96345   3.96602
 Alpha virt. eigenvalues --    3.96955   3.98084   3.98665   3.98773   3.99709
 Alpha virt. eigenvalues --    3.99785   4.00594   4.01666   4.02050   4.02218
 Alpha virt. eigenvalues --    4.02725   4.03876   4.04359   4.04642   4.05329
 Alpha virt. eigenvalues --    4.06382   4.07055   4.07972   4.08449   4.08932
 Alpha virt. eigenvalues --    4.09723   4.10470   4.11846   4.12018   4.12477
 Alpha virt. eigenvalues --    4.13516   4.13938   4.14359   4.15032   4.15228
 Alpha virt. eigenvalues --    4.16967   4.17299   4.17779   4.18469   4.18798
 Alpha virt. eigenvalues --    4.19538   4.19665   4.20720   4.21059   4.21588
 Alpha virt. eigenvalues --    4.22334   4.23163   4.23554   4.23819   4.24299
 Alpha virt. eigenvalues --    4.24532   4.25129   4.25547   4.26970   4.27808
 Alpha virt. eigenvalues --    4.28065   4.28919   4.29305   4.30052   4.30804
 Alpha virt. eigenvalues --    4.31591   4.31971   4.32535   4.33090   4.33392
 Alpha virt. eigenvalues --    4.35105   4.35713   4.35980   4.37155   4.37662
 Alpha virt. eigenvalues --    4.38586   4.39222   4.40013   4.40488   4.40703
 Alpha virt. eigenvalues --    4.41585   4.41723   4.42596   4.42984   4.43859
 Alpha virt. eigenvalues --    4.44642   4.44999   4.45171   4.45685   4.47332
 Alpha virt. eigenvalues --    4.47592   4.49047   4.50094   4.51462   4.51552
 Alpha virt. eigenvalues --    4.52152   4.52691   4.54007   4.54301   4.55245
 Alpha virt. eigenvalues --    4.55900   4.56244   4.57492   4.58708   4.60628
 Alpha virt. eigenvalues --    4.62514   4.62784   4.63585   4.63786   4.66949
 Alpha virt. eigenvalues --    4.67326   4.67430   4.68211   4.68599   4.71409
 Alpha virt. eigenvalues --    4.72083   4.72411   4.73608   4.74096   4.75013
 Alpha virt. eigenvalues --    4.76796   4.77897   4.78994   4.80381   4.81580
 Alpha virt. eigenvalues --    4.82346   4.82456   4.83099   4.83420   4.84192
 Alpha virt. eigenvalues --    4.85283   4.85348   4.86068   4.88052   4.89009
 Alpha virt. eigenvalues --    4.90391   4.91570   4.93345   4.93644   4.94562
 Alpha virt. eigenvalues --    4.95041   4.95412   4.96658   4.98469   4.99579
 Alpha virt. eigenvalues --    5.00596   5.01498   5.03101   5.03717   5.04371
 Alpha virt. eigenvalues --    5.05465   5.06662   5.06986   5.07846   5.08450
 Alpha virt. eigenvalues --    5.11745   5.12425   5.16113   5.16502   5.18351
 Alpha virt. eigenvalues --    5.18994   5.19490   5.21193   5.21575   5.22286
 Alpha virt. eigenvalues --    5.22890   5.23487   5.24754   5.27212   5.33329
 Alpha virt. eigenvalues --    5.34900   5.35230   5.36668   5.37651   5.38170
 Alpha virt. eigenvalues --    5.38323   5.39318   5.40770   5.46709   5.47393
 Alpha virt. eigenvalues --    5.48678   5.48880   5.49440   5.50569   5.51442
 Alpha virt. eigenvalues --    5.58432   5.59207   5.59724   5.60941   5.61750
 Alpha virt. eigenvalues --    5.64865   5.65714   5.66711   5.67450   5.73741
 Alpha virt. eigenvalues --    5.74769   5.75088   5.75685   5.77703   5.85431
 Alpha virt. eigenvalues --    5.86905   5.87515   6.00024   6.00542   6.01574
 Alpha virt. eigenvalues --    6.05671   6.06681   6.09794   6.10207   6.16008
 Alpha virt. eigenvalues --    6.23899   6.32361   6.32816   6.39728   9.04580
 Alpha virt. eigenvalues --    9.19738   9.38021  19.48185  22.30578  22.34686
 Alpha virt. eigenvalues --   22.35696  22.45341  22.45910  22.52637  22.53026
 Alpha virt. eigenvalues --   22.61608  22.62336  22.81518  22.86566  22.88224
 Alpha virt. eigenvalues --   22.92282  22.93582  22.94843  22.95953  23.02708
 Alpha virt. eigenvalues --   23.03491  23.13883  23.25697  23.29711  23.30299
 Alpha virt. eigenvalues --   23.36008  23.41846  23.50000  23.50192  23.54476
 Alpha virt. eigenvalues --   23.74359  23.78458  23.79298  23.87497  32.80959
 Alpha virt. eigenvalues --   32.83573  32.86282  33.01971
  Beta  occ. eigenvalues -- -256.20371 -88.96288 -30.01531 -25.86545 -25.86021
  Beta  occ. eigenvalues --  -25.85540 -14.33658 -14.33601 -14.33565 -14.33419
  Beta  occ. eigenvalues --  -10.22673 -10.22286 -10.22080 -10.22016 -10.21964
  Beta  occ. eigenvalues --  -10.21887 -10.21868 -10.21850 -10.21787 -10.20181
  Beta  occ. eigenvalues --  -10.20149 -10.19911 -10.19756 -10.19751 -10.19680
  Beta  occ. eigenvalues --  -10.19542 -10.19474 -10.19461 -10.19448 -10.19440
  Beta  occ. eigenvalues --  -10.19387 -10.19368 -10.19344 -10.19263 -10.19246
  Beta  occ. eigenvalues --  -10.19237 -10.19208 -10.18956 -10.18904 -10.18791
  Beta  occ. eigenvalues --  -10.18765  -7.99193  -5.93769  -5.93473  -5.92925
  Beta  occ. eigenvalues --   -3.35709  -2.11741  -2.11082  -2.10705  -0.97769
  Beta  occ. eigenvalues --   -0.96836  -0.96710  -0.95753  -0.83248  -0.82669
  Beta  occ. eigenvalues --   -0.82346  -0.81716  -0.81308  -0.80744  -0.80506
  Beta  occ. eigenvalues --   -0.80475  -0.77514  -0.76415  -0.75146  -0.74903
  Beta  occ. eigenvalues --   -0.73990  -0.71760  -0.70851  -0.69160  -0.68750
  Beta  occ. eigenvalues --   -0.68645  -0.66997  -0.65028  -0.64964  -0.61344
  Beta  occ. eigenvalues --   -0.60711  -0.58801  -0.57398  -0.55401  -0.54534
  Beta  occ. eigenvalues --   -0.54106  -0.53477  -0.51918  -0.51829  -0.51347
  Beta  occ. eigenvalues --   -0.49536  -0.48714  -0.48199  -0.47195  -0.46185
  Beta  occ. eigenvalues --   -0.45675  -0.45477  -0.45180  -0.44710  -0.44481
  Beta  occ. eigenvalues --   -0.44329  -0.44193  -0.43983  -0.43842  -0.43465
  Beta  occ. eigenvalues --   -0.43084  -0.42543  -0.42240  -0.42071  -0.41406
  Beta  occ. eigenvalues --   -0.40968  -0.40867  -0.40610  -0.40465  -0.40251
  Beta  occ. eigenvalues --   -0.39908  -0.39728  -0.39404  -0.39114  -0.38764
  Beta  occ. eigenvalues --   -0.38416  -0.37962  -0.37815  -0.37456  -0.36954
  Beta  occ. eigenvalues --   -0.36713  -0.36211  -0.35664  -0.35306  -0.34789
  Beta  occ. eigenvalues --   -0.34499  -0.32823  -0.31747  -0.31536  -0.31077
  Beta  occ. eigenvalues --   -0.30328  -0.29865  -0.28944  -0.27594  -0.27450
  Beta  occ. eigenvalues --   -0.24497  -0.24211  -0.23381  -0.22791  -0.19707
  Beta  occ. eigenvalues --   -0.18804  -0.16977
  Beta virt. eigenvalues --   -0.08343  -0.07252  -0.02915  -0.01835  -0.01635
  Beta virt. eigenvalues --   -0.00195   0.00784   0.00885   0.01651   0.03577
  Beta virt. eigenvalues --    0.03823   0.04037   0.04678   0.05431   0.05670
  Beta virt. eigenvalues --    0.06467   0.07031   0.07290   0.07672   0.07756
  Beta virt. eigenvalues --    0.07819   0.08580   0.08901   0.09056   0.09214
  Beta virt. eigenvalues --    0.09478   0.10181   0.10532   0.10848   0.11076
  Beta virt. eigenvalues --    0.11275   0.11492   0.11763   0.12084   0.12185
  Beta virt. eigenvalues --    0.12560   0.12769   0.13057   0.13389   0.13693
  Beta virt. eigenvalues --    0.13784   0.13984   0.14221   0.14436   0.14617
  Beta virt. eigenvalues --    0.14908   0.15100   0.15370   0.15517   0.15606
  Beta virt. eigenvalues --    0.15849   0.16185   0.16400   0.16985   0.17214
  Beta virt. eigenvalues --    0.17289   0.17570   0.17856   0.18116   0.18501
  Beta virt. eigenvalues --    0.18684   0.19070   0.19731   0.19768   0.19896
  Beta virt. eigenvalues --    0.20308   0.20382   0.20869   0.21072   0.21363
  Beta virt. eigenvalues --    0.21674   0.21889   0.22091   0.22311   0.22605
  Beta virt. eigenvalues --    0.23052   0.23787   0.24149   0.24282   0.24826
  Beta virt. eigenvalues --    0.25112   0.25300   0.25356   0.25698   0.25955
  Beta virt. eigenvalues --    0.26290   0.26567   0.26773   0.27113   0.27274
  Beta virt. eigenvalues --    0.27820   0.28283   0.28543   0.28807   0.28970
  Beta virt. eigenvalues --    0.29042   0.29282   0.29515   0.29674   0.30089
  Beta virt. eigenvalues --    0.30375   0.30833   0.31026   0.31501   0.31678
  Beta virt. eigenvalues --    0.31831   0.32263   0.32787   0.33001   0.33256
  Beta virt. eigenvalues --    0.33640   0.34114   0.34258   0.34507   0.34606
  Beta virt. eigenvalues --    0.35257   0.35412   0.36078   0.36227   0.36507
  Beta virt. eigenvalues --    0.36809   0.37076   0.37308   0.37445   0.38094
  Beta virt. eigenvalues --    0.38495   0.38568   0.38832   0.39066   0.39182
  Beta virt. eigenvalues --    0.39639   0.39799   0.40058   0.40223   0.40664
  Beta virt. eigenvalues --    0.40989   0.41231   0.41440   0.41468   0.41525
  Beta virt. eigenvalues --    0.41854   0.41957   0.42380   0.42477   0.42729
  Beta virt. eigenvalues --    0.43123   0.43434   0.43492   0.43629   0.44060
  Beta virt. eigenvalues --    0.44434   0.44633   0.44882   0.45124   0.45313
  Beta virt. eigenvalues --    0.45689   0.45903   0.46222   0.46479   0.46608
  Beta virt. eigenvalues --    0.46822   0.47092   0.47344   0.47457   0.47706
  Beta virt. eigenvalues --    0.47779   0.48371   0.48605   0.48699   0.49060
  Beta virt. eigenvalues --    0.49096   0.49506   0.49810   0.50066   0.50293
  Beta virt. eigenvalues --    0.50536   0.50735   0.50983   0.51115   0.51187
  Beta virt. eigenvalues --    0.51340   0.51751   0.52017   0.52212   0.52532
  Beta virt. eigenvalues --    0.52733   0.53138   0.53341   0.53587   0.54156
  Beta virt. eigenvalues --    0.54323   0.54637   0.54742   0.55000   0.55490
  Beta virt. eigenvalues --    0.55864   0.56086   0.56699   0.56991   0.57119
  Beta virt. eigenvalues --    0.57174   0.57783   0.58158   0.58639   0.58996
  Beta virt. eigenvalues --    0.59296   0.59648   0.60663   0.61042   0.61331
  Beta virt. eigenvalues --    0.61467   0.61652   0.61967   0.62294   0.62522
  Beta virt. eigenvalues --    0.62624   0.62682   0.63092   0.63434   0.63754
  Beta virt. eigenvalues --    0.64104   0.64390   0.64748   0.65160   0.65318
  Beta virt. eigenvalues --    0.65593   0.65930   0.66599   0.66884   0.67446
  Beta virt. eigenvalues --    0.67850   0.68060   0.68223   0.68771   0.68972
  Beta virt. eigenvalues --    0.69556   0.69946   0.70295   0.70623   0.70868
  Beta virt. eigenvalues --    0.70958   0.71265   0.71674   0.72156   0.72384
  Beta virt. eigenvalues --    0.72400   0.73168   0.73680   0.73828   0.73919
  Beta virt. eigenvalues --    0.74213   0.74372   0.74536   0.75315   0.75421
  Beta virt. eigenvalues --    0.75528   0.75941   0.76671   0.76926   0.77460
  Beta virt. eigenvalues --    0.78094   0.78382   0.78493   0.79199   0.79237
  Beta virt. eigenvalues --    0.79597   0.79802   0.80311   0.80517   0.81079
  Beta virt. eigenvalues --    0.81206   0.81958   0.82449   0.82761   0.83084
  Beta virt. eigenvalues --    0.83564   0.84159   0.84421   0.84999   0.85353
  Beta virt. eigenvalues --    0.85400   0.86123   0.86785   0.87091   0.87749
  Beta virt. eigenvalues --    0.87965   0.88833   0.89088   0.89237   0.89479
  Beta virt. eigenvalues --    0.89885   0.90479   0.91152   0.91275   0.91829
  Beta virt. eigenvalues --    0.91936   0.92429   0.93210   0.93517   0.93982
  Beta virt. eigenvalues --    0.94305   0.94403   0.95104   0.95386   0.96042
  Beta virt. eigenvalues --    0.96149   0.96744   0.97103   0.97447   0.97743
  Beta virt. eigenvalues --    0.98050   0.98564   0.99106   0.99243   0.99750
  Beta virt. eigenvalues --    1.00208   1.00328   1.00823   1.01253   1.01431
  Beta virt. eigenvalues --    1.01656   1.01936   1.02213   1.02373   1.02783
  Beta virt. eigenvalues --    1.02999   1.03198   1.03365   1.03542   1.04593
  Beta virt. eigenvalues --    1.05061   1.05774   1.06074   1.06581   1.06678
  Beta virt. eigenvalues --    1.07413   1.08075   1.08682   1.08938   1.09183
  Beta virt. eigenvalues --    1.09550   1.10172   1.10373   1.10702   1.11345
  Beta virt. eigenvalues --    1.12213   1.12458   1.13312   1.13632   1.14394
  Beta virt. eigenvalues --    1.15178   1.15865   1.16282   1.16949   1.17116
  Beta virt. eigenvalues --    1.17534   1.18068   1.18244   1.18648   1.19011
  Beta virt. eigenvalues --    1.19466   1.19709   1.20160   1.20273   1.21591
  Beta virt. eigenvalues --    1.21851   1.22490   1.22570   1.22843   1.23728
  Beta virt. eigenvalues --    1.24312   1.24614   1.25249   1.25680   1.26287
  Beta virt. eigenvalues --    1.26797   1.26986   1.27236   1.27747   1.27896
  Beta virt. eigenvalues --    1.28151   1.28877   1.28995   1.29513   1.29751
  Beta virt. eigenvalues --    1.30375   1.30855   1.31098   1.31736   1.32556
  Beta virt. eigenvalues --    1.33445   1.34277   1.35315   1.36154   1.36547
  Beta virt. eigenvalues --    1.36795   1.37617   1.38317   1.38663   1.39197
  Beta virt. eigenvalues --    1.39717   1.40914   1.41772   1.42549   1.42948
  Beta virt. eigenvalues --    1.43071   1.43466   1.44112   1.44653   1.44838
  Beta virt. eigenvalues --    1.45518   1.46255   1.46645   1.47253   1.47377
  Beta virt. eigenvalues --    1.47711   1.47938   1.48479   1.48870   1.49215
  Beta virt. eigenvalues --    1.49681   1.49989   1.50220   1.50385   1.50955
  Beta virt. eigenvalues --    1.51083   1.51457   1.52170   1.52335   1.52544
  Beta virt. eigenvalues --    1.52947   1.53198   1.53683   1.54027   1.54176
  Beta virt. eigenvalues --    1.54374   1.54499   1.54686   1.54927   1.55523
  Beta virt. eigenvalues --    1.55829   1.55931   1.56307   1.56448   1.56739
  Beta virt. eigenvalues --    1.56946   1.57588   1.57732   1.57968   1.58540
  Beta virt. eigenvalues --    1.58875   1.59062   1.59335   1.60116   1.60174
  Beta virt. eigenvalues --    1.60814   1.60912   1.61110   1.61358   1.61699
  Beta virt. eigenvalues --    1.62435   1.62640   1.62829   1.63381   1.63681
  Beta virt. eigenvalues --    1.63880   1.64116   1.64481   1.64673   1.64883
  Beta virt. eigenvalues --    1.65464   1.65793   1.65991   1.66219   1.66773
  Beta virt. eigenvalues --    1.67110   1.67566   1.67703   1.68088   1.68707
  Beta virt. eigenvalues --    1.69025   1.69532   1.69941   1.70104   1.70215
  Beta virt. eigenvalues --    1.70961   1.71006   1.71361   1.72014   1.72238
  Beta virt. eigenvalues --    1.72565   1.72960   1.73182   1.74244   1.74492
  Beta virt. eigenvalues --    1.75132   1.75625   1.76236   1.76931   1.77233
  Beta virt. eigenvalues --    1.78126   1.78490   1.79144   1.79808   1.80512
  Beta virt. eigenvalues --    1.81035   1.81431   1.81660   1.82233   1.82711
  Beta virt. eigenvalues --    1.83462   1.83802   1.84388   1.84642   1.84861
  Beta virt. eigenvalues --    1.85216   1.86035   1.86326   1.86994   1.87199
  Beta virt. eigenvalues --    1.87856   1.88159   1.89205   1.89526   1.89631
  Beta virt. eigenvalues --    1.90030   1.90111   1.90638   1.91426   1.93233
  Beta virt. eigenvalues --    1.93617   1.94240   1.95030   1.95382   1.95679
  Beta virt. eigenvalues --    1.96042   1.96357   1.96949   1.97500   1.98021
  Beta virt. eigenvalues --    1.98501   1.98720   1.99118   2.00056   2.00270
  Beta virt. eigenvalues --    2.00487   2.01019   2.01323   2.01922   2.02355
  Beta virt. eigenvalues --    2.03504   2.03790   2.04535   2.05477   2.05756
  Beta virt. eigenvalues --    2.06364   2.06875   2.07307   2.07473   2.08130
  Beta virt. eigenvalues --    2.08519   2.09122   2.09275   2.09851   2.10215
  Beta virt. eigenvalues --    2.10986   2.11310   2.11984   2.12673   2.13096
  Beta virt. eigenvalues --    2.13513   2.13978   2.14289   2.14479   2.14767
  Beta virt. eigenvalues --    2.15756   2.16321   2.17594   2.17669   2.18438
  Beta virt. eigenvalues --    2.18733   2.19219   2.19336   2.20184   2.20484
  Beta virt. eigenvalues --    2.21517   2.22165   2.22556   2.23515   2.24309
  Beta virt. eigenvalues --    2.24731   2.24737   2.25460   2.26087   2.26296
  Beta virt. eigenvalues --    2.26600   2.27345   2.27561   2.27896   2.28578
  Beta virt. eigenvalues --    2.28854   2.29540   2.29920   2.30124   2.30545
  Beta virt. eigenvalues --    2.31078   2.31422   2.32655   2.32918   2.33687
  Beta virt. eigenvalues --    2.33915   2.34600   2.34796   2.35342   2.35766
  Beta virt. eigenvalues --    2.36200   2.36454   2.36691   2.37281   2.37796
  Beta virt. eigenvalues --    2.38183   2.38486   2.39092   2.39320   2.40006
  Beta virt. eigenvalues --    2.40714   2.41004   2.41508   2.42244   2.42343
  Beta virt. eigenvalues --    2.42979   2.43560   2.43954   2.44267   2.44826
  Beta virt. eigenvalues --    2.45380   2.45447   2.45706   2.46160   2.46723
  Beta virt. eigenvalues --    2.47346   2.47453   2.47916   2.49021   2.49198
  Beta virt. eigenvalues --    2.50103   2.50760   2.51837   2.52228   2.52337
  Beta virt. eigenvalues --    2.52636   2.52659   2.53582   2.53777   2.54551
  Beta virt. eigenvalues --    2.54930   2.55187   2.55934   2.56059   2.56300
  Beta virt. eigenvalues --    2.56670   2.57066   2.57282   2.57868   2.58164
  Beta virt. eigenvalues --    2.58864   2.59373   2.59429   2.59801   2.60481
  Beta virt. eigenvalues --    2.60725   2.61181   2.61593   2.61692   2.62308
  Beta virt. eigenvalues --    2.63000   2.63955   2.64157   2.64622   2.65214
  Beta virt. eigenvalues --    2.65409   2.65880   2.66576   2.66695   2.67140
  Beta virt. eigenvalues --    2.67353   2.68048   2.68274   2.68523   2.69332
  Beta virt. eigenvalues --    2.69628   2.70108   2.70506   2.70789   2.71800
  Beta virt. eigenvalues --    2.72312   2.73087   2.73369   2.73749   2.73819
  Beta virt. eigenvalues --    2.74608   2.75034   2.75599   2.76255   2.76467
  Beta virt. eigenvalues --    2.77286   2.77833   2.78119   2.78304   2.78863
  Beta virt. eigenvalues --    2.79877   2.80022   2.80485   2.81101   2.81484
  Beta virt. eigenvalues --    2.82118   2.82690   2.82844   2.83328   2.83602
  Beta virt. eigenvalues --    2.84418   2.84706   2.85070   2.85279   2.86030
  Beta virt. eigenvalues --    2.86606   2.86857   2.87295   2.87521   2.88034
  Beta virt. eigenvalues --    2.88682   2.88918   2.89215   2.89834   2.89956
  Beta virt. eigenvalues --    2.90836   2.91219   2.91512   2.92650   2.92878
  Beta virt. eigenvalues --    2.93141   2.93859   2.94175   2.94320   2.94880
  Beta virt. eigenvalues --    2.95360   2.96085   2.96308   2.96942   2.97468
  Beta virt. eigenvalues --    2.97833   2.98207   2.98491   2.98922   2.99387
  Beta virt. eigenvalues --    2.99913   3.00322   3.00708   3.00875   3.01725
  Beta virt. eigenvalues --    3.02073   3.03160   3.03389   3.03711   3.04206
  Beta virt. eigenvalues --    3.04487   3.05198   3.05487   3.06050   3.06767
  Beta virt. eigenvalues --    3.06929   3.07173   3.07518   3.07733   3.07912
  Beta virt. eigenvalues --    3.08329   3.09036   3.09351   3.09854   3.10353
  Beta virt. eigenvalues --    3.10627   3.10928   3.11436   3.11885   3.12292
  Beta virt. eigenvalues --    3.12577   3.12704   3.13550   3.13786   3.14088
  Beta virt. eigenvalues --    3.14350   3.14508   3.15285   3.15444   3.16039
  Beta virt. eigenvalues --    3.16510   3.16898   3.17215   3.17426   3.18022
  Beta virt. eigenvalues --    3.18267   3.18867   3.19050   3.19158   3.19698
  Beta virt. eigenvalues --    3.19720   3.19872   3.20206   3.20644   3.20949
  Beta virt. eigenvalues --    3.21528   3.21756   3.22177   3.22216   3.22639
  Beta virt. eigenvalues --    3.23224   3.23600   3.23798   3.24109   3.24470
  Beta virt. eigenvalues --    3.24762   3.25235   3.25631   3.25998   3.26477
  Beta virt. eigenvalues --    3.26661   3.27272   3.27537   3.27742   3.28049
  Beta virt. eigenvalues --    3.28458   3.28833   3.29099   3.29611   3.29792
  Beta virt. eigenvalues --    3.29898   3.30095   3.30455   3.30663   3.30866
  Beta virt. eigenvalues --    3.31592   3.31749   3.32100   3.32365   3.32719
  Beta virt. eigenvalues --    3.33314   3.33791   3.34005   3.34206   3.34523
  Beta virt. eigenvalues --    3.34712   3.34910   3.35271   3.35458   3.35799
  Beta virt. eigenvalues --    3.36103   3.36251   3.36395   3.36942   3.37254
  Beta virt. eigenvalues --    3.37522   3.38047   3.38211   3.38406   3.38571
  Beta virt. eigenvalues --    3.39171   3.39743   3.40055   3.40147   3.40376
  Beta virt. eigenvalues --    3.40915   3.41963   3.42237   3.42466   3.42642
  Beta virt. eigenvalues --    3.43071   3.43549   3.43738   3.44524   3.44902
  Beta virt. eigenvalues --    3.45010   3.45160   3.45785   3.46367   3.46762
  Beta virt. eigenvalues --    3.47471   3.47713   3.48802   3.49318   3.49696
  Beta virt. eigenvalues --    3.50042   3.50767   3.51218   3.51895   3.52940
  Beta virt. eigenvalues --    3.53217   3.53582   3.54488   3.54917   3.55789
  Beta virt. eigenvalues --    3.56139   3.56669   3.56794   3.57248   3.57886
  Beta virt. eigenvalues --    3.58001   3.59033   3.59363   3.60001   3.60584
  Beta virt. eigenvalues --    3.60909   3.61854   3.62393   3.62784   3.63249
  Beta virt. eigenvalues --    3.63633   3.64125   3.64354   3.65240   3.65721
  Beta virt. eigenvalues --    3.65851   3.67361   3.67628   3.68025   3.68361
  Beta virt. eigenvalues --    3.69196   3.70116   3.70282   3.70466   3.71139
  Beta virt. eigenvalues --    3.71313   3.71670   3.72279   3.73007   3.73183
  Beta virt. eigenvalues --    3.73598   3.73944   3.74162   3.74403   3.74809
  Beta virt. eigenvalues --    3.75214   3.75988   3.76271   3.77327   3.77809
  Beta virt. eigenvalues --    3.78421   3.79360   3.79613   3.80260   3.81345
  Beta virt. eigenvalues --    3.81999   3.83391   3.83610   3.84333   3.84686
  Beta virt. eigenvalues --    3.84898   3.85943   3.86330   3.86444   3.87021
  Beta virt. eigenvalues --    3.88343   3.88426   3.89096   3.89371   3.90741
  Beta virt. eigenvalues --    3.91790   3.92082   3.92615   3.93214   3.93481
  Beta virt. eigenvalues --    3.94326   3.95367   3.97013   3.97273   3.97812
  Beta virt. eigenvalues --    3.98628   3.99031   3.99280   4.00170   4.00699
  Beta virt. eigenvalues --    4.01229   4.02529   4.03189   4.03570   4.03984
  Beta virt. eigenvalues --    4.04745   4.05346   4.05753   4.06006   4.07029
  Beta virt. eigenvalues --    4.07716   4.09224   4.09485   4.09801   4.10620
  Beta virt. eigenvalues --    4.12044   4.12526   4.13095   4.14264   4.14438
  Beta virt. eigenvalues --    4.14864   4.15434   4.16468   4.17008   4.17873
  Beta virt. eigenvalues --    4.18020   4.18302   4.19158   4.19863   4.20279
  Beta virt. eigenvalues --    4.21209   4.21913   4.22442   4.23424   4.23982
  Beta virt. eigenvalues --    4.24774   4.25606   4.26433   4.26988   4.27574
  Beta virt. eigenvalues --    4.27842   4.28392   4.28992   4.29321   4.29584
  Beta virt. eigenvalues --    4.30254   4.31123   4.32528   4.32783   4.32938
  Beta virt. eigenvalues --    4.33307   4.33661   4.34750   4.36152   4.36813
  Beta virt. eigenvalues --    4.37200   4.37802   4.38211   4.39061   4.39677
  Beta virt. eigenvalues --    4.40091   4.40460   4.41147   4.41804   4.42775
  Beta virt. eigenvalues --    4.43085   4.43821   4.44300   4.44873   4.45548
  Beta virt. eigenvalues --    4.45668   4.45794   4.46742   4.47645   4.48627
  Beta virt. eigenvalues --    4.49583   4.50288   4.51580   4.51835   4.52413
  Beta virt. eigenvalues --    4.52778   4.54361   4.54518   4.55454   4.55979
  Beta virt. eigenvalues --    4.56582   4.57713   4.58974   4.60753   4.63001
  Beta virt. eigenvalues --    4.63422   4.64136   4.64694   4.67153   4.67493
  Beta virt. eigenvalues --    4.67536   4.68374   4.68768   4.71588   4.72175
  Beta virt. eigenvalues --    4.72749   4.74020   4.74286   4.75087   4.76992
  Beta virt. eigenvalues --    4.78519   4.79302   4.80596   4.81741   4.82461
  Beta virt. eigenvalues --    4.82564   4.83161   4.83513   4.84321   4.85433
  Beta virt. eigenvalues --    4.85470   4.86150   4.88228   4.89245   4.90530
  Beta virt. eigenvalues --    4.91846   4.93610   4.93996   4.94827   4.95315
  Beta virt. eigenvalues --    4.95710   4.96963   4.98749   4.99749   5.00956
  Beta virt. eigenvalues --    5.01707   5.03389   5.03964   5.04606   5.05785
  Beta virt. eigenvalues --    5.06720   5.07199   5.07928   5.08630   5.11868
  Beta virt. eigenvalues --    5.12506   5.16206   5.16608   5.18791   5.19283
  Beta virt. eigenvalues --    5.19692   5.21322   5.21874   5.22690   5.23170
  Beta virt. eigenvalues --    5.23806   5.25221   5.27443   5.33752   5.34976
  Beta virt. eigenvalues --    5.35419   5.36916   5.37881   5.38415   5.38594
  Beta virt. eigenvalues --    5.39534   5.40915   5.47082   5.47800   5.48898
  Beta virt. eigenvalues --    5.49492   5.49748   5.50832   5.51685   5.58615
  Beta virt. eigenvalues --    5.59358   5.59900   5.61024   5.61831   5.65066
  Beta virt. eigenvalues --    5.65909   5.66922   5.67695   5.73918   5.74946
  Beta virt. eigenvalues --    5.75260   5.75917   5.77811   5.85754   5.87238
  Beta virt. eigenvalues --    5.88143   6.00284   6.00817   6.01795   6.06166
  Beta virt. eigenvalues --    6.07194   6.10447   6.10910   6.16113   6.24284
  Beta virt. eigenvalues --    6.32474   6.32944   6.39803   9.04677   9.19943
  Beta virt. eigenvalues --    9.38145  19.48296  22.30568  22.34686  22.35697
  Beta virt. eigenvalues --   22.45343  22.45912  22.52639  22.53027  22.61610
  Beta virt. eigenvalues --   22.62338  22.81524  22.86569  22.88228  22.92291
  Beta virt. eigenvalues --   22.93588  22.94846  22.95957  23.02709  23.03502
  Beta virt. eigenvalues --   23.13888  23.25706  23.29723  23.30303  23.36015
  Beta virt. eigenvalues --   23.41852  23.50005  23.50202  23.54485  23.74366
  Beta virt. eigenvalues --   23.78470  23.79298  23.87503  32.81172  32.83772
  Beta virt. eigenvalues --   32.86488  33.02184
          Condensed to atoms (all electrons):
          Atomic-Atomic Spin Densities.
 Mulliken charges and spin densities:
               1          2
     1  Fe   0.063889   3.816086
     2  N   -0.137638   0.012750
     3  N   -0.161429   0.026802
     4  N   -0.134894   0.011853
     5  N   -0.146768   0.027837
     6  C    0.251442  -0.002146
     7  C   -0.042155   0.016214
     8  C   -0.042574   0.000144
     9  C    0.258813   0.010876
    10  C    0.293412   0.009918
    11  C   -0.065291  -0.005981
    12  C    0.034102   0.009024
    13  C    0.283233  -0.004581
    14  C    0.255230  -0.002774
    15  C   -0.047048   0.016706
    16  C    0.036688  -0.000449
    17  C    0.272560   0.014870
    18  C    0.237339   0.010086
    19  C   -0.031352  -0.007385
    20  C   -0.046337   0.009425
    21  C    0.262794  -0.004407
    22  C   -0.475530  -0.000873
    23  H    0.141823  -0.000256
    24  C   -0.484694  -0.006877
    25  H    0.135444   0.000034
    26  C   -0.415860  -0.004163
    27  H    0.120823  -0.000167
    28  C   -0.441428  -0.010222
    29  H    0.124522   0.000264
    30  C   -0.415697   0.000369
    31  H    0.132912  -0.000118
    32  H    0.122186   0.000364
    33  H    0.144301  -0.000190
    34  C   -0.409974  -0.000817
    35  H    0.134264   0.000566
    36  H    0.141609   0.000551
    37  H    0.122010   0.000417
    38  C   -0.438151   0.001200
    39  H    0.140354  -0.000470
    40  H    0.129286  -0.000416
    41  H    0.157927   0.000014
    42  C   -0.205733  -0.000784
    43  H    0.112432   0.000123
    44  C   -0.280218   0.001320
    45  H    0.139856  -0.000062
    46  H    0.124580   0.000115
    47  C   -0.450082  -0.000725
    48  H    0.146713   0.000668
    49  H    0.133281   0.000417
    50  H    0.158736   0.000475
    51  C   -0.202501   0.001489
    52  H    0.111614  -0.000163
    53  C   -0.284450  -0.001641
    54  H    0.141794   0.000047
    55  H    0.124800   0.000231
    56  C   -0.415630   0.001356
    57  H    0.136130  -0.000647
    58  H    0.141735  -0.000738
    59  H    0.120917   0.000305
    60  C   -0.411224   0.000253
    61  H    0.121778   0.000357
    62  H    0.138920   0.000042
    63  H    0.134420   0.000097
    64  C   -0.335248  -0.004519
    65  H    0.161946   0.001971
    66  H    0.155733   0.000486
    67  H    0.147277  -0.000405
    68  S   -0.093601   0.066635
    69  H    0.165885  -0.010780
 Sum of Mulliken charges =  -0.00000   4.00000
 Mulliken charges and spin densities with hydrogens summed into heavy atoms:
               1          2
     1  Fe   0.063889   3.816086
     2  N   -0.137638   0.012750
     3  N   -0.161429   0.026802
[...]
  1064. RY*(  13) C  51                  0.00000     3.35241   
  1065. RY*(  14) C  51                  0.00001     2.55088   
  1066. RY*(  15) C  51                  0.00000     2.86880   
  1067. RY*(  16) C  51                  0.00001     3.26135   
  1068. RY*(  17) C  51                  0.00001     1.49210   
  1069. RY*(  18) C  51                  0.00000    21.21519   
  1070. RY*(  19) C  51                  0.00001     3.13006   
  1071. RY*(  20) C  51                  0.00000     3.48026   
  1072. RY*(  21) C  51                  0.00000     3.27165   
  1073. RY*(  22) C  51                  0.00000     3.71340   
  1074. RY*(  23) C  51                  0.00000     3.63023   
  1075. RY*(  24) C  51                  0.00000     3.66796   
  1076. RY*(  25) C  51                  0.00000     4.04979   
  1077. RY*(  26) C  51                  0.00000     3.97935   
  1078. RY*(   1) H  52                  0.00063     0.69596   
  1079. RY*(   2) H  52                  0.00011     2.25886   
  1080. RY*(   3) H  52                  0.00006     2.34639   
  1081. RY*(   4) H  52                  0.00005     2.69493   
  1082. RY*(   5) H  52                  0.00000     3.11706   
  1083. RY*(   1) C  53                  0.00114     1.27577   
  1084. RY*(   2) C  53                  0.00069     0.97177   
  1085. RY*(   3) C  53                  0.00052     0.61452   
  1086. RY*(   4) C  53                  0.00014     1.01550   
  1087. RY*(   5) C  53                  0.00008     1.05474   
  1088. RY*(   6) C  53                  0.00002     1.45446   
  1089. RY*(   7) C  53                  0.00000     2.05697   
  1090. RY*(   8) C  53                  0.00000     1.11867   
  1091. RY*(   9) C  53                  0.00000     1.71996   
  1092. RY*(  10) C  53                  0.00001     1.64088   
  1093. RY*(  11) C  53                  0.00000     2.84699   
  1094. RY*(  12) C  53                  0.00001     2.08173   
  1095. RY*(  13) C  53                  0.00000     3.14064   
  1096. RY*(  14) C  53                  0.00000     1.46243   
  1097. RY*(  15) C  53                  0.00000     2.85727   
  1098. RY*(  16) C  53                  0.00000    21.22378   
  1099. RY*(  17) C  53                  0.00000     3.29443   
  1100. RY*(  18) C  53                  0.00001     1.47845   
  1101. RY*(  19) C  53                  0.00000     2.86668   
  1102. RY*(  20) C  53                  0.00000     3.40088   
  1103. RY*(  21) C  53                  0.00000     3.23787   
  1104. RY*(  22) C  53                  0.00000     3.45453   
  1105. RY*(  23) C  53                  0.00000     3.45380   
  1106. RY*(  24) C  53                  0.00000     3.47635   
  1107. RY*(  25) C  53                  0.00000     3.77917   
  1108. RY*(  26) C  53                  0.00000     3.78873   
  1109. RY*(   1) H  54                  0.00034     1.04618   
  1110. RY*(   2) H  54                  0.00015     1.65458   
  1111. RY*(   3) H  54                  0.00010     2.17788   
  1112. RY*(   4) H  54                  0.00003     2.38391   
  1113. RY*(   5) H  54                  0.00000     3.10996   
  1114. RY*(   1) H  55                  0.00023     0.71964   
  1115. RY*(   2) H  55                  0.00015     1.83088   
  1116. RY*(   3) H  55                  0.00008     2.12140   
  1117. RY*(   4) H  55                  0.00003     2.49737   
  1118. RY*(   5) H  55                  0.00000     3.06623   
  1119. RY*(   1) C  56                  0.00073     1.32831   
  1120. RY*(   2) C  56                  0.00072     1.18599   
  1121. RY*(   3) C  56                  0.00033     1.39665   
  1122. RY*(   4) C  56                  0.00006     0.94687   
  1123. RY*(   5) C  56                  0.00002     1.69732   
  1124. RY*(   6) C  56                  0.00002     1.48450   
  1125. RY*(   7) C  56                  0.00001     1.54187   
  1126. RY*(   8) C  56                  0.00000    21.62795   
  1127. RY*(   9) C  56                  0.00000     1.71699   
  1128. RY*(  10) C  56                  0.00001     3.10828   
  1129. RY*(  11) C  56                  0.00000     2.72272   
  1130. RY*(  12) C  56                  0.00000     2.40814   
  1131. RY*(  13) C  56                  0.00000     2.30867   
  1132. RY*(  14) C  56                  0.00000     2.69678   
  1133. RY*(  15) C  56                  0.00000     2.39875   
  1134. RY*(  16) C  56                  0.00001     3.39275   
  1135. RY*(  17) C  56                  0.00000     2.56723   
  1136. RY*(  18) C  56                  0.00000     3.15293   
  1137. RY*(  19) C  56                  0.00000     2.51470   
  1138. RY*(  20) C  56                  0.00000     3.21341   
  1139. RY*(  21) C  56                  0.00000     3.57442   
  1140. RY*(  22) C  56                  0.00000     3.77497   
  1141. RY*(  23) C  56                  0.00000     3.34045   
  1142. RY*(  24) C  56                  0.00000     3.38745   
  1143. RY*(  25) C  56                  0.00000     3.74818   
  1144. RY*(  26) C  56                  0.00000     3.49775   
  1145. RY*(   1) H  57                  0.00042     0.89750   
  1146. RY*(   2) H  57                  0.00009     1.83759   
  1147. RY*(   3) H  57                  0.00003     2.00118   
  1148. RY*(   4) H  57                  0.00003     2.15380   
  1149. RY*(   5) H  57                  0.00000     2.95056   
  1150. RY*(   1) H  58                  0.00049     0.91442   
  1151. RY*(   2) H  58                  0.00009     1.80402   
  1152. RY*(   3) H  58                  0.00003     2.00558   
  1153. RY*(   4) H  58                  0.00003     2.13852   
  1154. RY*(   5) H  58                  0.00000     2.97634   
  1155. RY*(   1) H  59                  0.00036     0.91456   
  1156. RY*(   2) H  59                  0.00006     1.75908   
  1157. RY*(   3) H  59                  0.00004     2.09262   
  1158. RY*(   4) H  59                  0.00004     2.08105   
  1159. RY*(   5) H  59                  0.00000     2.98890   
  1160. RY*(   1) C  60                  0.00071     1.16890   
  1161. RY*(   2) C  60                  0.00072     1.34920   
  1162. RY*(   3) C  60                  0.00032     1.39907   
  1163. RY*(   4) C  60                  0.00006     0.93641   
  1164. RY*(   5) C  60                  0.00002     2.04587   
  1165. RY*(   6) C  60                  0.00003     1.51127   
  1166. RY*(   7) C  60                  0.00000     1.80603   
  1167. RY*(   8) C  60                  0.00001     1.54075   
  1168. RY*(   9) C  60                  0.00000    21.66288   
  1169. RY*(  10) C  60                  0.00001     3.06324   
  1170. RY*(  11) C  60                  0.00000     2.65873   
  1171. RY*(  12) C  60                  0.00000     2.02164   
  1172. RY*(  13) C  60                  0.00000     2.47598   
  1173. RY*(  14) C  60                  0.00000     2.97566   
  1174. RY*(  15) C  60                  0.00000     2.30553   
  1175. RY*(  16) C  60                  0.00000     3.01944   
  1176. RY*(  17) C  60                  0.00000     2.55139   
  1177. RY*(  18) C  60                  0.00000     3.31546   
  1178. RY*(  19) C  60                  0.00000     2.42395   
  1179. RY*(  20) C  60                  0.00000     3.26555   
  1180. RY*(  21) C  60                  0.00000     3.56762   
  1181. RY*(  22) C  60                  0.00000     3.71674   
  1182. RY*(  23) C  60                  0.00000     3.32662   
  1183. RY*(  24) C  60                  0.00000     3.40722   
  1184. RY*(  25) C  60                  0.00000     3.75906   
  1185. RY*(  26) C  60                  0.00000     3.50423   
  1186. RY*(   1) H  61                  0.00036     0.91907   
  1187. RY*(   2) H  61                  0.00006     1.75989   
  1188. RY*(   3) H  61                  0.00004     2.09506   
  1189. RY*(   4) H  61                  0.00004     2.07824   
  1190. RY*(   5) H  61                  0.00000     2.99371   
  1191. RY*(   1) H  62                  0.00046     0.90081   
  1192. RY*(   2) H  62                  0.00009     1.80365   
  1193. RY*(   3) H  62                  0.00003     2.09740   
  1194. RY*(   4) H  62                  0.00003     2.06199   
  1195. RY*(   5) H  62                  0.00000     2.96484   
  1196. RY*(   1) H  63                  0.00044     0.89214   
  1197. RY*(   2) H  63                  0.00009     1.83425   
  1198. RY*(   3) H  63                  0.00003     2.03525   
  1199. RY*(   4) H  63                  0.00003     2.10113   
  1200. RY*(   5) H  63                  0.00000     2.96643   
  1276. BD*(   1) N   2 - C   6          0.01283     0.49786   
  1277. BD*(   2) N   2 - C   6          0.32352     0.00347  1322(v),1291(v),1296(v)
                                                    283(g),141(r),140(r),178(g)
                                                    136(r),697(v),1275(r),142(r)
                                                    137(r),1355(r)
  1278. BD*(   1) N   2 - C   9          0.01279     0.49606   
  1279. BD*(   1) N   3 - C  10          0.01271     0.49761   
  1280. BD*(   2) N   3 - C  10          0.31510     0.00591  1296(v),1300(v),1305(v)
                                                    386(g),141(r),140(r),203(g)
                                                    136(r),728(v),388(g),389(g)
                                                    137(r),142(r),1275(r),139(r)
  1281. BD*(   1) N   3 - C  13          0.01209     0.50359   
  1282. BD*(   1) N   4 - C  14          0.01284     0.49934   
  1283. BD*(   2) N   4 - C  14          0.32770     0.00604  1305(v),1309(v),147(v)
                                                    140(r),491(g),230(g),141(r)
                                                    136(r),1275(r),142(r),137(r)
  1284. BD*(   1) N   4 - C  17          0.01233     0.50034   
  1285. BD*(   1) N   5 - C  18          0.01255     0.50554   
  1286. BD*(   2) N   5 - C  18          0.31235     0.00802  1322(v),1317(v),141(r)
                                                    594(g),255(g),790(v),595(g)
                                                    136(r),597(g),137(r),140(r)
                                                    1275(r)
  1287. BD*(   1) N   5 - C  21          0.01256     0.50449   
  1288. BD*(   1) C   6 - C   7          0.01753     0.48916   
  1289. BD*(   1) C   6 - C  22          0.01041     0.57236   
  1290. BD*(   1) C   7 - C   8          0.01137     0.60295   
  1291. BD*(   2) C   7 - C   8          0.12972     0.06390  1296(v),1277(v),1329(v)
                                                    1330(v),1331(v),1327(v)
  1292. BD*(   1) C   7 - C  34          0.00855     0.41013   
  1293. BD*(   1) C   8 - C   9          0.01766     0.48693   
  1294. BD*(   1) C   8 - C  30          0.00852     0.41016   
  1295. BD*(   1) C   9 - C  24          0.01034     0.57494   
  1296. BD*(   2) C   9 - C  24          0.20353     0.04259  1280(v),1322(r),1291(v)
                                                    1277(v),728(g),1305(r)
                                                    363(g),141(r)
  1297. BD*(   1) C  10 - C  11          0.01753     0.49692   
  1298. BD*(   1) C  10 - C  24          0.01062     0.57061   
  1299. BD*(   1) C  11 - C  12          0.01234     0.58893   
  1300. BD*(   2) C  11 - C  12          0.13975     0.06281  1338(v),1305(v),1280(v)
                                                    1333(v),1334(v)
  1301. BD*(   1) C  11 - C  38          0.00815     0.41483   
  1302. BD*(   1) C  12 - C  13          0.01738     0.48690   
  1303. BD*(   1) C  12 - C  42          0.01327     0.49409   
  1304. BD*(   1) C  13 - C  26          0.01025     0.57612   
  1305. BD*(   2) C  13 - C  26          0.19978     0.04471  1283(v),1300(v),1280(v)
                                                    1296(r),1338(r),467(g)
                                                    759(g),760(g),141(r)
  1306. BD*(   1) C  14 - C  15          0.01698     0.49537   
  1307. BD*(   1) C  14 - C  26          0.01044     0.57335   
  1308. BD*(   1) C  15 - C  16          0.01237     0.59089   
  1309. BD*(   2) C  15 - C  16          0.14574     0.06228  1346(v),1283(v),147(v)
                                                    1341(v),1342(v),1344(v)
  1310. BD*(   1) C  15 - C  47          0.00807     0.41552   
  1311. BD*(   1) C  16 - C  17          0.01736     0.48302   
  1312. BD*(   1) C  16 - C  51          0.01331     0.49246   
  1313. BD*(   1) C  17 - C  28          0.01029     0.57460   
  1314. BD*(   1) C  18 - C  19          0.01796     0.48998   
  1315. BD*(   1) C  18 - C  28          0.01062     0.57579   
  1316. BD*(   1) C  19 - C  20          0.01134     0.60420   
  1317. BD*(   2) C  19 - C  20          0.12142     0.06575  1322(v),1286(v),1350(v)
                                                    1353(v),1354(v),1349(v)
  1318. BD*(   1) C  19 - C  56          0.00852     0.41258   
  1319. BD*(   1) C  20 - C  21          0.01778     0.49125   
  1320. BD*(   1) C  20 - C  60          0.00854     0.41184   
  1321. BD*(   1) C  21 - C  22          0.01048     0.57507   
  1322. BD*(   2) C  21 - C  22          0.20447     0.04251  1277(v),1296(r),1317(v)
                                                    1286(v),697(g),675(g),141(r)
  1323. BD*(   1) C  22 - H  23          0.00626     0.42975   
  1324. BD*(   1) C  24 - H  25          0.00650     0.42874   
  1325. BD*(   1) C  26 - H  27          0.00649     0.43001   
  1326. BD*(   1) C  28 - H  29          0.00654     0.42915   
  1327. BD*(   1) C  30 - H  31          0.00486     0.37514   
  1328. BD*(   1) C  30 - H  32          0.00333     0.38622   
  1329. BD*(   1) C  30 - H  33          0.00562     0.37529   
  1330. BD*(   1) C  34 - H  35          0.00522     0.37337   
  1331. BD*(   1) C  34 - H  36          0.00506     0.37601   
  1332. BD*(   1) C  34 - H  37          0.00330     0.38627   
  1333. BD*(   1) C  38 - H  39          0.00624     0.37538   
  1334. BD*(   1) C  38 - H  40          0.00515     0.38320   
  1335. BD*(   1) C  38 - H  41          0.00407     0.39210   
  1336. BD*(   1) C  42 - H  43          0.01067     0.42158   
  1337. BD*(   1) C  42 - C  44          0.00390     0.62884   
  1338. BD*(   2) C  42 - C  44          0.03664     0.05788   
  1339. BD*(   1) C  44 - H  45          0.00547     0.43308   
  1340. BD*(   1) C  44 - H  46          0.00424     0.43406   
  1341. BD*(   1) C  47 - H  48          0.00584     0.37685   
  1342. BD*(   1) C  47 - H  49          0.00474     0.38436   
  1343. BD*(   1) C  47 - H  50          0.00400     0.39220   
  1344. BD*(   1) C  51 - H  52          0.01064     0.42130   
  1345. BD*(   1) C  51 - C  53          0.00385     0.62872   
  1346. BD*(   2) C  51 - C  53          0.03631     0.05736   
  1347. BD*(   1) C  53 - H  54          0.00545     0.43333   
  1348. BD*(   1) C  53 - H  55          0.00424     0.43375   
  1349. BD*(   1) C  56 - H  57          0.00519     0.37753   
  1350. BD*(   1) C  56 - H  58          0.00577     0.37668   
  1351. BD*(   1) C  56 - H  59          0.00334     0.38795   
  1352. BD*(   1) C  60 - H  61          0.00332     0.38751   
  1353. BD*(   1) C  60 - H  62          0.00546     0.37639   
  1354. BD*(   1) C  60 - H  63          0.00531     0.37501   
       -------------------------------
              Total Lewis  114.98130  ( 97.1811%)
        Valence non-Lewis    3.10480  (  2.6241%)
        Rydberg non-Lewis    0.23046  (  0.1948%)
       -------------------------------
            Total unit  2  118.31657  (100.0000%)
           Charge unit  2   -0.31657
 Unable to Open any file for archive entry.
 1\1\GINC-BGN1018\SP\UAPFD\def2TZVP\C31H32Fe1N4S1(5)\BECSLEIP\11-Nov-20
 24\0\\# apfd/def2TZVP guess=read scf=maxcycle=999 geom=check pop=nbo\\
 6hqk_II_Q\\0,5\Fe,0,41.8499036903,82.7436987183,43.0666408536\N,0,42.6
 080531431,83.6502483432,41.4490705029\N,0,43.7015805529,82.7201397396,
 43.8753734703\N,0,41.3042170625,81.3850682701,44.4252831703\N,0,40.236
 2793055,82.2606670684,41.9586732911\C,0,42.0065783397,83.8738604325,40
 .2449420818\C,0,42.855314941,84.6588298116,39.3790130048\C,0,43.971639
 6783,84.9483136876,40.0995586815\C,0,43.8056781229,84.3033224886,41.38
 23200026\C,0,44.7264706622,83.5523072604,43.5273471984\C,0,45.79131591
 42,83.4994540184,44.4933086156\C,0,45.3697304801,82.649714232,45.48122
 69882\C,0,44.0686511845,82.1689022622,45.0651373131\C,0,42.0236764675,
 80.8884640529,45.4721742448\C,0,41.2306037541,79.9979657799,46.2788053
 215\C,0,39.9949279815,79.9519734801,45.6941551317\C,0,40.0754922988,80
 .8042643479,44.5233870427\C,0,39.1273207129,81.615792245,42.416294637\
 C,0,38.0754187385,81.6287489689,41.4261634373\C,0,38.5696780341,82.305
 3720084,40.354205254\C,0,39.9122265765,82.7005796522,40.7102632784\C,0
 ,40.7504423335,83.423575149,39.8844825604\H,0,40.3891074275,83.6800490
 928,38.9008929579\C,0,44.7822661203,84.2877830975,42.3571407496\H,0,45
 .668859001,84.8763349292,42.179450582\C,0,43.3177106543,81.2604815924,
 45.7841627718\H,0,43.7493904381,80.8541063067,46.6853876113\C,0,39.037
 5810578,80.9560490985,43.6257404113\H,0,38.1008931296,80.4741342918,43
 .8583452266\C,0,45.1748342768,85.7308630653,39.7015556162\H,0,45.38153
 77381,86.515394101,40.4293076181\H,0,45.0284093653,86.1949902377,38.72
 95025028\H,0,46.0501027269,85.0831580292,39.6435491638\C,0,42.50295497
 43,85.0451673339,37.9843887231\H,0,41.595744107,85.6501774331,37.96901
 5592\H,0,42.3281385994,84.1578718758,37.3761775798\H,0,43.3057069461,8
 5.6191586077,37.5287688139\C,0,47.0919458669,84.2128688415,44.37586992
 83\H,0,46.9920524786,85.2576376743,44.6746223184\H,0,47.4524962989,84.
 1884664111,43.3485925318\H,0,47.8341086375,83.7411874144,45.0162156211
 \C,0,46.0573227684,82.2353425508,46.6847353863\H,0,45.8855062922,81.21
 16451823,46.9956344734\C,0,46.853995538,83.0068827676,47.416256869\H,0
 ,47.0229663334,84.0430585647,47.1801178472\H,0,47.3471551757,82.631267
 1122,48.2971681537\C,0,41.7321995428,79.2400051723,47.456606039\H,0,41
 .7415107966,79.8700039155,48.3473274232\H,0,42.7471537777,78.886418584
 3,47.2818169389\H,0,41.0913610637,78.3819290633,47.6485250163\C,0,38.8
 289358332,79.1910761352,46.0883870704\H,0,38.2149778464,78.8153676009,
 45.2785219706\C,0,38.4712197724,78.9373122553,47.3424605939\H,0,39.017
 3777415,79.3283998492,48.1830403175\H,0,37.5950466212,78.3538533731,47
 .5710620417\C,0,36.7402922357,80.9953920967,41.611081336\H,0,36.258443
 6753,81.3718266668,42.5132901972\H,0,36.8413197164,79.914025445,41.707
 295388\H,0,36.0929340958,81.2034855718,40.7628810155\C,0,37.9231887394
 ,82.6100754423,39.0474030858\H,0,36.9062902986,82.2269592025,39.021528
 5759\H,0,38.4817239036,82.1545588202,38.2295502758\H,0,37.8899925494,8
 3.6863802463,38.8765100096\C,0,39.9602620511,85.4716187377,42.89919511
 75\H,0,40.407902463,85.4482782217,41.9109343939\H,0,39.777538899,86.48
 95976876,43.2287844041\H,0,39.0343930156,84.9057589419,42.8965801591\S
 ,0,41.0714343442,84.6401906448,44.0953912738\H,0,42.0925150908,85.4891
 486967,43.9024022251\\Version=ES64L-G16RevC.02\State=5-A\HF=-3080.7770
 777\S2=6.057406\S2-1=0.\S2A=6.000311\RMSD=8.159e-10\Dipole=-0.3916358,
 1.0180215,-0.5003088\Quadrupole=1.8701366,-2.1740345,0.3038979,4.85934
 67,4.1614809,-7.6723726\PG=C01 [X(C31H32Fe1N4S1)]\\@
 The archive entry for this job was punched.


 WHEN ALL ELSE FAILS, TRY THE BOSS'S SUGGESTION.
 Job cpu time:       0 days 16 hours 45 minutes  2.7 seconds.
 Elapsed time:       0 days  0 hours 15 minutes 40.4 seconds.
 File lengths (MBytes):  RWF=   1706 Int=      0 D2E=      0 Chk=    156 Scr=      1
 Normal termination of Gaussian 16 at Mon Nov 11 13:31:33 2024.
