 Entering Gaussian System, Link 0=g16
 Input=6hqn05re.com
 Output=6hqn05re.log
 Initial command:
 /sw/chem/gaussian/g16_C02/a100/g16/l1.exe "/local/becsleip_8076614/Gau-1608546.inp" -scrdir="/local/becsleip_8076614/"
 Entering Link 1 = /sw/chem/gaussian/g16_C02/a100/g16/l1.exe PID=   1608547.
  
 Copyright (c) 1988-2021, Gaussian, Inc.  All Rights Reserved.
  
 This is part of the Gaussian(R) 16 program.  It is based on
 the Gaussian(R) 09 system (copyright 2009, Gaussian, Inc.),
 the Gaussian(R) 03 system (copyright 2003, Gaussian, Inc.),
 the Gaussian(R) 98 system (copyright 1998, Gaussian, Inc.),
 the Gaussian(R) 94 system (copyright 1995, Gaussian, Inc.),
 the Gaussian 92(TM) system (copyright 1992, Gaussian, Inc.),
 the Gaussian 90(TM) system (copyright 1990, Gaussian, Inc.),
 the Gaussian 88(TM) system (copyright 1988, Gaussian, Inc.),
 the Gaussian 86(TM) system (copyright 1986, Carnegie Mellon
 University), and the Gaussian 82(TM) system (copyright 1983,
 Carnegie Mellon University). Gaussian is a federally registered
 trademark of Gaussian, Inc.
  
 This software contains proprietary and confidential information,
 including trade secrets, belonging to Gaussian, Inc.
  
 This software is provided under written license and may be
 used, copied, transmitted, or stored only in accord with that
 written license.
  
 The following legend is applicable only to US Government
 contracts under FAR:
  
                    RESTRICTED RIGHTS LEGEND
  
 Use, reproduction and disclosure by the US Government is
 subject to restrictions as set forth in subparagraphs (a)
 and (c) of the Commercial Computer Software - Restricted
 Rights clause in FAR 52.227-19.
  
 Gaussian, Inc.
 340 Quinnipiac St., Bldg. 40, Wallingford CT 06492
  
  
 ---------------------------------------------------------------
 Warning -- This program may not be used in any manner that
 competes with the business of Gaussian, Inc. or will provide
 assistance to any competitor of Gaussian, Inc.  The licensee
 of this program is prohibited from giving any competitor of
 Gaussian, Inc. access to this program.  By using this program,
 the user acknowledges that Gaussian, Inc. is engaged in the
 business of creating and licensing software in the field of
 computational chemistry and represents and warrants to the
 licensee that it is not a competitor of Gaussian, Inc. and that
 it will not use this program in any manner prohibited above.
 ---------------------------------------------------------------
  

 Cite this work as:
 Gaussian 16, Revision C.02,
 M. J. Frisch, G. W. Trucks, H. B. Schlegel, G. E. Scuseria, 
 M. A. Robb, J. R. Cheeseman, G. Scalmani, V. Barone, 
 G. A. Petersson, H. Nakatsuji, X. Li, M. Caricato, A. V. Marenich, 
 J. Bloino, B. G. Janesko, R. Gomperts, B. Mennucci, H. P. Hratchian, 
 J. V. Ortiz, A. F. Izmaylov, J. L. Sonnenberg, D. Williams-Young, 
 F. Ding, F. Lipparini, F. Egidi, J. Goings, B. Peng, A. Petrone, 
 T. Henderson, D. Ranasinghe, V. G. Zakrzewski, J. Gao, N. Rega, 
 G. Zheng, W. Liang, M. Hada, M. Ehara, K. Toyota, R. Fukuda, 
 J. Hasegawa, M. Ishida, T. Nakajima, Y. Honda, O. Kitao, H. Nakai, 
 T. Vreven, K. Throssell, J. A. Montgomery, Jr., J. E. Peralta, 
 F. Ogliaro, M. J. Bearpark, J. J. Heyd, E. N. Brothers, K. N. Kudin, 
 V. N. Staroverov, T. A. Keith, R. Kobayashi, J. Normand, 
 K. Raghavachari, A. P. Rendell, J. C. Burant, S. S. Iyengar, 
 J. Tomasi, M. Cossi, J. M. Millam, M. Klene, C. Adamo, R. Cammi, 
 J. W. Ochterski, R. L. Martin, K. Morokuma, O. Farkas, 
 J. B. Foresman, and D. J. Fox, Gaussian, Inc., Wallingford CT, 2019.
 
 ******************************************
 Gaussian 16:  ES64L-G16RevC.02  7-Dec-2021
                11-Nov-2024 
 ******************************************
 %mem=16GB
 %CPU=0-71
 SetSPE:  set environment variable "OMP_PROC_BIND" = "true"
 SetSPE:  set environment variable "OMP_PLACES" = "{0},{1},{2},{3},{4},{5},{6},{7},{8},{9},{10},{11},{12},{13},{14},{15},{16},{17},{18},{19},{20},{21},{22},{23},{24},{25},{26},{27},{28},{29},{30},{31},{32},{33},{34},{35},{36},{37},{38},{39},{40},{41},{42},{43},{44},{45},{46},{47},{48},{49},{50},{51},{52},{53},{54},{55},{56},{57},{58},{59},{60},{61},{62},{63},{64},{65},{66},{67},{68},{69},{70},{71}"
 Will use up to   72 processors via shared memory.
 %gpucpu=0,1,2,3=0,1,2,3
 Will use    4 GPUs:
 Thread  CPU   GPU
      0    0     0
      1    1     1
      2    2     2
      3    3     3
      4    4    -1
      5    5    -1
      6    6    -1
      7    7    -1
      8    8    -1
      9    9    -1
     10   10    -1
     11   11    -1
     12   12    -1
     13   13    -1
     14   14    -1
     15   15    -1
     16   16    -1
     17   17    -1
     18   18    -1
     19   19    -1
     20   20    -1
     21   21    -1
     22   22    -1
     23   23    -1
     24   24    -1
     25   25    -1
     26   26    -1
     27   27    -1
     28   28    -1
     29   29    -1
     30   30    -1
     31   31    -1
     32   32    -1
     33   33    -1
     34   34    -1
     35   35    -1
     36   36    -1
     37   37    -1
     38   38    -1
     39   39    -1
     40   40    -1
     41   41    -1
     42   42    -1
     43   43    -1
     44   44    -1
     45   45    -1
     46   46    -1
     47   47    -1
     48   48    -1
     49   49    -1
     50   50    -1
     51   51    -1
     52   52    -1
     53   53    -1
     54   54    -1
     55   55    -1
     56   56    -1
     57   57    -1
     58   58    -1
     59   59    -1
     60   60    -1
     61   61    -1
     62   62    -1
     63   63    -1
     64   64    -1
     65   65    -1
     66   66    -1
     67   67    -1
     68   68    -1
     69   69    -1
     70   70    -1
     71   71    -1
 SetGPE:  set environment variable "OMP_PROC_BIND" = "true"
 SetGPE:  set environment variable "OMP_PLACES" = "{0},{1},{2},{3},{4},{5},{6},{7},{8},{9},{10},{11},{12},{13},{14},{15},{16},{17},{18},{19},{20},{21},{22},{23},{24},{25},{26},{27},{28},{29},{30},{31},{32},{33},{34},{35},{36},{37},{38},{39},{40},{41},{42},{43},{44},{45},{46},{47},{48},{49},{50},{51},{52},{53},{54},{55},{56},{57},{58},{59},{60},{61},{62},{63},{64},{65},{66},{67},{68},{69},{70},{71}"
 %oldchk=6hqn_II_S.chk
 %chk=6hqn_II_Sre.chk
 Properties for Device   0
 Minimum vector length:                              32
 Maximum vector length:                            1024
 Number of SMPs:                                    108
 Maximum number of threads per SMP:                2048
 Number of ASync Engines:                             5
 Memory:                                           9207742464
 Properties for Device   1
 Minimum vector length:                              32
 Maximum vector length:                            1024
 Number of SMPs:                                    108
 Maximum number of threads per SMP:                2048
 Number of ASync Engines:                             5
 Memory:                                           9207742464
 Properties for Device   2
 Minimum vector length:                              32
 Maximum vector length:                            1024
 Number of SMPs:                                    108
 Maximum number of threads per SMP:                2048
 Number of ASync Engines:                             5
 Memory:                                           9207742464
 Properties for Device   3
 Minimum vector length:                              32
 Maximum vector length:                            1024
 Number of SMPs:                                    108
 Maximum number of threads per SMP:                2048
 Number of ASync Engines:                             5
 Memory:                                           9207742464
   8286968217 words of memory will be used on each GPU.
 Copying data from "6hqn_II_S.chk" to current chk file "6hqn_II_Sre.chk"
 IOpt=  2 FromEx=T IUOpen= 4 IOptOp= 5 NList=   0 IFRang= 0 IUIn= 4 IUOut= 2.
 --------------------------------------
 # apfd/gen scf=maxcycle=999 geom=check
 --------------------------------------
 1/29=2,38=1,172=1/1;
 2/12=2,40=1/2;
 3/5=7,11=2,14=-4,25=1,30=1,74=-44/1,2,3;
 4//1;
 5/5=2,7=999,38=5/2;
 6/7=2,8=2,9=2,10=2,28=1/1;
 99/5=1,9=1/99;
 ---------
 6hqn_II_Q
 ---------
 Structure from the checkpoint file:  "6hqn_II_Sre.chk"
 Charge =  0 Multiplicity = 5
 Z-Matrix found in chk file.
 Fe,0,41.670025009,82.8906674369,42.3470654312
 N,0,42.4692765418,83.7948570742,40.7403304573
 N,0,43.4851738388,82.9291925051,43.2222527153
 N,0,41.108172034,81.5183043416,43.6885702947
 N,0,40.0817288874,82.4164328846,41.2156030258
 C,0,41.8967216673,84.0012485456,39.5202944665
 C,0,42.766356459,84.7702315319,38.6611063911
 C,0,43.8579124078,85.0858655795,39.408280713
 C,0,43.6608620945,84.4602137501,40.6961210934
 C,0,44.5190653634,83.753881388,42.879643611
 C,0,45.540535092,83.7563207626,43.8928578796
 C,0,45.0972534374,82.9238369235,44.8861816132
 C,0,43.8120074352,82.4244993391,44.4446438963
 C,0,41.7934982456,81.0838987113,44.7855603365
 C,0,40.98653332,80.2014918355,45.5876537198
 C,0,39.7755623473,80.1105281717,44.9568310071
 C,0,39.8817992111,80.9335110079,43.7682513978
 C,0,38.9780762928,81.7409408784,41.6397037126
 C,0,37.9442369925,81.7540089354,40.629064865
 C,0,38.4562695281,82.4348546245,39.5691734134
 C,0,39.7855428542,82.8479741382,39.9579437108
 C,0,40.638565371,83.569126009,39.1470030024
 H,0,40.2955985601,83.8215457791,38.1557832017
 C,0,44.6063538716,84.471206724,41.7005678685
 H,0,45.4923643413,85.0660506793,41.5424062832
 C,0,43.0613344573,81.500931036,45.1443233928
 H,0,43.461848322,81.1303348252,46.0747882564
 C,0,38.8650758315,81.0768833131,42.8445789006
 H,0,37.926642311,80.5880284237,43.0546158797
 C,0,45.0659079851,85.8714078632,39.0307345997
 H,0,45.2287927581,86.6884603228,39.7334077507
 H,0,44.9549516393,86.2934797102,38.035359324
 H,0,45.9525451337,85.2372344797,39.0374101087
 C,0,42.450008089,85.1288563934,37.2506333586
 H,0,41.5733455095,85.7757830564,37.2054310973
 H,0,42.2397042314,84.232708603,36.6680811929
 H,0,43.2843879279,85.6496001259,36.7882259531
 C,0,46.837386007,84.4805501194,43.8005774302
 H,0,46.7168232372,85.5319300181,44.0670596046
 H,0,47.2340230678,84.4324741906,42.7876315817
 H,0,47.5616303889,84.0347559588,44.4788714064
 C,0,45.743372993,82.5581560238,46.1278881799
 H,0,45.5705097978,81.5434668629,46.4663509186
 C,0,46.5046775737,83.3621143027,46.862098838
 H,0,46.6718731252,84.3921855345,46.5990533638
 H,0,46.9679506343,83.0211826222,47.7728101774
 C,0,41.4548094674,79.4927247281,46.8092269793
 H,0,41.4076530946,80.1487243432,47.6798551827
 H,0,42.4854034444,79.1618644999,46.6903363802
 H,0,40.8287470676,78.6234306316,46.9991439928
 C,0,38.6088093656,79.3393487469,45.3273719994
 H,0,38.0314717898,78.9365238055,44.5036087582
 C,0,38.2093941272,79.1047066259,46.5725829754
 H,0,38.7185419383,79.5198175649,47.4247847205
 H,0,37.3364629969,78.5089469775,46.7811531622
 C,0,36.6140724169,81.1019133209,40.7806820203
 H,0,36.0981922785,81.4858772124,41.6605657195
 H,0,36.7281292827,80.0240085873,40.8979805935
 H,0,35.9915078412,81.2867313285,39.9088849187
 C,0,37.8384350854,82.7339522945,38.2472297604
 H,0,36.83539384,82.3196423021,38.1875169928
 H,0,38.4347978467,82.3053644323,37.4417314862
 H,0,37.7762538369,83.8105121525,38.0864033299
 C,0,40.6550494915,86.0928391943,42.1856938515
 H,0,41.5835436762,86.2044653055,41.6366453446
 H,0,40.39055058,87.0098062992,42.7033147605
 H,0,39.8597637366,85.7993648045,41.5082514779
 S,0,40.8188346088,84.7385670404,43.4096128024
 H,0,41.8978999631,85.2656544597,44.0085973688
 Recover connectivity data from disk.
 Stoichiometry    C31H32FeN4S(5)
 Framework group  C1[X(C31H32FeN4S)]
 Deg. of freedom   201
 Full point group                 C1      NOp   1
 Largest Abelian subgroup         C1      NOp   1
 Largest concise Abelian subgroup C1      NOp   1
                         Standard orientation:                         
 ---------------------------------------------------------------------
 Center     Atomic      Atomic             Coordinates (Angstroms)
 Number     Number       Type             X           Y           Z
 ---------------------------------------------------------------------
      1         26           0       -0.138436   -0.073920    0.009133
      2          7           0       -2.049864    0.465753   -0.296083
      3          7           0        0.412245    1.836415   -0.321885
      4          7           0        1.764755   -0.618497   -0.273698
      5          7           0       -0.705396   -1.986172   -0.213665
      6          6           0       -3.140410   -0.341698   -0.428892
      7          6           0       -4.352043    0.435681   -0.544780
      8          6           0       -3.983039    1.737951   -0.413182
      9          6           0       -2.544779    1.738137   -0.271029
     10          6           0       -0.403664    2.928730   -0.234908
     11          6           0        0.359877    4.147891   -0.209206
     12          6           0        1.677286    3.776357   -0.260361
     13          6           0        1.681921    2.330053   -0.326199
     14          6           0        2.856788    0.185748   -0.423441
     15          6           0        4.072032   -0.586080   -0.449004
     16          6           0        3.698197   -1.894125   -0.300927
     17          6           0        2.251835   -1.887467   -0.204487
     18          6           0        0.109984   -3.072453   -0.116983
     19          6           0       -0.658140   -4.297329   -0.124072
     20          6           0       -1.960950   -3.929194   -0.251599
     21          6           0       -1.970475   -2.484644   -0.295895
     22          6           0       -3.114792   -1.723122   -0.422206
     23          1           0       -4.056185   -2.242269   -0.512345
     24          6           0       -1.785768    2.888488   -0.211161
     25          1           0       -2.312016    3.829226   -0.167075
     26          6           0        2.825613    1.567130   -0.452523
     27          1           0        3.770436    2.084668   -0.507139
     28          6           0        1.489169   -3.031737   -0.076268
     29          1           0        2.010192   -3.972520    0.008664
     30          6           0       -4.825413    2.966087   -0.444179
     31          1           0       -4.662443    3.567247    0.450194
     32          1           0       -5.879995    2.708283   -0.495382
     33          1           0       -4.579293    3.577397   -1.312551
     34          6           0       -5.707912   -0.147506   -0.743869
     35          1           0       -5.994386   -0.756953    0.113803
     36          1           0       -5.723262   -0.781357   -1.629686
     37          1           0       -6.450353    0.635979   -0.870820
     38          6           0       -0.216446    5.519982   -0.201150
     39          1           0       -0.518311    5.810347    0.806577
     40          1           0       -1.093293    5.573093   -0.844587
     41          1           0        0.520864    6.235384   -0.558809
     42          6           0        2.861098    4.607848   -0.275801
     43          1           0        3.687988    4.236926   -0.869689
     44          6           0        2.999866    5.756836    0.376556
     45          1           0        2.229886    6.149073    1.018019
     46          1           0        3.906538    6.334716    0.311342
     47          6           0        5.432280   -0.027071   -0.675075
     48          1           0        5.841489    0.382511    0.249773
     49          1           0        5.401522    0.771789   -1.414402
     50          1           0        6.101598   -0.807185   -1.031627
     51          6           0        4.523231   -3.082461   -0.278394
     52          1           0        4.084112   -3.967188   -0.724046
     53          6           0        5.743658   -3.158003    0.241213
     54          1           0        6.207283   -2.323156    0.737075
     55          1           0        6.312073   -4.072635    0.213046
     56          6           0       -0.065122   -5.660381   -0.034796
     57          1           0        0.537135   -5.756817    0.868388
     58          1           0        0.578074   -5.854212   -0.893502
     59          1           0       -0.842969   -6.419475   -0.012307
     60          6           0       -3.181637   -4.778601   -0.336112
     61          1           0       -2.922588   -5.832813   -0.282800
     62          1           0       -3.705332   -4.601441   -1.275538
     63          1           0       -3.866249   -4.550675    0.481243
     64          6           0       -1.824440   -0.057448    2.918985
     65          1           0       -2.439446    0.660773    2.388002
     66          1           0       -1.829261    0.133447    3.987749
     67          1           0       -2.174034   -1.064104    2.714139
     68         16           0       -0.100862    0.027800    2.301841
     69          1           0        0.034331    1.340989    2.543174
 ---------------------------------------------------------------------
 Rotational constants (GHZ):           0.1101170           0.1093901           0.0597464
 General basis read from cards:  (5D, 7F)
 There are   644 symmetry adapted cartesian basis functions of A   symmetry.
 There are   605 symmetry adapted basis functions of A   symmetry.
   605 basis functions,  1246 primitive gaussians,   644 cartesian basis functions
   146 alpha electrons      142 beta electrons
       nuclear repulsion energy      5027.2345641905 Hartrees.
 NAtoms=   69 NActive=   69 NUniq=   69 SFac= 1.00D+00 NAtFMM=   60 NAOKFM=T Big=T
 Integral buffers will be    131072 words long.
 Raffenetti 2 integral format.
 Two-electron integral symmetry is turned on.
 R6APFD:  NTU= -4 IXU= 1 FactS= 1.050
 Nuclear repulsion after empirical dispersion term =     5027.1053831990 Hartrees.
 One-electron integrals computed using PRISM.
 NBasis=   605 RedAO= T EigKep=  2.56D-04  NBF=   605
 NBsUse=   605 1.00D-06 EigRej= -1.00D+00 NBFU=   605
 ExpMin= 4.20D-02 ExpMax= 3.01D+05 ExpMxC= 3.30D+03 IAcc=3 IRadAn=         5 AccDes= 0.00D+00
 Harris functional with IExCor= 3731 and IRadAn=       5 diagonalized for initial guess.
 HarFok:  IExCor= 3731 AccDes= 0.00D+00 IRadAn=         5 IDoV= 1 UseB2=F ITyADJ=14
 ICtDFT=  3500011 ScaDFX=  1.000000  1.000000  1.000000  1.000000
 FoFCou: FMM=F IPFlag=           0 FMFlag=      100000 FMFlg1=        2001
         NFxFlg=           0 DoJE=T BraDBF=F KetDBF=T FulRan=T
         wScrn=  0.000000 ICntrl=       500 IOpCl=  0 I1Cent=   200000004 NGrid=           0
         NMat0=    1 NMatS0=      1 NMatT0=    0 NMatD0=    1 NMtDS0=    0 NMtDT0=    0
 Petite list used in FoFCou.
 Initial guess <Sx>= 0.0000 <Sy>= 0.0000 <Sz>= 2.0000 <S**2>= 6.0000 S= 2.0000
 Requested convergence on RMS density matrix=1.00D-08 within 999 cycles.
 Requested convergence on MAX density matrix=1.00D-06.
 Requested convergence on             energy=1.00D-06.
 No special actions if energy rises.
 EnCoef did   100 forward-backward iterations
 EnCoef did   100 forward-backward iterations
 EnCoef did   100 forward-backward iterations
 EnCoef did   100 forward-backward iterations
 EnCoef did     4 forward-backward iterations
 Restarting incremental Fock formation.
 Rare condition: small coef for last iteration:  0.000D+00
 Rare condition: small coef for last iteration:  0.000D+00
 Rare condition: small coef for last iteration:  0.000D+00
 Rare condition: small coef for last iteration:  0.000D+00
 Rare condition: small coef for last iteration:  0.000D+00
 Rare condition: small coef for last iteration:  0.000D+00
 Restarting incremental Fock formation.
 SCF Done:  E(UAPFD) =  -3080.24042253     A.U. after   54 cycles
            NFock= 54  Conv=0.44D-08     -V/T= 2.0030
 <Sx>= 0.0000 <Sy>= 0.0000 <Sz>= 2.0000 <S**2>= 6.0587 S= 2.0117
 <L.S>=  0.00000000000    
 Annihilation of the first spin contaminant:
 S**2 before annihilation     6.0587,   after     6.0003

 **********************************************************************

            Population analysis using the SCF Density.

 **********************************************************************

 Orbital symmetries:
 Alpha Orbitals:
       Occupied  (A) (A) (A) (A) (A) (A) (A) (A) (A) (A) (A) (A)
                 (A) (A) (A) (A) (A) (A) (A) (A) (A) (A) (A) (A)
                 (A) (A) (A) (A) (A) (A) (A) (A) (A) (A) (A) (A)
                 (A) (A) (A) (A) (A) (A) (A) (A) (A) (A) (A) (A)
                 (A) (A) (A) (A) (A) (A) (A) (A) (A) (A) (A) (A)
                 (A) (A) (A) (A) (A) (A) (A) (A) (A) (A) (A) (A)
                 (A) (A) (A) (A) (A) (A) (A) (A) (A) (A) (A) (A)
                 (A) (A) (A) (A) (A) (A) (A) (A) (A) (A) (A) (A)
                 (A) (A) (A) (A) (A) (A) (A) (A) (A) (A) (A) (A)
                 (A) (A) (A) (A) (A) (A) (A) (A) (A) (A) (A) (A)
                 (A) (A) (A) (A) (A) (A) (A) (A) (A) (A) (A) (A)
                 (A) (A) (A) (A) (A) (A) (A) (A) (A) (A) (A) (A)
                 (A) (A)
       Virtual   (A) (A) (A) (A) (A) (A) (A) (A) (A) (A) (A) (A)
                 (A) (A) (A) (A) (A) (A) (A) (A) (A) (A) (A) (A)
                 (A) (A) (A) (A) (A) (A) (A) (A) (A) (A) (A) (A)
                 (A) (A) (A) (A) (A) (A) (A) (A) (A) (A) (A) (A)
                 (A) (A) (A) (A) (A) (A) (A) (A) (A) (A) (A) (A)
                 (A) (A) (A) (A) (A) (A) (A) (A) (A) (A) (A) (A)
                 (A) (A) (A) (A) (A) (A) (A) (A) (A) (A) (A) (A)
                 (A) (A) (A) (A) (A) (A) (A) (A) (A) (A) (A) (A)
                 (A) (A) (A) (A) (A) (A) (A) (A) (A) (A) (A) (A)
                 (A) (A) (A) (A) (A) (A) (A) (A) (A) (A) (A) (A)
                 (A) (A) (A) (A) (A) (A) (A) (A) (A) (A) (A) (A)
                 (A) (A) (A) (A) (A) (A) (A) (A) (A) (A) (A) (A)
                 (A) (A) (A) (A) (A) (A) (A) (A) (A) (A) (A) (A)
                 (A) (A) (A) (A) (A) (A) (A) (A) (A) (A) (A) (A)
                 (A) (A) (A) (A) (A) (A) (A) (A) (A) (A) (A) (A)
                 (A) (A) (A) (A) (A) (A) (A) (A) (A) (A) (A) (A)
                 (A) (A) (A) (A) (A) (A) (A) (A) (A) (A) (A) (A)
                 (A) (A) (A) (A) (A) (A) (A) (A) (A) (A) (A) (A)
                 (A) (A) (A) (A) (A) (A) (A) (A) (A) (A) (A) (A)
                 (A) (A) (A) (A) (A) (A) (A) (A) (A) (A) (A) (A)
                 (A) (A) (A) (A) (A) (A) (A) (A) (A) (A) (A) (A)
                 (A) (A) (A) (A) (A) (A) (A) (A) (A) (A) (A) (A)
                 (A) (A) (A) (A) (A) (A) (A) (A) (A) (A) (A) (A)
                 (A) (A) (A) (A) (A) (A) (A) (A) (A) (A) (A) (A)
                 (A) (A) (A) (A) (A) (A) (A) (A) (A) (A) (A) (A)
                 (A) (A) (A) (A) (A) (A) (A) (A) (A) (A) (A) (A)
                 (A) (A) (A) (A) (A) (A) (A) (A) (A) (A) (A) (A)
                 (A) (A) (A) (A) (A) (A) (A) (A) (A) (A) (A) (A)
                 (A) (A) (A) (A) (A) (A) (A) (A) (A) (A) (A) (A)
                 (A) (A) (A) (A) (A) (A) (A) (A) (A) (A) (A) (A)
                 (A) (A) (A) (A) (A) (A) (A) (A) (A) (A) (A) (A)
                 (A) (A) (A) (A) (A) (A) (A) (A) (A) (A) (A) (A)
                 (A) (A) (A) (A) (A) (A) (A) (A) (A) (A) (A) (A)
                 (A) (A) (A) (A) (A) (A) (A) (A) (A) (A) (A) (A)
                 (A) (A) (A) (A) (A) (A) (A) (A) (A) (A) (A) (A)
                 (A) (A) (A) (A) (A) (A) (A) (A) (A) (A) (A) (A)
                 (A) (A) (A) (A) (A) (A) (A) (A) (A) (A) (A) (A)
                 (A) (A) (A) (A) (A) (A) (A) (A) (A) (A) (A) (A)
                 (A) (A) (A)
 Beta  Orbitals:
       Occupied  (A) (A) (A) (A) (A) (A) (A) (A) (A) (A) (A) (A)
                 (A) (A) (A) (A) (A) (A) (A) (A) (A) (A) (A) (A)
                 (A) (A) (A) (A) (A) (A) (A) (A) (A) (A) (A) (A)
                 (A) (A) (A) (A) (A) (A) (A) (A) (A) (A) (A) (A)
                 (A) (A) (A) (A) (A) (A) (A) (A) (A) (A) (A) (A)
                 (A) (A) (A) (A) (A) (A) (A) (A) (A) (A) (A) (A)
                 (A) (A) (A) (A) (A) (A) (A) (A) (A) (A) (A) (A)
                 (A) (A) (A) (A) (A) (A) (A) (A) (A) (A) (A) (A)
                 (A) (A) (A) (A) (A) (A) (A) (A) (A) (A) (A) (A)
                 (A) (A) (A) (A) (A) (A) (A) (A) (A) (A) (A) (A)
                 (A) (A) (A) (A) (A) (A) (A) (A) (A) (A) (A) (A)
                 (A) (A) (A) (A) (A) (A) (A) (A) (A) (A)
       Virtual   (A) (A) (A) (A) (A) (A) (A) (A) (A) (A) (A) (A)
                 (A) (A) (A) (A) (A) (A) (A) (A) (A) (A) (A) (A)
                 (A) (A) (A) (A) (A) (A) (A) (A) (A) (A) (A) (A)
                 (A) (A) (A) (A) (A) (A) (A) (A) (A) (A) (A) (A)
                 (A) (A) (A) (A) (A) (A) (A) (A) (A) (A) (A) (A)
                 (A) (A) (A) (A) (A) (A) (A) (A) (A) (A) (A) (A)
                 (A) (A) (A) (A) (A) (A) (A) (A) (A) (A) (A) (A)
                 (A) (A) (A) (A) (A) (A) (A) (A) (A) (A) (A) (A)
                 (A) (A) (A) (A) (A) (A) (A) (A) (A) (A) (A) (A)
                 (A) (A) (A) (A) (A) (A) (A) (A) (A) (A) (A) (A)
                 (A) (A) (A) (A) (A) (A) (A) (A) (A) (A) (A) (A)
                 (A) (A) (A) (A) (A) (A) (A) (A) (A) (A) (A) (A)
                 (A) (A) (A) (A) (A) (A) (A) (A) (A) (A) (A) (A)
                 (A) (A) (A) (A) (A) (A) (A) (A) (A) (A) (A) (A)
                 (A) (A) (A) (A) (A) (A) (A) (A) (A) (A) (A) (A)
                 (A) (A) (A) (A) (A) (A) (A) (A) (A) (A) (A) (A)
                 (A) (A) (A) (A) (A) (A) (A) (A) (A) (A) (A) (A)
                 (A) (A) (A) (A) (A) (A) (A) (A) (A) (A) (A) (A)
                 (A) (A) (A) (A) (A) (A) (A) (A) (A) (A) (A) (A)
                 (A) (A) (A) (A) (A) (A) (A) (A) (A) (A) (A) (A)
                 (A) (A) (A) (A) (A) (A) (A) (A) (A) (A) (A) (A)
                 (A) (A) (A) (A) (A) (A) (A) (A) (A) (A) (A) (A)
                 (A) (A) (A) (A) (A) (A) (A) (A) (A) (A) (A) (A)
                 (A) (A) (A) (A) (A) (A) (A) (A) (A) (A) (A) (A)
                 (A) (A) (A) (A) (A) (A) (A) (A) (A) (A) (A) (A)
                 (A) (A) (A) (A) (A) (A) (A) (A) (A) (A) (A) (A)
                 (A) (A) (A) (A) (A) (A) (A) (A) (A) (A) (A) (A)
                 (A) (A) (A) (A) (A) (A) (A) (A) (A) (A) (A) (A)
                 (A) (A) (A) (A) (A) (A) (A) (A) (A) (A) (A) (A)
                 (A) (A) (A) (A) (A) (A) (A) (A) (A) (A) (A) (A)
                 (A) (A) (A) (A) (A) (A) (A) (A) (A) (A) (A) (A)
                 (A) (A) (A) (A) (A) (A) (A) (A) (A) (A) (A) (A)
                 (A) (A) (A) (A) (A) (A) (A) (A) (A) (A) (A) (A)
                 (A) (A) (A) (A) (A) (A) (A) (A) (A) (A) (A) (A)
                 (A) (A) (A) (A) (A) (A) (A) (A) (A) (A) (A) (A)
                 (A) (A) (A) (A) (A) (A) (A) (A) (A) (A) (A) (A)
                 (A) (A) (A) (A) (A) (A) (A) (A) (A) (A) (A) (A)
                 (A) (A) (A) (A) (A) (A) (A) (A) (A) (A) (A) (A)
                 (A) (A) (A) (A) (A) (A) (A)
 The electronic state is 5-A.
 Alpha  occ. eigenvalues -- -256.19465 -88.95979 -30.08652 -25.93386 -25.91301
 Alpha  occ. eigenvalues --  -25.90766 -14.34687 -14.34687 -14.34664 -14.34564
 Alpha  occ. eigenvalues --  -10.22909 -10.22462 -10.22432 -10.22341 -10.22319
 Alpha  occ. eigenvalues --  -10.22173 -10.22098 -10.22083 -10.21870 -10.20478
 Alpha  occ. eigenvalues --  -10.20404 -10.20170 -10.20066 -10.19927 -10.19856
 Alpha  occ. eigenvalues --  -10.19841 -10.19682 -10.19648 -10.19647 -10.19639
 Alpha  occ. eigenvalues --  -10.19581 -10.19564 -10.19546 -10.19518 -10.19431
 Alpha  occ. eigenvalues --  -10.19426 -10.19357 -10.19199 -10.19093 -10.19089
 Alpha  occ. eigenvalues --  -10.18961  -7.99312  -5.93902  -5.93614  -5.93039
 Alpha  occ. eigenvalues --   -3.54265  -2.34404  -2.29802  -2.28878  -0.97527
 Alpha  occ. eigenvalues --   -0.96557  -0.96503  -0.95538  -0.82738  -0.82216
 Alpha  occ. eigenvalues --   -0.81894  -0.81391  -0.81012  -0.80923  -0.80051
 Alpha  occ. eigenvalues --   -0.80030  -0.77075  -0.75969  -0.74713  -0.74430
 Alpha  occ. eigenvalues --   -0.73628  -0.71378  -0.70517  -0.68852  -0.68461
 Alpha  occ. eigenvalues --   -0.68261  -0.67231  -0.64519  -0.64511  -0.60946
 Alpha  occ. eigenvalues --   -0.60329  -0.58184  -0.57151  -0.54932  -0.54071
 Alpha  occ. eigenvalues --   -0.53669  -0.53126  -0.51481  -0.51380  -0.50906
 Alpha  occ. eigenvalues --   -0.49329  -0.48225  -0.47963  -0.47331  -0.45913
 Alpha  occ. eigenvalues --   -0.45461  -0.45003  -0.44903  -0.44423  -0.44058
 Alpha  occ. eigenvalues --   -0.43977  -0.43796  -0.43574  -0.43386  -0.43062
 Alpha  occ. eigenvalues --   -0.42612  -0.42018  -0.41898  -0.41672  -0.41307
 Alpha  occ. eigenvalues --   -0.41040  -0.40682  -0.40534  -0.40187  -0.39968
 Alpha  occ. eigenvalues --   -0.39823  -0.39398  -0.39285  -0.38989  -0.38870
 Alpha  occ. eigenvalues --   -0.38543  -0.38491  -0.38063  -0.37481  -0.37138
 Alpha  occ. eigenvalues --   -0.36937  -0.36542  -0.36139  -0.35057  -0.34854
 Alpha  occ. eigenvalues --   -0.34264  -0.33987  -0.33527  -0.32326  -0.31896
 Alpha  occ. eigenvalues --   -0.31884  -0.31393  -0.29786  -0.29584  -0.29065
 Alpha  occ. eigenvalues --   -0.28008  -0.26597  -0.26516  -0.24987  -0.22760
 Alpha  occ. eigenvalues --   -0.22002  -0.21758  -0.21309  -0.17975  -0.17866
 Alpha  occ. eigenvalues --   -0.17070
 Alpha virt. eigenvalues --   -0.06713  -0.06528  -0.01576   0.01431   0.02251
 Alpha virt. eigenvalues --    0.03138   0.05889   0.06319   0.08255   0.09108
 Alpha virt. eigenvalues --    0.09565   0.10327   0.10577   0.10975   0.11522
 Alpha virt. eigenvalues --    0.11861   0.12643   0.12910   0.13672   0.13805
 Alpha virt. eigenvalues --    0.14495   0.14980   0.15172   0.15329   0.15531
 Alpha virt. eigenvalues --    0.15827   0.16064   0.16273   0.16595   0.17157
 Alpha virt. eigenvalues --    0.17359   0.17431   0.17658   0.17799   0.18483
 Alpha virt. eigenvalues --    0.18568   0.18806   0.19112   0.19321   0.20132
 Alpha virt. eigenvalues --    0.20712   0.20994   0.21157   0.21535   0.22250
 Alpha virt. eigenvalues --    0.22518   0.23056   0.23939   0.24380   0.24842
 Alpha virt. eigenvalues --    0.25391   0.25478   0.26142   0.26505   0.26710
 Alpha virt. eigenvalues --    0.27094   0.27310   0.27616   0.29517   0.29923
 Alpha virt. eigenvalues --    0.30658   0.31497   0.31949   0.32832   0.32996
 Alpha virt. eigenvalues --    0.33860   0.34654   0.35380   0.35636   0.36145
 Alpha virt. eigenvalues --    0.36304   0.36547   0.37957   0.38153   0.38830
 Alpha virt. eigenvalues --    0.39652   0.42256   0.43057   0.43145   0.44107
 Alpha virt. eigenvalues --    0.44807   0.45691   0.46055   0.46346   0.47153
 Alpha virt. eigenvalues --    0.48264   0.48384   0.48743   0.49912   0.50162
 Alpha virt. eigenvalues --    0.50619   0.51638   0.52633   0.52765   0.52926
 Alpha virt. eigenvalues --    0.53357   0.53511   0.54170   0.54474   0.54917
 Alpha virt. eigenvalues --    0.55466   0.55605   0.56216   0.56882   0.57569
 Alpha virt. eigenvalues --    0.58359   0.58444   0.58835   0.59497   0.59898
 Alpha virt. eigenvalues --    0.60640   0.60728   0.61049   0.61278   0.61758
 Alpha virt. eigenvalues --    0.62123   0.62707   0.62898   0.63196   0.64064
 Alpha virt. eigenvalues --    0.64442   0.64938   0.65132   0.65257   0.65728
 Alpha virt. eigenvalues --    0.66285   0.66786   0.66978   0.67325   0.68002
 Alpha virt. eigenvalues --    0.68458   0.68693   0.69722   0.69896   0.70599
 Alpha virt. eigenvalues --    0.70995   0.71248   0.72173   0.72796   0.73143
 Alpha virt. eigenvalues --    0.73843   0.74268   0.75038   0.75390   0.76108
 Alpha virt. eigenvalues --    0.76358   0.76978   0.77294   0.77525   0.77785
 Alpha virt. eigenvalues --    0.78237   0.78625   0.78868   0.79402   0.79612
 Alpha virt. eigenvalues --    0.80155   0.80265   0.80786   0.81448   0.81700
 Alpha virt. eigenvalues --    0.82450   0.83170   0.83601   0.83972   0.84223
 Alpha virt. eigenvalues --    0.86092   0.86592   0.86712   0.86971   0.87351
 Alpha virt. eigenvalues --    0.87656   0.87865   0.88122   0.88499   0.89196
 Alpha virt. eigenvalues --    0.89352   0.89661   0.90441   0.90976   0.91276
 Alpha virt. eigenvalues --    0.91851   0.92028   0.92463   0.92651   0.93155
 Alpha virt. eigenvalues --    0.93706   0.93820   0.94302   0.94633   0.94888
 Alpha virt. eigenvalues --    0.95626   0.96341   0.96674   0.96920   0.97597
 Alpha virt. eigenvalues --    0.97713   0.98444   0.99112   0.99735   0.99969
 Alpha virt. eigenvalues --    1.00105   1.00278   1.00613   1.00834   1.02047
 Alpha virt. eigenvalues --    1.02643   1.02888   1.03819   1.04530   1.04728
 Alpha virt. eigenvalues --    1.05368   1.05984   1.06528   1.07116   1.07712
 Alpha virt. eigenvalues --    1.07919   1.09260   1.09451   1.10401   1.11457
 Alpha virt. eigenvalues --    1.12537   1.14049   1.14640   1.16128   1.16917
 Alpha virt. eigenvalues --    1.16974   1.17589   1.17997   1.18694   1.19622
 Alpha virt. eigenvalues --    1.19922   1.21181   1.21321   1.21757   1.22113
 Alpha virt. eigenvalues --    1.23529   1.24596   1.25091   1.25455   1.26742
 Alpha virt. eigenvalues --    1.26924   1.27875   1.28362   1.28990   1.29477
 Alpha virt. eigenvalues --    1.29987   1.31012   1.31523   1.32940   1.34013
 Alpha virt. eigenvalues --    1.34888   1.34999   1.35822   1.37478   1.37926
 Alpha virt. eigenvalues --    1.38408   1.38627   1.39394   1.39446   1.40049
 Alpha virt. eigenvalues --    1.40708   1.41897   1.43276   1.44100   1.45116
 Alpha virt. eigenvalues --    1.45784   1.46725   1.47602   1.47977   1.50545
 Alpha virt. eigenvalues --    1.53091   1.54037   1.54186   1.54564   1.54817
 Alpha virt. eigenvalues --    1.55485   1.55806   1.56381   1.56967   1.59694
 Alpha virt. eigenvalues --    1.60066   1.60396   1.61132   1.62357   1.63360
 Alpha virt. eigenvalues --    1.64550   1.64861   1.65401   1.68598   1.69458
 Alpha virt. eigenvalues --    1.69594   1.70608   1.71323   1.72177   1.72750
 Alpha virt. eigenvalues --    1.75117   1.77381   1.78214   1.79201   1.79406
 Alpha virt. eigenvalues --    1.79795   1.80095   1.80949   1.81811   1.82201
 Alpha virt. eigenvalues --    1.82463   1.83137   1.83364   1.84223   1.84455
 Alpha virt. eigenvalues --    1.84612   1.86699   1.87531   1.88096   1.88239
 Alpha virt. eigenvalues --    1.88542   1.90349   1.91743   1.91983   1.92260
 Alpha virt. eigenvalues --    1.92447   1.92836   1.93508   1.94161   1.95122
 Alpha virt. eigenvalues --    1.95785   1.96152   1.97642   1.99699   1.99885
 Alpha virt. eigenvalues --    2.00150   2.00916   2.01284   2.01532   2.02297
 Alpha virt. eigenvalues --    2.03520   2.04058   2.04938   2.05557   2.06542
 Alpha virt. eigenvalues --    2.06653   2.07876   2.08713   2.10356   2.10983
 Alpha virt. eigenvalues --    2.12222   2.13135   2.14007   2.15185   2.15466
 Alpha virt. eigenvalues --    2.15978   2.16427   2.17335   2.18498   2.19636
 Alpha virt. eigenvalues --    2.20704   2.21766   2.21917   2.23026   2.23334
 Alpha virt. eigenvalues --    2.23836   2.24196   2.24688   2.25163   2.25903
 Alpha virt. eigenvalues --    2.26297   2.27006   2.27493   2.27662   2.27890
 Alpha virt. eigenvalues --    2.28919   2.29396   2.30143   2.30646   2.31464
 Alpha virt. eigenvalues --    2.31908   2.32566   2.33187   2.34595   2.35239
 Alpha virt. eigenvalues --    2.35697   2.36151   2.36472   2.36945   2.37643
 Alpha virt. eigenvalues --    2.38915   2.40099   2.40677   2.40919   2.42251
 Alpha virt. eigenvalues --    2.42968   2.43550   2.44454   2.44765   2.44925
 Alpha virt. eigenvalues --    2.45343   2.48990   2.49553   2.49870   2.52263
 Alpha virt. eigenvalues --    2.52625   2.53104   2.53454   2.54006   2.55575
 Alpha virt. eigenvalues --    2.55825   2.56487   2.57199   2.57835   2.60957
 Alpha virt. eigenvalues --    2.61135   2.63429   2.65882   2.66278   2.66985
 Alpha virt. eigenvalues --    2.68431   2.69396   2.70838   2.71729   2.72023
 Alpha virt. eigenvalues --    2.75816   2.77607   2.79909   2.80073   2.80970
 Alpha virt. eigenvalues --    2.81546   2.87410   2.88642   2.89176   2.91517
 Alpha virt. eigenvalues --    2.92072   2.92608   2.95646   2.97114   2.97617
 Alpha virt. eigenvalues --    2.98138   2.99504   2.99707   3.00986   3.05547
 Alpha virt. eigenvalues --    3.05795   3.12932   3.14414   3.20608   3.22799
 Alpha virt. eigenvalues --    3.23396   3.30054   3.30455   3.31654   3.39158
 Alpha virt. eigenvalues --    3.40338   3.40783   3.46316   3.46600   3.54047
 Alpha virt. eigenvalues --    3.58103   3.77435   3.96027   4.03152
  Beta  occ. eigenvalues -- -256.19331 -88.95926 -30.00658 -25.85711 -25.85120
  Beta  occ. eigenvalues --  -25.84589 -14.34507 -14.34501 -14.34486 -14.34372
  Beta  occ. eigenvalues --  -10.22932 -10.22435 -10.22403 -10.22315 -10.22287
  Beta  occ. eigenvalues --  -10.22204 -10.22120 -10.22106 -10.21908 -10.20468
  Beta  occ. eigenvalues --  -10.20413 -10.20134 -10.20035 -10.19950 -10.19869
  Beta  occ. eigenvalues --  -10.19809 -10.19669 -10.19663 -10.19639 -10.19609
  Beta  occ. eigenvalues --  -10.19602 -10.19561 -10.19559 -10.19524 -10.19428
  Beta  occ. eigenvalues --  -10.19405 -10.19357 -10.19200 -10.19102 -10.19079
  Beta  occ. eigenvalues --  -10.18957  -7.99251  -5.93861  -5.93553  -5.92921
  Beta  occ. eigenvalues --   -3.35080  -2.11056  -2.10632  -2.09967  -0.97318
  Beta  occ. eigenvalues --   -0.96353  -0.96302  -0.95323  -0.82720  -0.82145
  Beta  occ. eigenvalues --   -0.81829  -0.81287  -0.80855  -0.80843  -0.80023
  Beta  occ. eigenvalues --   -0.79991  -0.77055  -0.75938  -0.74687  -0.74398
  Beta  occ. eigenvalues --   -0.73618  -0.71326  -0.70447  -0.68757  -0.68357
  Beta  occ. eigenvalues --   -0.68222  -0.67091  -0.64517  -0.64453  -0.60888
  Beta  occ. eigenvalues --   -0.60268  -0.58139  -0.56949  -0.54877  -0.54000
  Beta  occ. eigenvalues --   -0.53600  -0.52887  -0.51363  -0.51270  -0.50804
  Beta  occ. eigenvalues --   -0.48969  -0.48154  -0.47629  -0.47145  -0.45744
  Beta  occ. eigenvalues --   -0.45153  -0.44912  -0.44619  -0.44334  -0.44009
  Beta  occ. eigenvalues --   -0.43815  -0.43728  -0.43475  -0.43339  -0.42951
  Beta  occ. eigenvalues --   -0.42576  -0.41959  -0.41895  -0.41672  -0.41154
  Beta  occ. eigenvalues --   -0.40537  -0.40454  -0.40394  -0.39974  -0.39867
  Beta  occ. eigenvalues --   -0.39414  -0.39148  -0.38859  -0.38612  -0.38256
  Beta  occ. eigenvalues --   -0.37950  -0.37342  -0.37246  -0.37034  -0.36550
  Beta  occ. eigenvalues --   -0.36164  -0.35616  -0.35053  -0.34684  -0.34273
  Beta  occ. eigenvalues --   -0.33950  -0.32021  -0.30949  -0.30847  -0.30357
  Beta  occ. eigenvalues --   -0.29579  -0.29213  -0.28300  -0.26792  -0.26670
  Beta  occ. eigenvalues --   -0.23989  -0.23142  -0.22753  -0.21887  -0.18729
  Beta  occ. eigenvalues --   -0.17970  -0.16192
  Beta virt. eigenvalues --   -0.07245  -0.06215  -0.01709  -0.01448  -0.00964
  Beta virt. eigenvalues --    0.01529   0.02179   0.02742   0.03246   0.05273
  Beta virt. eigenvalues --    0.06897   0.08308   0.08629   0.09348   0.09736
  Beta virt. eigenvalues --    0.10442   0.10897   0.11276   0.11837   0.11981
  Beta virt. eigenvalues --    0.12681   0.13676   0.13798   0.13954   0.14553
  Beta virt. eigenvalues --    0.15050   0.15248   0.15399   0.15604   0.15963
  Beta virt. eigenvalues --    0.16113   0.16349   0.16758   0.17205   0.17400
  Beta virt. eigenvalues --    0.17525   0.17722   0.17879   0.18567   0.18654
  Beta virt. eigenvalues --    0.18844   0.19168   0.19360   0.20159   0.20733
  Beta virt. eigenvalues --    0.21036   0.21190   0.21548   0.22420   0.22636
  Beta virt. eigenvalues --    0.23345   0.24257   0.24831   0.25280   0.25754
  Beta virt. eigenvalues --    0.25858   0.26260   0.26720   0.27097   0.27260
  Beta virt. eigenvalues --    0.27369   0.29597   0.30165   0.30674   0.30721
  Beta virt. eigenvalues --    0.31971   0.32581   0.33055   0.33424   0.34196
  Beta virt. eigenvalues --    0.35011   0.35618   0.35896   0.36426   0.36617
  Beta virt. eigenvalues --    0.37042   0.38261   0.38336   0.39304   0.39812
  Beta virt. eigenvalues --    0.42663   0.43171   0.43480   0.44171   0.45249
  Beta virt. eigenvalues --    0.45825   0.46311   0.46606   0.47391   0.48351
  Beta virt. eigenvalues --    0.48601   0.48852   0.50181   0.50286   0.51012
  Beta virt. eigenvalues --    0.51798   0.52698   0.52793   0.53117   0.53437
  Beta virt. eigenvalues --    0.53582   0.54362   0.54558   0.54998   0.55592
  Beta virt. eigenvalues --    0.55824   0.56312   0.57003   0.57810   0.58401
  Beta virt. eigenvalues --    0.58485   0.58943   0.59599   0.59937   0.60736
  Beta virt. eigenvalues --    0.60792   0.61089   0.61397   0.61845   0.62174
  Beta virt. eigenvalues --    0.62896   0.62942   0.63257   0.64218   0.64566
  Beta virt. eigenvalues --    0.65032   0.65328   0.65422   0.65808   0.66388
  Beta virt. eigenvalues --    0.66932   0.67072   0.67366   0.68121   0.68609
  Beta virt. eigenvalues --    0.68830   0.69906   0.70012   0.70830   0.71076
  Beta virt. eigenvalues --    0.71329   0.72368   0.72969   0.73362   0.73957
  Beta virt. eigenvalues --    0.74526   0.75201   0.75528   0.76169   0.76405
  Beta virt. eigenvalues --    0.77337   0.77401   0.77634   0.77886   0.78416
  Beta virt. eigenvalues --    0.78744   0.79267   0.79509   0.79944   0.80330
  Beta virt. eigenvalues --    0.80614   0.81006   0.81546   0.82070   0.82769
  Beta virt. eigenvalues --    0.83608   0.83855   0.84254   0.85227   0.86438
  Beta virt. eigenvalues --    0.86752   0.86775   0.87077   0.87718   0.87767
  Beta virt. eigenvalues --    0.87994   0.88527   0.88932   0.89395   0.89658
  Beta virt. eigenvalues --    0.90305   0.90821   0.91345   0.91510   0.92005
  Beta virt. eigenvalues --    0.92129   0.92696   0.92850   0.93288   0.93812
  Beta virt. eigenvalues --    0.93890   0.94397   0.94901   0.94980   0.95738
  Beta virt. eigenvalues --    0.96399   0.96760   0.97013   0.97754   0.97919
  Beta virt. eigenvalues --    0.98501   0.99172   0.99792   1.00064   1.00165
  Beta virt. eigenvalues --    1.00345   1.00725   1.01002   1.02247   1.02771
  Beta virt. eigenvalues --    1.02993   1.03872   1.04588   1.04941   1.05496
  Beta virt. eigenvalues --    1.06463   1.06856   1.07644   1.08103   1.08201
  Beta virt. eigenvalues --    1.09445   1.09859   1.10534   1.11872   1.13391
  Beta virt. eigenvalues --    1.14393   1.15619   1.16446   1.17065   1.17311
  Beta virt. eigenvalues --    1.17756   1.18060   1.18982   1.19725   1.20007
  Beta virt. eigenvalues --    1.21294   1.21416   1.21909   1.22509   1.23757
  Beta virt. eigenvalues --    1.24848   1.25255   1.26012   1.27064   1.27295
  Beta virt. eigenvalues --    1.28009   1.29111   1.29630   1.29962   1.30608
  Beta virt. eigenvalues --    1.31739   1.32410   1.33821   1.34185   1.34966
  Beta virt. eigenvalues --    1.35233   1.35886   1.37555   1.37985   1.38496
  Beta virt. eigenvalues --    1.38748   1.39461   1.39486   1.40240   1.40908
  Beta virt. eigenvalues --    1.41988   1.43469   1.44259   1.45310   1.45925
  Beta virt. eigenvalues --    1.47079   1.47654   1.48224   1.51122   1.53403
  Beta virt. eigenvalues --    1.54357   1.54625   1.54640   1.54972   1.55779
  Beta virt. eigenvalues --    1.56132   1.56695   1.57307   1.59874   1.60506
  Beta virt. eigenvalues --    1.60770   1.61561   1.62611   1.63896   1.64672
  Beta virt. eigenvalues --    1.64982   1.65517   1.69008   1.69584   1.69684
  Beta virt. eigenvalues --    1.70642   1.71413   1.72313   1.72905   1.75316
  Beta virt. eigenvalues --    1.77753   1.78481   1.79428   1.79480   1.79950
  Beta virt. eigenvalues --    1.80229   1.81066   1.81914   1.82259   1.82762
  Beta virt. eigenvalues --    1.83406   1.83603   1.84406   1.84593   1.84902
  Beta virt. eigenvalues --    1.86885   1.87584   1.88225   1.88299   1.88601
  Beta virt. eigenvalues --    1.90428   1.91921   1.92128   1.92407   1.92930
  Beta virt. eigenvalues --    1.93371   1.93701   1.94341   1.95200   1.95918
  Beta virt. eigenvalues --    1.96253   1.99259   1.99922   1.99954   2.00218
  Beta virt. eigenvalues --    2.01142   2.01438   2.01791   2.02381   2.03616
  Beta virt. eigenvalues --    2.04891   2.05120   2.05757   2.06726   2.06925
  Beta virt. eigenvalues --    2.08086   2.08833   2.10544   2.12111   2.13180
  Beta virt. eigenvalues --    2.13955   2.14538   2.15373   2.15572   2.16073
  Beta virt. eigenvalues --    2.16601   2.17390   2.18565   2.19717   2.20829
  Beta virt. eigenvalues --    2.21866   2.22729   2.23653   2.24276   2.24604
  Beta virt. eigenvalues --    2.24999   2.25441   2.25854   2.26333   2.26782
  Beta virt. eigenvalues --    2.27603   2.27780   2.28468   2.29182   2.29312
  Beta virt. eigenvalues --    2.30075   2.30367   2.30869   2.31809   2.32256
  Beta virt. eigenvalues --    2.32821   2.33269   2.34814   2.35255   2.35849
  Beta virt. eigenvalues --    2.36253   2.36611   2.36996   2.37809   2.39034
  Beta virt. eigenvalues --    2.40190   2.40810   2.41088   2.42336   2.43150
  Beta virt. eigenvalues --    2.43595   2.44534   2.44842   2.45211   2.45574
  Beta virt. eigenvalues --    2.49602   2.49913   2.50280   2.52355   2.52736
  Beta virt. eigenvalues --    2.53285   2.53599   2.54109   2.55893   2.56020
  Beta virt. eigenvalues --    2.56663   2.57309   2.58002   2.61000   2.61205
  Beta virt. eigenvalues --    2.63478   2.66005   2.66483   2.67303   2.68600
  Beta virt. eigenvalues --    2.69484   2.70972   2.71847   2.72150   2.75893
  Beta virt. eigenvalues --    2.77705   2.80008   2.80387   2.81022   2.81624
  Beta virt. eigenvalues --    2.87503   2.88738   2.89284   2.91613   2.92215
  Beta virt. eigenvalues --    2.92780   2.95770   2.97380   2.97750   2.98688
  Beta virt. eigenvalues --    2.99598   2.99769   3.01012   3.05680   3.05902
  Beta virt. eigenvalues --    3.13126   3.14576   3.20739   3.23032   3.23524
  Beta virt. eigenvalues --    3.30117   3.30537   3.38290   3.40309   3.41177
  Beta virt. eigenvalues --    3.41760   3.46621   3.47024   3.64674   3.66675
  Beta virt. eigenvalues --    3.88908   4.07571   4.14059
          Condensed to atoms (all electrons):
          Atomic-Atomic Spin Densities.
 Mulliken charges and spin densities:
               1          2
     1  Fe   0.823881   3.775112
     2  N   -0.707327   0.039442
     3  N   -0.695512   0.044967
     4  N   -0.731396   0.041102
     5  N   -0.712496   0.047385
     6  C    0.322820   0.013409
     7  C    0.032542  -0.012871
     8  C    0.035897   0.021538
     9  C    0.299339  -0.020523
    10  C    0.301066  -0.021650
    11  C    0.040058   0.023867
    12  C   -0.008708  -0.017299
    13  C    0.310765   0.013376
    14  C    0.323258   0.015502
    15  C    0.036108  -0.019331
    16  C   -0.002419   0.026438
    17  C    0.333273  -0.027139
    18  C    0.321750  -0.029471
    19  C    0.037194   0.023438
    20  C    0.030065  -0.019790
    21  C    0.322148   0.012106
    22  C   -0.322325  -0.003787
    23  H    0.165850   0.000373
    24  C   -0.311301   0.014615
    25  H    0.165265  -0.000414
    26  C   -0.301277  -0.008008
    27  H    0.168925   0.000612
    28  C   -0.304117   0.016960
    29  H    0.167479  -0.000505
    30  C   -0.609019  -0.001173
    31  H    0.187227   0.000613
    32  H    0.185315   0.000328
    33  H    0.195454   0.000770
    34  C   -0.608629   0.001590
    35  H    0.187731  -0.000723
    36  H    0.193526  -0.000550
    37  H    0.185123   0.000234
    38  C   -0.611490  -0.001306
    39  H    0.186387   0.000987
    40  H    0.186625   0.000451
    41  H    0.197801   0.000361
    42  C   -0.144926   0.006877
    43  H    0.167874  -0.000553
    44  C   -0.402535  -0.010151
    45  H    0.173305   0.000506
    46  H    0.167855   0.000657
    47  C   -0.612923   0.002070
    48  H    0.190155  -0.001052
    49  H    0.186609  -0.000478
    50  H    0.196468   0.000018
    51  C   -0.146209  -0.006986
    52  H    0.167874   0.000644
    53  C   -0.400608   0.010318
    54  H    0.176352  -0.000517
    55  H    0.168080  -0.000381
    56  C   -0.610553  -0.001247
    57  H    0.192483   0.000581
    58  H    0.193064   0.000706
    59  H    0.184651   0.000344
    60  C   -0.608188   0.002236
    61  H    0.185286   0.000240
    62  H    0.191832  -0.001021
    63  H    0.186737  -0.001066
    64  C   -0.676494  -0.008462
    65  H    0.238443   0.001879
    66  H    0.211035   0.000103
    67  H    0.232869   0.000316
    68  S    0.019432   0.059271
    69  H    0.155172  -0.005886
 Sum of Mulliken charges =  -0.00000   4.00000
 Mulliken charges and spin densities with hydrogens summed into heavy atoms:
               1          2
     1  Fe   0.823881   3.775112
     2  N   -0.707327   0.039442
     3  N   -0.695512   0.044967
     4  N   -0.731396   0.041102
     5  N   -0.712496   0.047385
     6  C    0.322820   0.013409
     7  C    0.032542  -0.012871
     8  C    0.035897   0.021538
     9  C    0.299339  -0.020523
    10  C    0.301066  -0.021650
    11  C    0.040058   0.023867
    12  C   -0.008708  -0.017299
    13  C    0.310765   0.013376
    14  C    0.323258   0.015502
    15  C    0.036108  -0.019331
    16  C   -0.002419   0.026438
    17  C    0.333273  -0.027139
    18  C    0.321750  -0.029471
    19  C    0.037194   0.023438
    20  C    0.030065  -0.019790
    21  C    0.322148   0.012106
    22  C   -0.156475  -0.003414
    24  C   -0.146035   0.014201
    26  C   -0.132352  -0.007395
    28  C   -0.136638   0.016454
    30  C   -0.041024   0.000539
    34  C   -0.042248   0.000551
    38  C   -0.040677   0.000493
    42  C    0.022948   0.006324
    44  C   -0.061375  -0.008988
    47  C   -0.039690   0.000557
    51  C    0.021665  -0.006342
    53  C   -0.056176   0.009420
    56  C   -0.040354   0.000384
    60  C   -0.044333   0.000389
    64  C    0.005853  -0.006163
    68  S    0.174604   0.053384
 Electronic spatial extent (au):  <R**2>=          18140.3718
 Charge=             -0.0000 electrons
 Dipole moment (field-independent basis, Debye):
    X=             -2.1366    Y=              0.1951    Z=              2.1929  Tot=              3.0679
 Quadrupole moment (field-independent basis, Debye-Ang):
   XX=           -206.2458   YY=           -208.0209   ZZ=           -230.9162
   XY=              0.0916   XZ=             -3.7907   YZ=              3.8417
 Traceless Quadrupole moment (field-independent basis, Debye-Ang):
   XX=              8.8152   YY=              7.0401   ZZ=            -15.8553
   XY=              0.0916   XZ=             -3.7907   YZ=              3.8417
 Octapole moment (field-independent basis, Debye-Ang**2):
  XXX=            -19.9819  YYY=            -31.6422  ZZZ=             29.2564  XYY=            -10.6224
  XXY=              2.7911  XXZ=             -4.9252  XZZ=            -24.9496  YZZ=              8.1456
  YYZ=              7.6570  XYZ=             -1.2598
 Hexadecapole moment (field-independent basis, Debye-Ang**3):
 XXXX=         -11192.0081 YYYY=         -11150.0732 ZZZZ=          -1210.6288 XXXY=              1.6671
 XXXZ=             68.3865 YYYX=            -22.9452 YYYZ=            101.8854 ZZZX=            -51.5989
 ZZZY=             30.2702 XXYY=          -3693.3090 XXZZ=          -2235.6157 YYZZ=          -2230.0591
 XXYZ=            -32.5416 YYXZ=              1.1222 ZZXY=             11.7839
 N-N= 5.027105383199D+03 E-N=-1.730665752152D+04  KE= 3.070987779582D+03
                          Isotropic Fermi Contact Couplings
        Atom                 a.u.       MegaHertz       Gauss      10(-4) cm-1
     1  Fe(57)             0.47498      17.22273       6.14550       5.74488
     2  N(14)              0.09225       7.45184       2.65900       2.48567
     3  N(14)              0.09447       7.63116       2.72299       2.54548
     4  N(14)              0.09127       7.37212       2.63055       2.45907
     5  N(14)              0.09266       7.48440       2.67062       2.49653
     6  C(13)              0.00731       2.05562       0.73350       0.68568
     7  C(13)              0.00103       0.28834       0.10289       0.09618
     8  C(13)              0.00611       1.71819       0.61309       0.57313
     9  C(13)              0.00157       0.43998       0.15700       0.14676
    10  C(13)              0.00157       0.44098       0.15735       0.14709
    11  C(13)              0.00659       1.85308       0.66122       0.61812
    12  C(13)              0.00011       0.02953       0.01054       0.00985
    13  C(13)              0.00686       1.92784       0.68790       0.64306
    14  C(13)              0.00771       2.16612       0.77293       0.72254
    15  C(13)             -0.00001      -0.00190      -0.00068      -0.00063
    16  C(13)              0.00705       1.98157       0.70708       0.66098
    17  C(13)              0.00110       0.30949       0.11043       0.10323
    18  C(13)             -0.00009      -0.02445      -0.00873      -0.00816
    19  C(13)              0.00652       1.83145       0.65351       0.61091
    20  C(13)              0.00003       0.00749       0.00267       0.00250
    21  C(13)              0.00715       2.00816       0.71656       0.66985
    22  C(13)             -0.00121      -0.34084      -0.12162      -0.11369
    23  H(1)               0.00011       0.12784       0.04562       0.04264
    24  C(13)              0.00218       0.61173       0.21828       0.20405
    25  H(1)              -0.00015      -0.16295      -0.05814      -0.05435
    26  C(13)             -0.00199      -0.55888      -0.19942      -0.18642
    27  H(1)               0.00017       0.18937       0.06757       0.06317
    28  C(13)              0.00268       0.75417       0.26911       0.25157
    29  H(1)              -0.00017      -0.18888      -0.06740      -0.06301
    30  C(13)             -0.00005      -0.01293      -0.00461      -0.00431
    31  H(1)               0.00032       0.35481       0.12661       0.11835
    32  H(1)               0.00010       0.11708       0.04178       0.03905
    33  H(1)               0.00037       0.41894       0.14949       0.13974
    34  C(13)              0.00097       0.27127       0.09680       0.09049
    35  H(1)              -0.00033      -0.36438      -0.13002      -0.12154
    36  H(1)              -0.00022      -0.24860      -0.08871      -0.08292
    37  H(1)               0.00006       0.07016       0.02504       0.02340
    38  C(13)             -0.00020      -0.05519      -0.01969      -0.01841
    39  H(1)               0.00049       0.54873       0.19580       0.18304
    40  H(1)               0.00025       0.28075       0.10018       0.09365
    41  H(1)               0.00014       0.15962       0.05696       0.05324
    42  C(13)              0.00155       0.43582       0.15551       0.14538
    43  H(1)              -0.00017      -0.19474      -0.06949      -0.06496
    44  C(13)             -0.00118      -0.33276      -0.11874      -0.11100
    45  H(1)               0.00016       0.18264       0.06517       0.06092
    46  H(1)               0.00020       0.22531       0.08039       0.07515
    47  C(13)              0.00108       0.30222       0.10784       0.10081
    48  H(1)              -0.00051      -0.56995      -0.20337      -0.19011
    49  H(1)              -0.00018      -0.20039      -0.07151      -0.06684
    50  H(1)              -0.00004      -0.04858      -0.01733      -0.01620
    51  C(13)             -0.00102      -0.28558      -0.10190      -0.09526
    52  H(1)               0.00024       0.26265       0.09372       0.08761
    53  C(13)              0.00182       0.51171       0.18259       0.17069
    54  H(1)              -0.00016      -0.17680      -0.06309      -0.05898
    55  H(1)              -0.00012      -0.12957      -0.04623      -0.04322
    56  C(13)             -0.00008      -0.02160      -0.00771      -0.00721
    57  H(1)               0.00034       0.37715       0.13458       0.12580
    58  H(1)               0.00039       0.43759       0.15614       0.14596
    59  H(1)               0.00011       0.12390       0.04421       0.04133
    60  C(13)              0.00120       0.33829       0.12071       0.11284
    61  H(1)               0.00007       0.07536       0.02689       0.02514
    62  H(1)              -0.00040      -0.44682      -0.15944      -0.14904
    63  H(1)              -0.00044      -0.49380      -0.17620      -0.16471
    64  C(13)             -0.00956      -2.68712      -0.95883      -0.89633
    65  H(1)               0.00061       0.67699       0.24157       0.22582
    66  H(1)               0.00104       1.16483       0.41564       0.38854
    67  H(1)               0.00023       0.25323       0.09036       0.08447
    68  S(33)              0.12794      10.98640       3.92022       3.66467
    69  H(1)              -0.00206      -2.30748      -0.82337      -0.76969
 --------------------------------------------------------
       Center         ----  Spin Dipole Couplings  ----
                      3XX-RR        3YY-RR        3ZZ-RR
 --------------------------------------------------------
     1   Atom        0.280659      1.058300     -1.338959
     2   Atom        0.166168     -0.097157     -0.069010
     3   Atom       -0.096147      0.159176     -0.063029
     4   Atom        0.166934     -0.098202     -0.068732
     5   Atom       -0.099934      0.156515     -0.056580
     6   Atom        0.037378     -0.023924     -0.013455
     7   Atom        0.023102     -0.000163     -0.022940
     8   Atom        0.005342     -0.012926      0.007583
     9   Atom        0.026867      0.020661     -0.047528
    10   Atom       -0.007954      0.055378     -0.047424
    11   Atom       -0.016916      0.007436      0.009480
    12   Atom        0.004617      0.022442     -0.027059
    13   Atom        0.004965      0.009074     -0.014039
    14   Atom        0.037403     -0.024828     -0.012575
    15   Atom        0.026568      0.002466     -0.029034
    16   Atom        0.004559     -0.014857      0.010298
    17   Atom        0.029729      0.024299     -0.054028
    18   Atom       -0.003713      0.060565     -0.056852
    19   Atom       -0.016127      0.008233      0.007895
    20   Atom        0.005946      0.024622     -0.030568
    21   Atom        0.006594      0.009647     -0.016241
    22   Atom        0.019909     -0.000619     -0.019290
    23   Atom        0.008051     -0.001755     -0.006296
    24   Atom       -0.008543      0.014167     -0.005625
    25   Atom       -0.002133      0.008761     -0.006629
    26   Atom        0.022034      0.001579     -0.023613
    27   Atom        0.007988     -0.001641     -0.006347
    28   Atom       -0.009399      0.014646     -0.005246
    29   Atom       -0.002346      0.008977     -0.006631
    30   Atom        0.003497      0.000032     -0.003529
    31   Atom        0.002292      0.000710     -0.003003
    32   Atom        0.003389     -0.001023     -0.002366
    33   Atom        0.001919      0.000609     -0.002528
    34   Atom        0.007131     -0.003423     -0.003707
    35   Atom        0.005635     -0.002738     -0.002897
    36   Atom        0.005061     -0.002792     -0.002269
    37   Atom        0.004327     -0.002101     -0.002225
    38   Atom       -0.003799      0.007315     -0.003517
    39   Atom       -0.002901      0.005508     -0.002607
    40   Atom       -0.002690      0.005672     -0.002982
    41   Atom       -0.002407      0.004741     -0.002334
    42   Atom       -0.001241      0.002815     -0.001574
    43   Atom        0.001049      0.001707     -0.002757
    44   Atom        0.002260      0.003124     -0.005385
    45   Atom       -0.001365      0.003241     -0.001876
    46   Atom       -0.000553      0.001664     -0.001111
    47   Atom        0.007171     -0.003337     -0.003833
    48   Atom        0.005283     -0.002582     -0.002701
    49   Atom        0.005356     -0.002849     -0.002507
    50   Atom        0.004208     -0.002043     -0.002165
    51   Atom        0.005483      0.002010     -0.007493
    52   Atom        0.001910      0.001150     -0.003060
    53   Atom        0.001135     -0.004642      0.003506
    54   Atom        0.002936     -0.001099     -0.001837
    55   Atom        0.001389      0.000149     -0.001539
    56   Atom       -0.003742      0.007184     -0.003442
    57   Atom       -0.002867      0.005703     -0.002837
    58   Atom       -0.002707      0.005441     -0.002734
    59   Atom       -0.002244      0.004613     -0.002369
    60   Atom        0.000103      0.003669     -0.003773
    61   Atom       -0.000823      0.003113     -0.002290
    62   Atom        0.000217      0.002236     -0.002453
    63   Atom        0.000567      0.002286     -0.002853
    64   Atom       -0.009119     -0.012068      0.021187
    65   Atom        0.005442     -0.013014      0.007572
    66   Atom       -0.002776     -0.007374      0.010150
    67   Atom        0.000328     -0.010358      0.010030
    68   Atom       -0.151847     -0.166196      0.318043
    69   Atom       -0.024873     -0.003960      0.028833
 --------------------------------------------------------
                        XY            XZ            YZ
 --------------------------------------------------------
     1   Atom       -1.678344     -0.145476     -0.153602
     2   Atom       -0.079717      0.034288     -0.011525
     3   Atom        0.082492     -0.004899     -0.019653
     4   Atom       -0.081326     -0.025926      0.011983
     5   Atom        0.083298      0.003744      0.024446
     6   Atom        0.013035      0.008051      0.001508
     7   Atom       -0.004757      0.004332      0.001924
     8   Atom       -0.008738      0.000567     -0.002424
     9   Atom       -0.034027      0.003328      0.003187
    10   Atom       -0.011720     -0.004074      0.002002
    11   Atom        0.004501      0.000235     -0.000275
    12   Atom        0.008899     -0.001381      0.003915
    13   Atom        0.033147      0.000595     -0.004473
    14   Atom        0.013274     -0.006397      0.000236
    15   Atom       -0.004928     -0.004228     -0.004292
    16   Atom       -0.008814      0.001492      0.003253
    17   Atom       -0.035009     -0.005424     -0.003733
    18   Atom       -0.011322      0.006484     -0.006127
    19   Atom        0.004489     -0.001993      0.001362
    20   Atom        0.008786      0.003549     -0.001864
    21   Atom        0.033623      0.002275      0.005353
    22   Atom        0.016651      0.005182      0.002055
    23   Atom        0.007994      0.001887      0.001043
    24   Atom       -0.018139      0.001233     -0.003869
    25   Atom       -0.008697      0.000345     -0.000633
    26   Atom        0.016643     -0.006207     -0.003250
    27   Atom        0.007778     -0.001685     -0.000938
    28   Atom       -0.018637     -0.001534      0.002628
    29   Atom       -0.008784      0.000017     -0.000018
    30   Atom       -0.005193      0.000702     -0.000538
    31   Atom       -0.004419     -0.000587      0.000618
    32   Atom       -0.002779      0.000484     -0.000241
    33   Atom       -0.004094      0.001458     -0.001360
    34   Atom        0.000675      0.001430      0.000133
    35   Atom        0.001025     -0.000207     -0.000052
    36   Atom        0.001043      0.002370      0.000349
    37   Atom       -0.000632      0.000927     -0.000084
    38   Atom       -0.000623      0.000038     -0.000414
    39   Atom       -0.000671     -0.000176      0.001298
    40   Atom       -0.001645      0.000303     -0.001370
    41   Atom        0.000781     -0.000136     -0.000637
    42   Atom        0.003927      0.001403     -0.003225
    43   Atom        0.004161     -0.000997     -0.001046
    44   Atom        0.005306     -0.003537      0.006593
    45   Atom        0.002408      0.000683      0.000839
    46   Atom        0.001408      0.000025      0.000466
    47   Atom        0.000491     -0.001300     -0.000253
    48   Atom        0.000594      0.000329      0.000041
    49   Atom        0.001263     -0.002133     -0.000363
    50   Atom       -0.000667     -0.001107      0.000061
    51   Atom       -0.006050      0.002411      0.001606
    52   Atom       -0.004675     -0.000754      0.000735
    53   Atom       -0.000945     -0.005397     -0.003192
    54   Atom       -0.001241      0.000639      0.000069
    55   Atom       -0.002333     -0.000155     -0.000149
    56   Atom       -0.000604     -0.000009      0.000050
    57   Atom       -0.001163      0.000302     -0.001443
    58   Atom       -0.001170     -0.000281      0.001359
    59   Atom        0.000841     -0.000004      0.000003
    60   Atom        0.005031      0.000349      0.000460
    61   Atom        0.002560      0.000144      0.000255
    62   Atom        0.003943      0.001123      0.001411
    63   Atom        0.004257     -0.000485     -0.000561
    64   Atom       -0.000747     -0.015633      0.000804
    65   Atom       -0.005964     -0.020658      0.006776
    66   Atom       -0.000372     -0.007675      0.000790
    67   Atom        0.006091     -0.016713     -0.008340
    68   Atom       -0.011171      0.056777      0.017821
    69   Atom        0.002982      0.004347      0.028269
 --------------------------------------------------------


 ---------------------------------------------------------------------------------
              Anisotropic Spin Dipole Couplings in Principal Axis System
 ---------------------------------------------------------------------------------

       Atom             a.u.   MegaHertz   Gauss  10(-4) cm-1        Axes

              Baa    -1.4498   -25.101    -8.957    -8.373  0.3614  0.2960  0.8842
     1 Fe(57) Bbb    -0.9427   -16.320    -5.824    -5.444  0.6948  0.5469 -0.4671
              Bcc     2.3925    41.421    14.780    13.817 -0.6218  0.7831 -0.0080
 
              Baa    -0.1195    -4.608    -1.644    -1.537  0.2640  0.9637  0.0407
     2 N(14)  Bbb    -0.0739    -2.850    -1.017    -0.951 -0.1423 -0.0028  0.9898
              Bcc     0.1934     7.459     2.661     2.488  0.9540 -0.2671  0.1364
 
              Baa    -0.1205    -4.647    -1.658    -1.550  0.9587 -0.2839 -0.0153
     3 N(14)  Bbb    -0.0647    -2.494    -0.890    -0.832  0.0377  0.0736  0.9966
              Bcc     0.1852     7.141     2.548     2.382  0.2818  0.9560 -0.0813
 
              Baa    -0.1216    -4.688    -1.673    -1.564  0.2628  0.9607 -0.0889
     4 N(14)  Bbb    -0.0714    -2.753    -0.982    -0.918  0.1271  0.0569  0.9903
              Bcc     0.1929     7.441     2.655     2.482  0.9564 -0.2716 -0.1072
 
              Baa    -0.1248    -4.813    -1.717    -1.605  0.9564 -0.2876  0.0506
     5 N(14)  Bbb    -0.0589    -2.272    -0.811    -0.758 -0.0774 -0.0828  0.9936
              Bcc     0.1837     7.085     2.528     2.363  0.2816  0.9542  0.1015
 
              Baa    -0.0266    -3.567    -1.273    -1.190 -0.2010  0.9795  0.0107
     6 C(13)  Bbb    -0.0147    -1.970    -0.703    -0.657 -0.1429 -0.0402  0.9889
              Bcc     0.0413     5.537     1.976     1.847  0.9691  0.1972  0.1480
 
              Baa    -0.0236    -3.165    -1.129    -1.056 -0.1022 -0.1020  0.9895
     7 C(13)  Bbb    -0.0008    -0.104    -0.037    -0.035  0.1733  0.9777  0.1187
              Bcc     0.0244     3.269     1.166     1.090  0.9796 -0.1836  0.0822
 
              Baa    -0.0166    -2.228    -0.795    -0.743  0.3667  0.9265  0.0843
     8 C(13)  Bbb     0.0068     0.909     0.324     0.303 -0.5524  0.1440  0.8211
              Bcc     0.0098     1.319     0.471     0.440  0.7486 -0.3476  0.5646
 
              Baa    -0.0481    -6.453    -2.303    -2.153 -0.0838 -0.0875  0.9926
     9 C(13)  Bbb    -0.0098    -1.321    -0.471    -0.441  0.6689  0.7335  0.1211
              Bcc     0.0579     7.774     2.774     2.593  0.7386 -0.6741  0.0029
 
              Baa    -0.0478    -6.421    -2.291    -2.142  0.0993 -0.0080  0.9950
    10 C(13)  Bbb    -0.0097    -1.302    -0.464    -0.434  0.9791  0.1793 -0.0962
              Bcc     0.0575     7.722     2.755     2.576 -0.1776  0.9838  0.0257
 
              Baa    -0.0177    -2.378    -0.849    -0.793  0.9843 -0.1762 -0.0103
    11 C(13)  Bbb     0.0082     1.100     0.393     0.367  0.1752  0.9687  0.1757
              Bcc     0.0095     1.278     0.456     0.426 -0.0210 -0.1748  0.9844
 
              Baa    -0.0275    -3.691    -1.317    -1.231  0.0676 -0.0899  0.9937
    12 C(13)  Bbb     0.0012     0.161     0.058     0.054  0.9242 -0.3695 -0.0963
              Bcc     0.0263     3.530     1.259     1.177  0.3758  0.9249  0.0581
 
              Baa    -0.0271    -3.641    -1.299    -1.215  0.6960 -0.6693 -0.2602
    13 C(13)  Bbb    -0.0132    -1.778    -0.634    -0.593  0.2250 -0.1409  0.9641
              Bcc     0.0404     5.419     1.934     1.807  0.6819  0.7295 -0.0525
 
              Baa    -0.0277    -3.717    -1.326    -1.240 -0.2085  0.9726 -0.1033
    14 C(13)  Bbb    -0.0131    -1.764    -0.629    -0.588  0.0923  0.1247  0.9879
              Bcc     0.0408     5.480     1.956     1.828  0.9737  0.1964 -0.1157
 
              Baa    -0.0300    -4.029    -1.438    -1.344  0.0861  0.1433  0.9859
    15 C(13)  Bbb     0.0023     0.308     0.110     0.103  0.1703  0.9729 -0.1563
              Bcc     0.0277     3.722     1.328     1.241  0.9816 -0.1813 -0.0594
 
              Baa    -0.0187    -2.510    -0.895    -0.837  0.3585  0.9255 -0.1223
    16 C(13)  Bbb     0.0079     1.066     0.380     0.356  0.9262 -0.3690 -0.0772
              Bcc     0.0108     1.443     0.515     0.481  0.1166  0.0856  0.9895
 
              Baa    -0.0549    -7.371    -2.630    -2.459  0.1013  0.0914  0.9906
    17 C(13)  Bbb    -0.0072    -0.969    -0.346    -0.323  0.6708  0.7291 -0.1359
              Bcc     0.0621     8.339     2.976     2.782  0.7347 -0.6783 -0.0125
 
              Baa    -0.0578    -7.760    -2.769    -2.588 -0.1105  0.0408  0.9930
    18 C(13)  Bbb    -0.0051    -0.685    -0.244    -0.228  0.9787  0.1782  0.1015
              Bcc     0.0629     8.444     3.013     2.817 -0.1728  0.9831 -0.0596
 
              Baa    -0.0171    -2.298    -0.820    -0.766  0.9801 -0.1782  0.0878
    19 C(13)  Bbb     0.0075     1.002     0.358     0.334 -0.1685 -0.5114  0.8427
              Bcc     0.0097     1.296     0.462     0.432  0.1053  0.8407  0.5312
 
              Baa    -0.0310    -4.166    -1.487    -1.390 -0.1072  0.0502  0.9930
    20 C(13)  Bbb     0.0029     0.394     0.141     0.131  0.9238 -0.3641  0.1181
              Bcc     0.0281     3.772     1.346     1.258  0.3675  0.9300 -0.0073
 
              Baa    -0.0260    -3.488    -1.244    -1.163  0.6939 -0.6871  0.2154
    21 C(13)  Bbb    -0.0163    -2.187    -0.780    -0.729 -0.2191  0.0834  0.9721
              Bcc     0.0423     5.674     2.025     1.893  0.6859  0.7218  0.0927
 
              Baa    -0.0200    -2.679    -0.956    -0.894 -0.1325  0.0088  0.9911
    22 C(13)  Bbb    -0.0099    -1.324    -0.472    -0.441 -0.4774  0.8758 -0.0716
              Bcc     0.0298     4.003     1.428     1.335  0.8687  0.4826  0.1118
 
              Baa    -0.0065    -3.490    -1.245    -1.164 -0.1158 -0.0231  0.9930
    23 H(1)   Bbb    -0.0062    -3.324    -1.186    -1.109 -0.4845  0.8740 -0.0362
              Bcc     0.0128     6.814     2.431     2.273  0.8671  0.4853  0.1124
 
              Baa    -0.0186    -2.501    -0.892    -0.834  0.8702  0.4886  0.0628
    24 C(13)  Bbb    -0.0061    -0.818    -0.292    -0.273 -0.1181  0.0832  0.9895
              Bcc     0.0247     3.319     1.184     1.107 -0.4782  0.8685 -0.1301
 
              Baa    -0.0069    -3.707    -1.323    -1.236  0.8745  0.4848  0.0158
    25 H(1)   Bbb    -0.0067    -3.550    -1.267    -1.184 -0.0310  0.0235  0.9992
              Bcc     0.0136     7.257     2.590     2.421 -0.4840  0.8743 -0.0356
 
              Baa    -0.0245    -3.287    -1.173    -1.096  0.1142  0.0508  0.9922
    26 C(13)  Bbb    -0.0077    -1.037    -0.370    -0.346 -0.4863  0.8737  0.0113
              Bcc     0.0322     4.324     1.543     1.442  0.8663  0.4838 -0.1245
 
              Baa    -0.0065    -3.492    -1.246    -1.165  0.0889  0.0494  0.9948
    27 H(1)   Bbb    -0.0060    -3.187    -1.137    -1.063 -0.4867  0.8736  0.0001
              Bcc     0.0125     6.679     2.383     2.228  0.8691  0.4841 -0.1017
 
              Baa    -0.0196    -2.624    -0.936    -0.875  0.8783  0.4781  0.0063
    28 C(13)  Bbb    -0.0056    -0.745    -0.266    -0.248  0.0421 -0.0906  0.9950
              Bcc     0.0251     3.369     1.202     1.124 -0.4763  0.8736  0.0997
 
              Baa    -0.0071    -3.807    -1.358    -1.270  0.8779  0.4786 -0.0122
    29 H(1)   Bbb    -0.0066    -3.538    -1.262    -1.180  0.0101  0.0069  0.9999
              Bcc     0.0138     7.345     2.621     2.450 -0.4787  0.8780 -0.0012
 
              Baa    -0.0037    -0.499    -0.178    -0.166  0.5554  0.8015  0.2218
    30 C(13)  Bbb    -0.0036    -0.482    -0.172    -0.161 -0.1944 -0.1342  0.9717
              Bcc     0.0073     0.981     0.350     0.327  0.8085 -0.5828  0.0813
 
              Baa    -0.0031    -1.677    -0.598    -0.559 -0.2810 -0.4577  0.8435
    31 H(1)   Bbb    -0.0029    -1.562    -0.557    -0.521  0.5822  0.6174  0.5290
              Bcc     0.0061     3.239     1.156     1.080  0.7629 -0.6398 -0.0929
 
              Baa    -0.0024    -1.285    -0.458    -0.429 -0.0018  0.1678  0.9858
    32 H(1)   Bbb    -0.0024    -1.261    -0.450    -0.421  0.4402  0.8853 -0.1499
              Bcc     0.0048     2.546     0.909     0.849  0.8979 -0.4337  0.0755
 
              Baa    -0.0030    -1.625    -0.580    -0.542  0.1499  0.4880  0.8599
    33 H(1)   Bbb    -0.0028    -1.514    -0.540    -0.505  0.6569  0.6008 -0.4555
              Bcc     0.0059     3.138     1.120     1.047  0.7389 -0.6332  0.2305
 
              Baa    -0.0039    -0.523    -0.187    -0.174 -0.1216 -0.1040  0.9871
    34 C(13)  Bbb    -0.0035    -0.465    -0.166    -0.155 -0.0761  0.9925  0.0952
              Bcc     0.0074     0.988     0.352     0.329  0.9897  0.0635  0.1286
 
              Baa    -0.0029    -1.556    -0.555    -0.519 -0.0320  0.4468  0.8940
    35 H(1)   Bbb    -0.0028    -1.520    -0.542    -0.507 -0.1180  0.8866 -0.4473
              Bcc     0.0058     3.075     1.097     1.026  0.9925  0.1199 -0.0244
 
              Baa    -0.0030    -1.597    -0.570    -0.533 -0.1763 -0.5272  0.8312
    36 H(1)   Bbb    -0.0029    -1.551    -0.553    -0.517 -0.2526  0.8404  0.4795
              Bcc     0.0059     3.148     1.123     1.050  0.9514  0.1254  0.2814
 
              Baa    -0.0024    -1.256    -0.448    -0.419 -0.1390 -0.0171  0.9901
    37 H(1)   Bbb    -0.0022    -1.154    -0.412    -0.385  0.0926  0.9952  0.0302
              Bcc     0.0045     2.410     0.860     0.804  0.9860 -0.0959  0.1368
 
              Baa    -0.0038    -0.514    -0.184    -0.172  0.9974  0.0539 -0.0486
    38 C(13)  Bbb    -0.0035    -0.474    -0.169    -0.158  0.0465  0.0408  0.9981
              Bcc     0.0074     0.988     0.353     0.330 -0.0558  0.9977 -0.0382
 
              Baa    -0.0030    -1.592    -0.568    -0.531  0.9254  0.0153  0.3786
    39 H(1)   Bbb    -0.0028    -1.484    -0.529    -0.495 -0.3705 -0.1729  0.9126
              Bcc     0.0058     3.076     1.098     1.026 -0.0794  0.9848  0.1543
 
              Baa    -0.0032    -1.710    -0.610    -0.570 -0.2262  0.1075  0.9681
    40 H(1)   Bbb    -0.0030    -1.597    -0.570    -0.533  0.9564  0.2131  0.1998
              Bcc     0.0062     3.307     1.180     1.103 -0.1848  0.9711 -0.1510
 
              Baa    -0.0025    -1.347    -0.481    -0.449  0.8926 -0.0567  0.4474
    41 H(1)   Bbb    -0.0024    -1.258    -0.449    -0.420 -0.4379  0.1280  0.8899
              Bcc     0.0049     2.605     0.930     0.869  0.1077  0.9901 -0.0894
 
              Baa    -0.0058    -0.776    -0.277    -0.259  0.6224 -0.5076 -0.5958
    42 C(13)  Bbb    -0.0000    -0.006    -0.002    -0.002  0.6615 -0.0658  0.7470
              Bcc     0.0058     0.783     0.279     0.261  0.4184  0.8591 -0.2948
 
              Baa    -0.0030    -1.602    -0.572    -0.535  0.1900  0.0500  0.9805
    43 H(1)   Bbb    -0.0028    -1.491    -0.532    -0.497  0.7181 -0.6881 -0.1040
              Bcc     0.0058     3.093     1.104     1.032  0.6695  0.7239 -0.1666
 
              Baa    -0.0114    -1.529    -0.546    -0.510  0.3931 -0.4954  0.7746
    44 C(13)  Bbb     0.0028     0.370     0.132     0.123  0.7470 -0.3192 -0.5832
              Bcc     0.0086     1.160     0.414     0.387  0.5362  0.8079  0.2446
 
              Baa    -0.0026    -1.367    -0.488    -0.456  0.8276 -0.2725 -0.4908
    45 H(1)   Bbb    -0.0019    -1.002    -0.358    -0.334  0.3996 -0.3281  0.8560
              Bcc     0.0044     2.370     0.846     0.790  0.3943  0.9045  0.1627
 
              Baa    -0.0014    -0.738    -0.263    -0.246  0.6650 -0.4035  0.6285
    46 H(1)   Bbb    -0.0010    -0.543    -0.194    -0.181 -0.6120  0.1880  0.7682
              Bcc     0.0024     1.281     0.457     0.427  0.4281  0.8955  0.1220
 
              Baa    -0.0040    -0.542    -0.193    -0.181  0.0988  0.2756  0.9562
    47 C(13)  Bbb    -0.0033    -0.444    -0.158    -0.148 -0.0783  0.9601 -0.2686
              Bcc     0.0073     0.986     0.352     0.329  0.9920  0.0484 -0.1164
 
              Baa    -0.0027    -1.450    -0.517    -0.484 -0.0272 -0.1793  0.9834
    48 H(1)   Bbb    -0.0026    -1.400    -0.500    -0.467 -0.0811  0.9809  0.1766
              Bcc     0.0053     2.850     1.017     0.951  0.9963  0.0749  0.0412
 
              Baa    -0.0031    -1.646    -0.587    -0.549  0.0853  0.6719  0.7357
    49 H(1)   Bbb    -0.0030    -1.603    -0.572    -0.535 -0.2709  0.7262 -0.6319
              Bcc     0.0061     3.249     1.159     1.084  0.9588  0.1454 -0.2440
 
              Baa    -0.0024    -1.260    -0.450    -0.420  0.1824  0.1968  0.9633
    50 H(1)   Bbb    -0.0021    -1.121    -0.400    -0.374  0.0660  0.9751 -0.2117
              Bcc     0.0045     2.381     0.850     0.794  0.9810 -0.1022 -0.1648
 
              Baa    -0.0087    -1.174    -0.419    -0.392 -0.2798 -0.2938  0.9140
    51 C(13)  Bbb    -0.0013    -0.181    -0.065    -0.060  0.5236  0.7513  0.4018
              Bcc     0.0101     1.355     0.483     0.452  0.8047 -0.5910  0.0563
 
              Baa    -0.0032    -1.707    -0.609    -0.569 -0.3399 -0.4999  0.7966
    52 H(1)   Bbb    -0.0031    -1.675    -0.598    -0.559  0.5924  0.5440  0.5942
              Bcc     0.0063     3.382     1.207     1.128  0.7304 -0.6739 -0.1113
 
              Baa    -0.0069    -0.927    -0.331    -0.309  0.3963  0.7999  0.4506
    53 C(13)  Bbb    -0.0012    -0.166    -0.059    -0.055  0.7037 -0.5799  0.4105
              Bcc     0.0081     1.093     0.390     0.364 -0.5897 -0.1544  0.7927
 
              Baa    -0.0020    -1.071    -0.382    -0.357 -0.2061 -0.3512  0.9133
    54 H(1)   Bbb    -0.0013    -0.719    -0.257    -0.240  0.2019  0.8980  0.3909
              Bcc     0.0034     1.790     0.639     0.597  0.9575 -0.2649  0.1142
 
              Baa    -0.0018    -0.966    -0.345    -0.322  0.4835  0.6223  0.6156
    55 H(1)   Bbb    -0.0014    -0.733    -0.261    -0.244 -0.3709 -0.4914  0.7880
              Bcc     0.0032     1.699     0.606     0.567  0.7929 -0.6093 -0.0068
 
              Baa    -0.0038    -0.507    -0.181    -0.169  0.9983  0.0549  0.0193
    56 C(13)  Bbb    -0.0034    -0.462    -0.165    -0.154 -0.0190 -0.0058  0.9998
              Bcc     0.0072     0.969     0.346     0.323 -0.0550  0.9985  0.0048
 
              Baa    -0.0032    -1.687    -0.602    -0.563 -0.6218  0.0457  0.7818
    57 H(1)   Bbb    -0.0029    -1.568    -0.560    -0.523  0.7719  0.2044  0.6020
              Bcc     0.0061     3.255     1.161     1.086 -0.1323  0.9778 -0.1623
 
              Baa    -0.0030    -1.607    -0.574    -0.536  0.5438 -0.0593  0.8371
    58 H(1)   Bbb    -0.0028    -1.503    -0.536    -0.501  0.8276  0.2033 -0.5232
              Bcc     0.0058     3.110     1.110     1.038 -0.1391  0.9773  0.1596
 
              Baa    -0.0024    -1.264    -0.451    -0.422  0.1721 -0.0212  0.9849
    59 H(1)   Bbb    -0.0023    -1.251    -0.446    -0.417  0.9778 -0.1181 -0.1734
              Bcc     0.0047     2.515     0.898     0.839  0.1200  0.9928  0.0004
 
              Baa    -0.0038    -0.510    -0.182    -0.170 -0.0754 -0.0106  0.9971
    60 C(13)  Bbb    -0.0035    -0.463    -0.165    -0.154  0.8137 -0.5786  0.0554
              Bcc     0.0073     0.973     0.347     0.325  0.5763  0.8155  0.0523
 
              Baa    -0.0023    -1.229    -0.439    -0.410 -0.0870 -0.0058  0.9962
    61 H(1)   Bbb    -0.0021    -1.111    -0.397    -0.371  0.8930 -0.4437  0.0754
              Bcc     0.0044     2.341     0.835     0.781  0.4416  0.8962  0.0437
 
              Baa    -0.0029    -1.531    -0.546    -0.511 -0.5993  0.2529  0.7595
    62 H(1)   Bbb    -0.0028    -1.508    -0.538    -0.503  0.5309 -0.5845  0.6136
              Bcc     0.0057     3.039     1.084     1.014  0.5991  0.7709  0.2160
 
              Baa    -0.0029    -1.567    -0.559    -0.523  0.5845 -0.4007  0.7055
    63 H(1)   Bbb    -0.0029    -1.545    -0.551    -0.515 -0.5099  0.4950  0.7036
              Bcc     0.0058     3.112     1.110     1.038  0.6311  0.7710 -0.0850
 
              Baa    -0.0158    -2.117    -0.755    -0.706  0.9171  0.1012  0.3857
    64 C(13)  Bbb    -0.0121    -1.618    -0.577    -0.540 -0.0832  0.9945 -0.0632
              Bcc     0.0278     3.735     1.333     1.246 -0.3899  0.0258  0.9205
 
              Baa    -0.0151    -8.041    -2.869    -2.682 -0.1200  0.9157 -0.3835
    65 H(1)   Bbb    -0.0141    -7.498    -2.675    -2.501  0.7306  0.3430  0.5904
              Bcc     0.0291    15.539     5.545     5.183 -0.6722  0.2093  0.7102
 
              Baa    -0.0074    -3.954    -1.411    -1.319  0.0212  0.9991 -0.0357
    66 H(1)   Bbb    -0.0063    -3.386    -1.208    -1.130  0.9066 -0.0041  0.4220
              Bcc     0.0138     7.340     2.619     2.448 -0.4215  0.0413  0.9059
 
              Baa    -0.0133    -7.119    -2.540    -2.375 -0.0705  0.9544  0.2901
    67 H(1)   Bbb    -0.0122    -6.514    -2.324    -2.173  0.8142 -0.1130  0.5695
              Bcc     0.0256    13.633     4.865     4.547 -0.5763 -0.2764  0.7691
 
              Baa    -0.1765    -7.236    -2.582    -2.414  0.5866  0.8041 -0.0963
    68 S(33)  Bbb    -0.1489    -6.104    -2.178    -2.036  0.8013 -0.5936 -0.0748
              Bcc     0.3254    13.339     4.760     4.449  0.1173  0.0333  0.9925
 
              Baa    -0.0253   -13.499    -4.817    -4.503  0.9939 -0.1075 -0.0237
    69 H(1)   Bbb    -0.0202   -10.783    -3.848    -3.597  0.0811  0.8604 -0.5031
              Bcc     0.0455    24.282     8.664     8.099  0.0745  0.4982  0.8639
 

 ---------------------------------------------------------------------------------

 Unable to Open any file for archive entry.
 1\1\GINC-BGN1039\SP\UAPFD\Gen\C31H32Fe1N4S1(5)\BECSLEIP\11-Nov-2024\0\
 \# apfd/gen scf=maxcycle=999 geom=check\\6hqn_II_Q\\0,5\Fe,0,41.670025
 009,82.8906674369,42.3470654312\N,0,42.4692765418,83.7948570742,40.740
 3304573\N,0,43.4851738388,82.9291925051,43.2222527153\N,0,41.108172034
 ,81.5183043416,43.6885702947\N,0,40.0817288874,82.4164328846,41.215603
 0258\C,0,41.8967216673,84.0012485456,39.5202944665\C,0,42.766356459,84
 .7702315319,38.6611063911\C,0,43.8579124078,85.0858655795,39.408280713
 \C,0,43.6608620945,84.4602137501,40.6961210934\C,0,44.5190653634,83.75
 3881388,42.879643611\C,0,45.540535092,83.7563207626,43.8928578796\C,0,
 45.0972534374,82.9238369235,44.8861816132\C,0,43.8120074352,82.4244993
 391,44.4446438963\C,0,41.7934982456,81.0838987113,44.7855603365\C,0,40
 .98653332,80.2014918355,45.5876537198\C,0,39.7755623473,80.1105281717,
 44.9568310071\C,0,39.8817992111,80.9335110079,43.7682513978\C,0,38.978
 0762928,81.7409408784,41.6397037126\C,0,37.9442369925,81.7540089354,40
 .629064865\C,0,38.4562695281,82.4348546245,39.5691734134\C,0,39.785542
 8542,82.8479741382,39.9579437108\C,0,40.638565371,83.569126009,39.1470
 030024\H,0,40.2955985601,83.8215457791,38.1557832017\C,0,44.6063538716
 ,84.471206724,41.7005678685\H,0,45.4923643413,85.0660506793,41.5424062
 832\C,0,43.0613344573,81.500931036,45.1443233928\H,0,43.461848322,81.1
 303348252,46.0747882564\C,0,38.8650758315,81.0768833131,42.8445789006\
 H,0,37.926642311,80.5880284237,43.0546158797\C,0,45.0659079851,85.8714
 078632,39.0307345997\H,0,45.2287927581,86.6884603228,39.7334077507\H,0
 ,44.9549516393,86.2934797102,38.035359324\H,0,45.9525451337,85.2372344
 797,39.0374101087\C,0,42.450008089,85.1288563934,37.2506333586\H,0,41.
 5733455095,85.7757830564,37.2054310973\H,0,42.2397042314,84.232708603,
 36.6680811929\H,0,43.2843879279,85.6496001259,36.7882259531\C,0,46.837
 386007,84.4805501194,43.8005774302\H,0,46.7168232372,85.5319300181,44.
 0670596046\H,0,47.2340230678,84.4324741906,42.7876315817\H,0,47.561630
 3889,84.0347559588,44.4788714064\C,0,45.743372993,82.5581560238,46.127
 8881799\H,0,45.5705097978,81.5434668629,46.4663509186\C,0,46.504677573
 7,83.3621143027,46.862098838\H,0,46.6718731252,84.3921855345,46.599053
 3638\H,0,46.9679506343,83.0211826222,47.7728101774\C,0,41.4548094674,7
 9.4927247281,46.8092269793\H,0,41.4076530946,80.1487243432,47.67985518
 27\H,0,42.4854034444,79.1618644999,46.6903363802\H,0,40.8287470676,78.
 6234306316,46.9991439928\C,0,38.6088093656,79.3393487469,45.3273719994
 \H,0,38.0314717898,78.9365238055,44.5036087582\C,0,38.2093941272,79.10
 47066259,46.5725829754\H,0,38.7185419383,79.5198175649,47.4247847205\H
 ,0,37.3364629969,78.5089469775,46.7811531622\C,0,36.6140724169,81.1019
 133209,40.7806820203\H,0,36.0981922785,81.4858772124,41.6605657195\H,0
 ,36.7281292827,80.0240085873,40.8979805935\H,0,35.9915078412,81.286731
 3285,39.9088849187\C,0,37.8384350854,82.7339522945,38.2472297604\H,0,3
 6.83539384,82.3196423021,38.1875169928\H,0,38.4347978467,82.3053644323
 ,37.4417314862\H,0,37.7762538369,83.8105121525,38.0864033299\C,0,40.65
 50494915,86.0928391943,42.1856938515\H,0,41.5835436762,86.2044653055,4
 1.6366453446\H,0,40.39055058,87.0098062992,42.7033147605\H,0,39.859763
 7366,85.7993648045,41.5082514779\S,0,40.8188346088,84.7385670404,43.40
 96128024\H,0,41.8978999631,85.2656544597,44.0085973688\\Version=ES64L-
 G16RevC.02\State=5-A\HF=-3080.2404225\S2=6.058659\S2-1=0.\S2A=6.000312
 \RMSD=4.433e-09\Dipole=-0.2028266,1.1467016,-0.3174885\Quadrupole=0.02
 72094,-1.6281995,1.6009901,6.9582796,4.8865813,-6.7715884\PG=C01 [X(C3
 1H32Fe1N4S1)]\\@
 The archive entry for this job was punched.


     SCHOPENHAUER'S LAW OF ENTROPY
 IF YOU PUT A SPOONFUL OF WINE IN A BARREL FULL
 OF SEWAGE, YOU GET SEWAGE.
 IF YOU PUT A SPOONFUL OF SEWAGE IN A BARREL FULL
 OF WINE, YOU GET SEWAGE.
 Job cpu time:       0 days  2 hours 21 minutes 35.6 seconds.
 Elapsed time:       0 days  0 hours  2 minutes 26.0 seconds.
 File lengths (MBytes):  RWF=    343 Int=      0 D2E=      0 Chk=    150 Scr=      1
 Normal termination of Gaussian 16 at Mon Nov 11 15:59:09 2024.
