 Entering Gaussian System, Link 0=g16
 Input=6hqq12re.com
 Output=6hqq12re.log
 Initial command:
 /sw/chem/gaussian/g16_C02/a100/g16/l1.exe "/local/becsleip_8076557/Gau-127905.inp" -scrdir="/local/becsleip_8076557/"
 Entering Link 1 = /sw/chem/gaussian/g16_C02/a100/g16/l1.exe PID=    127906.
  
 Copyright (c) 1988-2021, Gaussian, Inc.  All Rights Reserved.
  
 This is part of the Gaussian(R) 16 program.  It is based on
 the Gaussian(R) 09 system (copyright 2009, Gaussian, Inc.),
 the Gaussian(R) 03 system (copyright 2003, Gaussian, Inc.),
 the Gaussian(R) 98 system (copyright 1998, Gaussian, Inc.),
 the Gaussian(R) 94 system (copyright 1995, Gaussian, Inc.),
 the Gaussian 92(TM) system (copyright 1992, Gaussian, Inc.),
 the Gaussian 90(TM) system (copyright 1990, Gaussian, Inc.),
 the Gaussian 88(TM) system (copyright 1988, Gaussian, Inc.),
 the Gaussian 86(TM) system (copyright 1986, Carnegie Mellon
 University), and the Gaussian 82(TM) system (copyright 1983,
 Carnegie Mellon University). Gaussian is a federally registered
 trademark of Gaussian, Inc.
  
 This software contains proprietary and confidential information,
 including trade secrets, belonging to Gaussian, Inc.
  
 This software is provided under written license and may be
 used, copied, transmitted, or stored only in accord with that
 written license.
  
 The following legend is applicable only to US Government
 contracts under FAR:
  
                    RESTRICTED RIGHTS LEGEND
  
 Use, reproduction and disclosure by the US Government is
 subject to restrictions as set forth in subparagraphs (a)
 and (c) of the Commercial Computer Software - Restricted
 Rights clause in FAR 52.227-19.
  
 Gaussian, Inc.
 340 Quinnipiac St., Bldg. 40, Wallingford CT 06492
  
  
 ---------------------------------------------------------------
 Warning -- This program may not be used in any manner that
 competes with the business of Gaussian, Inc. or will provide
 assistance to any competitor of Gaussian, Inc.  The licensee
 of this program is prohibited from giving any competitor of
 Gaussian, Inc. access to this program.  By using this program,
 the user acknowledges that Gaussian, Inc. is engaged in the
 business of creating and licensing software in the field of
 computational chemistry and represents and warrants to the
 licensee that it is not a competitor of Gaussian, Inc. and that
 it will not use this program in any manner prohibited above.
 ---------------------------------------------------------------
  

 Cite this work as:
 Gaussian 16, Revision C.02,
 M. J. Frisch, G. W. Trucks, H. B. Schlegel, G. E. Scuseria, 
 M. A. Robb, J. R. Cheeseman, G. Scalmani, V. Barone, 
 G. A. Petersson, H. Nakatsuji, X. Li, M. Caricato, A. V. Marenich, 
 J. Bloino, B. G. Janesko, R. Gomperts, B. Mennucci, H. P. Hratchian, 
 J. V. Ortiz, A. F. Izmaylov, J. L. Sonnenberg, D. Williams-Young, 
 F. Ding, F. Lipparini, F. Egidi, J. Goings, B. Peng, A. Petrone, 
 T. Henderson, D. Ranasinghe, V. G. Zakrzewski, J. Gao, N. Rega, 
 G. Zheng, W. Liang, M. Hada, M. Ehara, K. Toyota, R. Fukuda, 
 J. Hasegawa, M. Ishida, T. Nakajima, Y. Honda, O. Kitao, H. Nakai, 
 T. Vreven, K. Throssell, J. A. Montgomery, Jr., J. E. Peralta, 
 F. Ogliaro, M. J. Bearpark, J. J. Heyd, E. N. Brothers, K. N. Kudin, 
 V. N. Staroverov, T. A. Keith, R. Kobayashi, J. Normand, 
 K. Raghavachari, A. P. Rendell, J. C. Burant, S. S. Iyengar, 
 J. Tomasi, M. Cossi, J. M. Millam, M. Klene, C. Adamo, R. Cammi, 
 J. W. Ochterski, R. L. Martin, K. Morokuma, O. Farkas, 
 J. B. Foresman, and D. J. Fox, Gaussian, Inc., Wallingford CT, 2019.
 
 ******************************************
 Gaussian 16:  ES64L-G16RevC.02  7-Dec-2021
                11-Nov-2024 
 ******************************************
 %mem=16GB
 %CPU=0-71
 SetSPE:  set environment variable "OMP_PROC_BIND" = "true"
 SetSPE:  set environment variable "OMP_PLACES" = "{0},{1},{2},{3},{4},{5},{6},{7},{8},{9},{10},{11},{12},{13},{14},{15},{16},{17},{18},{19},{20},{21},{22},{23},{24},{25},{26},{27},{28},{29},{30},{31},{32},{33},{34},{35},{36},{37},{38},{39},{40},{41},{42},{43},{44},{45},{46},{47},{48},{49},{50},{51},{52},{53},{54},{55},{56},{57},{58},{59},{60},{61},{62},{63},{64},{65},{66},{67},{68},{69},{70},{71}"
 Will use up to   72 processors via shared memory.
 %gpucpu=0,1,2,3=0,1,2,3
 Will use    4 GPUs:
 Thread  CPU   GPU
      0    0     0
      1    1     1
      2    2     2
      3    3     3
      4    4    -1
      5    5    -1
      6    6    -1
      7    7    -1
      8    8    -1
      9    9    -1
     10   10    -1
     11   11    -1
     12   12    -1
     13   13    -1
     14   14    -1
     15   15    -1
     16   16    -1
     17   17    -1
     18   18    -1
     19   19    -1
     20   20    -1
     21   21    -1
     22   22    -1
     23   23    -1
     24   24    -1
     25   25    -1
     26   26    -1
     27   27    -1
     28   28    -1
     29   29    -1
     30   30    -1
     31   31    -1
     32   32    -1
     33   33    -1
     34   34    -1
     35   35    -1
     36   36    -1
     37   37    -1
     38   38    -1
     39   39    -1
     40   40    -1
     41   41    -1
     42   42    -1
     43   43    -1
     44   44    -1
     45   45    -1
     46   46    -1
     47   47    -1
     48   48    -1
     49   49    -1
     50   50    -1
     51   51    -1
     52   52    -1
     53   53    -1
     54   54    -1
     55   55    -1
     56   56    -1
     57   57    -1
     58   58    -1
     59   59    -1
     60   60    -1
     61   61    -1
     62   62    -1
     63   63    -1
     64   64    -1
     65   65    -1
     66   66    -1
     67   67    -1
     68   68    -1
     69   69    -1
     70   70    -1
     71   71    -1
 SetGPE:  set environment variable "OMP_PROC_BIND" = "true"
 SetGPE:  set environment variable "OMP_PLACES" = "{0},{1},{2},{3},{4},{5},{6},{7},{8},{9},{10},{11},{12},{13},{14},{15},{16},{17},{18},{19},{20},{21},{22},{23},{24},{25},{26},{27},{28},{29},{30},{31},{32},{33},{34},{35},{36},{37},{38},{39},{40},{41},{42},{43},{44},{45},{46},{47},{48},{49},{50},{51},{52},{53},{54},{55},{56},{57},{58},{59},{60},{61},{62},{63},{64},{65},{66},{67},{68},{69},{70},{71}"
 %oldchk=6hqq_II_S.chk
 %chk=6hqq_II_Sre.chk
 Properties for Device   0
 Minimum vector length:                              32
 Maximum vector length:                            1024
 Number of SMPs:                                    108
 Maximum number of threads per SMP:                2048
 Number of ASync Engines:                             5
 Memory:                                           9207742464
 Properties for Device   1
 Minimum vector length:                              32
 Maximum vector length:                            1024
 Number of SMPs:                                    108
 Maximum number of threads per SMP:                2048
 Number of ASync Engines:                             5
 Memory:                                           9207742464
 Properties for Device   2
 Minimum vector length:                              32
 Maximum vector length:                            1024
 Number of SMPs:                                    108
 Maximum number of threads per SMP:                2048
 Number of ASync Engines:                             5
 Memory:                                           9207742464
 Properties for Device   3
 Minimum vector length:                              32
 Maximum vector length:                            1024
 Number of SMPs:                                    108
 Maximum number of threads per SMP:                2048
 Number of ASync Engines:                             5
 Memory:                                           9207742464
   8286968217 words of memory will be used on each GPU.
 Copying data from "6hqq_II_S.chk" to current chk file "6hqq_II_Sre.chk"
 IOpt=  2 FromEx=T IUOpen= 4 IOptOp= 5 NList=   0 IFRang= 0 IUIn= 4 IUOut= 2.
 --------------------------------------
 # apfd/gen scf=maxcycle=999 geom=check
 --------------------------------------
 1/29=2,38=1,172=1/1;
 2/12=2,40=1/2;
 3/5=7,11=2,14=-4,25=1,30=1,74=-44/1,2,3;
 4//1;
 5/5=2,7=999,38=5/2;
 6/7=2,8=2,9=2,10=2,28=1/1;
 99/5=1,9=1/99;
 ----------
 6hqq_III_D
 ----------
 Structure from the checkpoint file:  "6hqq_II_Sre.chk"
 Charge =  1 Multiplicity = 2
 Z-Matrix found in chk file.
 Fe,0,42.089106431,83.0697633357,43.3525909889
 N,0,42.8426913352,83.9727550924,41.7316950841
 N,0,43.9165107721,83.0473116702,44.1799052678
 N,0,41.5134679078,81.7002384634,44.6985712771
 N,0,40.454720098,82.6240736962,42.2494390411
 C,0,42.2507385341,84.2015245704,40.5245078548
 C,0,43.1013093846,84.9962858393,39.6698181522
 C,0,44.2288645139,85.2517242282,40.385609514
 C,0,44.0557854303,84.5968517724,41.6621131052
 C,0,44.9556527154,83.8565076589,43.8202085016
 C,0,46.0022166739,83.8287372578,44.8076823721
 C,0,45.5802430441,82.9709610364,45.7884508584
 C,0,44.2720858059,82.5060479235,45.3768137825
 C,0,42.217394063,81.2358532604,45.7712975938
 C,0,41.4219781171,80.3398341383,46.5701962285
 C,0,40.1987816983,80.2690583091,45.9618336186
 C,0,40.2872432365,81.1166164196,44.7886512052
 C,0,39.35568601,81.9465930306,42.6834421661
 C,0,38.3071199787,81.9690169658,41.6893030424
 C,0,38.8013114313,82.664682203,40.6301537689
 C,0,40.1401957906,83.0627601715,40.9977004317
 C,0,40.9814270479,83.7837802452,40.1733050375
 H,0,40.6202339518,84.0452102443,39.191044117
 C,0,45.0215225203,84.5869970956,42.647714387
 H,0,45.9148308087,85.1652550646,42.4703024141
 C,0,43.5050518092,81.6158804033,46.1004892287
 H,0,43.9209214201,81.2241651364,47.0155074022
 C,0,39.2543339903,81.2791786217,43.8875771909
 H,0,38.3178995411,80.7900766227,44.1057319477
 C,0,45.4424654903,86.0214654242,39.9943658991
 H,0,45.6337858357,86.825454476,40.7052761945
 H,0,45.3200845558,86.459058168,39.0069303866
 H,0,46.3172110679,85.371084969,39.9749530769
 C,0,42.7459817597,85.4088615206,38.2834803307
 H,0,41.8378300546,86.0124682944,38.2818648728
 H,0,42.5713433742,84.5334952691,37.6580482608
 H,0,43.5467042255,85.9935336878,37.8379523583
 C,0,47.3048315364,84.5394870272,44.6945403791
 H,0,47.2021965621,85.5869288975,44.9827791139
 H,0,47.6744148078,84.5058821035,43.6707641773
 H,0,48.041615922,84.0738285752,45.3453589234
 C,0,46.2579949325,82.5572822118,46.9977480068
 H,0,46.0805400057,81.534005104,47.306858121
 C,0,47.0521945998,83.3261871267,47.7346285989
 H,0,47.2242149412,84.3623325119,47.5007260069
 H,0,47.5368781565,82.949382528,48.6196943626
 C,0,41.9111401452,79.6029174771,47.7665656062
 H,0,41.8952543146,80.2444313491,48.6489675379
 H,0,42.9338387599,79.260848494,47.6156568227
 H,0,41.2786486404,78.7385784439,47.9575176058
 C,0,39.0343742334,79.4973122123,46.3389661463
 H,0,38.4399958912,79.1112391074,45.5194009194
 C,0,38.6560010215,79.2452346782,47.5873415763
 H,0,39.1836151055,79.6436155472,48.4362609594
 H,0,37.7832326534,78.6515979545,47.8023311092
 C,0,36.9765557923,81.3211703742,41.8561899069
 H,0,36.4810264215,81.6880841067,42.7549822264
 H,0,37.0867308426,80.2403608775,41.9474659418
 H,0,36.3368198754,81.5281185907,41.0019851812
 C,0,38.1603671913,82.9820803984,39.3236030964
 H,0,37.1442408488,82.5977205881,39.2888790276
 H,0,38.7233017864,82.5359644787,38.5035735123
 H,0,38.1263076311,84.0600486256,39.164018328
 C,0,40.2630843981,85.8403890444,43.1906441506
 H,0,40.7359639749,85.8230502842,42.2140870789
 H,0,40.0942364481,86.8566134695,43.5326602903
 H,0,39.3251505078,85.2961027444,43.1540501103
 S,0,41.3234011556,84.9646529323,44.4000288907
 H,0,42.3671004721,85.7953898496,44.2541993256
 Recover connectivity data from disk.
 Stoichiometry    C31H32FeN4S(1+,2)
 Framework group  C1[X(C31H32FeN4S)]
 Deg. of freedom   201
 Full point group                 C1      NOp   1
 Largest Abelian subgroup         C1      NOp   1
 Largest concise Abelian subgroup C1      NOp   1
                         Standard orientation:                         
 ---------------------------------------------------------------------
 Center     Atomic      Atomic             Coordinates (Angstroms)
 Number     Number       Type             X           Y           Z
 ---------------------------------------------------------------------
      1         26           0        0.126778   -0.073157    0.026122
      2          7           0        1.215848   -1.725831   -0.279133
      3          7           0       -1.549012   -1.127127   -0.298279
      4          7           0       -0.934199    1.607195   -0.237255
      5          7           0        1.822821    0.997790   -0.225498
      6          6           0        2.565946   -1.847513   -0.429050
      7          6           0        2.958442   -3.235267   -0.504537
      8          6           0        1.814186   -3.961467   -0.393636
      9          6           0        0.738032   -3.005464   -0.266249
     10          6           0       -1.657892   -2.484855   -0.204930
     11          6           0       -3.036990   -2.894410   -0.165882
     12          6           0       -3.779491   -1.746235   -0.244220
     13          6           0       -2.826476   -0.658311   -0.315260
     14          6           0       -2.285762    1.727921   -0.380815
     15          6           0       -2.684356    3.110728   -0.433182
     16          6           0       -1.536293    3.844308   -0.310161
     17          6           0       -0.457366    2.881491   -0.203220
     18          6           0        1.931737    2.353722   -0.156200
     19          6           0        3.316219    2.765343   -0.201864
     20          6           0        4.048899    1.625225   -0.317117
     21          6           0        3.100856    0.535652   -0.331679
     22          6           0        3.458547   -0.793060   -0.448943
     23          1           0        4.506816   -1.024064   -0.555767
     24          6           0       -0.591554   -3.365280   -0.183247
     25          1           0       -0.816429   -4.419372   -0.136557
     26          6           0       -3.178434    0.672823   -0.408286
     27          1           0       -4.229310    0.911279   -0.457741
     28          6           0        0.872335    3.236943   -0.099253
     29          1           0        1.106394    4.288296   -0.039282
     30          6           0        1.627113   -5.438985   -0.412198
     31          1           0        1.113834   -5.773079    0.489645
     32          1           0        2.585522   -5.948531   -0.469722
     33          1           0        1.028270   -5.737158   -1.273029
     34          6           0        4.362453   -3.701029   -0.678398
     35          1           0        4.986881   -3.359420    0.147724
     36          1           0        4.782451   -3.308702   -1.604471
     37          1           0        4.406886   -4.786458   -0.715316
     38          6           0       -3.510467   -4.305001   -0.137139
     39          1           0       -3.469514   -4.707973    0.876116
     40          1           0       -2.890225   -4.932669   -0.775238
     41          1           0       -4.538390   -4.360686   -0.488603
     42          6           0       -5.216824   -1.584831   -0.274217
     43          1           0       -5.583432   -0.770007   -0.887239
     44          6           0       -6.088598   -2.340518    0.384500
     45          1           0       -5.777276   -3.131258    1.044582
     46          1           0       -7.149775   -2.172630    0.307319
     47          6           0       -4.075317    3.588585   -0.657918
     48          1           0       -4.647967    3.561925    0.270406
     49          1           0       -4.584355    2.960424   -1.387295
     50          1           0       -4.063868    4.612138   -1.026428
     51          6           0       -1.365141    5.281078   -0.318230
     52          1           0       -0.455987    5.644124   -0.782625
     53          6           0       -2.222124    6.155788    0.197146
     54          1           0       -3.115940    5.846390    0.710093
     55          1           0       -2.042154    7.216691    0.147691
     56          6           0        3.774559    4.181189   -0.144760
     57          1           0        3.394041    4.671979    0.750971
     58          1           0        3.414977    4.734364   -1.012699
     59          1           0        4.860230    4.235022   -0.131493
     60          6           0        5.524818    1.454818   -0.423183
     61          1           0        6.029272    2.415893   -0.365631
     62          1           0        5.788089    0.986288   -1.371619
     63          1           0        5.897482    0.821644    0.382333
     64          6           0        1.835449   -0.311604    2.865230
     65          1           0        2.364252   -1.008460    2.223095
     66          1           0        1.862573   -0.628245    3.903112
     67          1           0        2.265264    0.679513    2.763972
     68         16           0        0.092242   -0.178488    2.319972
     69          1           0       -0.187954   -1.474294    2.527517
 ---------------------------------------------------------------------
 Rotational constants (GHZ):           0.1103028           0.1092316           0.0596876
 General basis read from cards:  (5D, 7F)
 There are   644 symmetry adapted cartesian basis functions of A   symmetry.
 There are   605 symmetry adapted basis functions of A   symmetry.
   605 basis functions,  1246 primitive gaussians,   644 cartesian basis functions
   144 alpha electrons      143 beta electrons
       nuclear repulsion energy      5027.9513426416 Hartrees.
 NAtoms=   69 NActive=   69 NUniq=   69 SFac= 1.00D+00 NAtFMM=   60 NAOKFM=T Big=T
 Integral buffers will be    131072 words long.
 Raffenetti 2 integral format.
 Two-electron integral symmetry is turned on.
 R6APFD:  NTU= -4 IXU= 1 FactS= 1.050
 Nuclear repulsion after empirical dispersion term =     5027.8215770256 Hartrees.
 One-electron integrals computed using PRISM.
 NBasis=   605 RedAO= T EigKep=  2.53D-04  NBF=   605
 NBsUse=   605 1.00D-06 EigRej= -1.00D+00 NBFU=   605
 ExpMin= 4.20D-02 ExpMax= 3.01D+05 ExpMxC= 3.30D+03 IAcc=3 IRadAn=         5 AccDes= 0.00D+00
 Harris functional with IExCor= 3731 and IRadAn=       5 diagonalized for initial guess.
 HarFok:  IExCor= 3731 AccDes= 0.00D+00 IRadAn=         5 IDoV= 1 UseB2=F ITyADJ=14
 ICtDFT=  3500011 ScaDFX=  1.000000  1.000000  1.000000  1.000000
 FoFCou: FMM=F IPFlag=           0 FMFlag=      100000 FMFlg1=        2001
         NFxFlg=           0 DoJE=T BraDBF=F KetDBF=T FulRan=T
         wScrn=  0.000000 ICntrl=       500 IOpCl=  0 I1Cent=   200000004 NGrid=           0
         NMat0=    1 NMatS0=      1 NMatT0=    0 NMatD0=    1 NMtDS0=    0 NMtDT0=    0
 Petite list used in FoFCou.
 Initial guess <Sx>= 0.0000 <Sy>= 0.0000 <Sz>= 0.5000 <S**2>= 0.7500 S= 0.5000
 Requested convergence on RMS density matrix=1.00D-08 within 999 cycles.
 Requested convergence on MAX density matrix=1.00D-06.
 Requested convergence on             energy=1.00D-06.
 No special actions if energy rises.
 EnCoef did   100 forward-backward iterations
 EnCoef did   100 forward-backward iterations
 EnCoef did   100 forward-backward iterations
 EnCoef did   100 forward-backward iterations
 EnCoef did     4 forward-backward iterations
 Rare condition: small coef for last iteration:  0.000D+00
 Restarting incremental Fock formation.
 Rare condition: small coef for last iteration:  0.000D+00
 Rare condition: small coef for last iteration:  0.000D+00
 Rare condition: small coef for last iteration:  0.000D+00
 Rare condition: small coef for last iteration:  0.000D+00
 Rare condition: small coef for last iteration:  0.000D+00
 Rare condition: small coef for last iteration:  0.000D+00
 Rare condition: small coef for last iteration:  0.000D+00
 Restarting incremental Fock formation.
 Rare condition: small coef for last iteration:  0.000D+00
 Rare condition: small coef for last iteration:  0.000D+00
 Rare condition: small coef for last iteration:  0.000D+00
 Rare condition: small coef for last iteration:  0.000D+00
 Rare condition: small coef for last iteration:  0.000D+00
 Rare condition: small coef for last iteration:  0.000D+00
 Restarting incremental Fock formation.
 Restarting incremental Fock formation.
 Restarting incremental Fock formation.
 Restarting incremental Fock formation.
 Restarting incremental Fock formation.
 SCF Done:  E(UAPFD) =  -3080.03259682     A.U. after  142 cycles
            NFock=142  Conv=0.95D-08     -V/T= 2.0033
 <Sx>= 0.0000 <Sy>= 0.0000 <Sz>= 0.5000 <S**2>= 1.2936 S= 0.7424
 <L.S>=  0.00000000000    
 Annihilation of the first spin contaminant:
 S**2 before annihilation     1.2936,   after     0.8071

 **********************************************************************

            Population analysis using the SCF Density.

 **********************************************************************

 Orbital symmetries:
 Alpha Orbitals:
       Occupied  (A) (A) (A) (A) (A) (A) (A) (A) (A) (A) (A) (A)
                 (A) (A) (A) (A) (A) (A) (A) (A) (A) (A) (A) (A)
                 (A) (A) (A) (A) (A) (A) (A) (A) (A) (A) (A) (A)
                 (A) (A) (A) (A) (A) (A) (A) (A) (A) (A) (A) (A)
                 (A) (A) (A) (A) (A) (A) (A) (A) (A) (A) (A) (A)
                 (A) (A) (A) (A) (A) (A) (A) (A) (A) (A) (A) (A)
                 (A) (A) (A) (A) (A) (A) (A) (A) (A) (A) (A) (A)
                 (A) (A) (A) (A) (A) (A) (A) (A) (A) (A) (A) (A)
                 (A) (A) (A) (A) (A) (A) (A) (A) (A) (A) (A) (A)
                 (A) (A) (A) (A) (A) (A) (A) (A) (A) (A) (A) (A)
                 (A) (A) (A) (A) (A) (A) (A) (A) (A) (A) (A) (A)
                 (A) (A) (A) (A) (A) (A) (A) (A) (A) (A) (A) (A)
       Virtual   (A) (A) (A) (A) (A) (A) (A) (A) (A) (A) (A) (A)
                 (A) (A) (A) (A) (A) (A) (A) (A) (A) (A) (A) (A)
                 (A) (A) (A) (A) (A) (A) (A) (A) (A) (A) (A) (A)
                 (A) (A) (A) (A) (A) (A) (A) (A) (A) (A) (A) (A)
                 (A) (A) (A) (A) (A) (A) (A) (A) (A) (A) (A) (A)
                 (A) (A) (A) (A) (A) (A) (A) (A) (A) (A) (A) (A)
                 (A) (A) (A) (A) (A) (A) (A) (A) (A) (A) (A) (A)
                 (A) (A) (A) (A) (A) (A) (A) (A) (A) (A) (A) (A)
                 (A) (A) (A) (A) (A) (A) (A) (A) (A) (A) (A) (A)
                 (A) (A) (A) (A) (A) (A) (A) (A) (A) (A) (A) (A)
                 (A) (A) (A) (A) (A) (A) (A) (A) (A) (A) (A) (A)
                 (A) (A) (A) (A) (A) (A) (A) (A) (A) (A) (A) (A)
                 (A) (A) (A) (A) (A) (A) (A) (A) (A) (A) (A) (A)
                 (A) (A) (A) (A) (A) (A) (A) (A) (A) (A) (A) (A)
                 (A) (A) (A) (A) (A) (A) (A) (A) (A) (A) (A) (A)
                 (A) (A) (A) (A) (A) (A) (A) (A) (A) (A) (A) (A)
                 (A) (A) (A) (A) (A) (A) (A) (A) (A) (A) (A) (A)
                 (A) (A) (A) (A) (A) (A) (A) (A) (A) (A) (A) (A)
                 (A) (A) (A) (A) (A) (A) (A) (A) (A) (A) (A) (A)
                 (A) (A) (A) (A) (A) (A) (A) (A) (A) (A) (A) (A)
                 (A) (A) (A) (A) (A) (A) (A) (A) (A) (A) (A) (A)
                 (A) (A) (A) (A) (A) (A) (A) (A) (A) (A) (A) (A)
                 (A) (A) (A) (A) (A) (A) (A) (A) (A) (A) (A) (A)
                 (A) (A) (A) (A) (A) (A) (A) (A) (A) (A) (A) (A)
                 (A) (A) (A) (A) (A) (A) (A) (A) (A) (A) (A) (A)
                 (A) (A) (A) (A) (A) (A) (A) (A) (A) (A) (A) (A)
                 (A) (A) (A) (A) (A) (A) (A) (A) (A) (A) (A) (A)
                 (A) (A) (A) (A) (A) (A) (A) (A) (A) (A) (A) (A)
                 (A) (A) (A) (A) (A) (A) (A) (A) (A) (A) (A) (A)
                 (A) (A) (A) (A) (A) (A) (A) (A) (A) (A) (A) (A)
                 (A) (A) (A) (A) (A) (A) (A) (A) (A) (A) (A) (A)
                 (A) (A) (A) (A) (A) (A) (A) (A) (A) (A) (A) (A)
                 (A) (A) (A) (A) (A) (A) (A) (A) (A) (A) (A) (A)
                 (A) (A) (A) (A) (A) (A) (A) (A) (A) (A) (A) (A)
                 (A) (A) (A) (A) (A) (A) (A) (A) (A) (A) (A) (A)
                 (A) (A) (A) (A) (A) (A) (A) (A) (A) (A) (A) (A)
                 (A) (A) (A) (A) (A) (A) (A) (A) (A) (A) (A) (A)
                 (A) (A) (A) (A) (A) (A) (A) (A) (A) (A) (A) (A)
                 (A) (A) (A) (A) (A)
 Beta  Orbitals:
       Occupied  (A) (A) (A) (A) (A) (A) (A) (A) (A) (A) (A) (A)
                 (A) (A) (A) (A) (A) (A) (A) (A) (A) (A) (A) (A)
                 (A) (A) (A) (A) (A) (A) (A) (A) (A) (A) (A) (A)
                 (A) (A) (A) (A) (A) (A) (A) (A) (A) (A) (A) (A)
                 (A) (A) (A) (A) (A) (A) (A) (A) (A) (A) (A) (A)
                 (A) (A) (A) (A) (A) (A) (A) (A) (A) (A) (A) (A)
                 (A) (A) (A) (A) (A) (A) (A) (A) (A) (A) (A) (A)
                 (A) (A) (A) (A) (A) (A) (A) (A) (A) (A) (A) (A)
                 (A) (A) (A) (A) (A) (A) (A) (A) (A) (A) (A) (A)
                 (A) (A) (A) (A) (A) (A) (A) (A) (A) (A) (A) (A)
                 (A) (A) (A) (A) (A) (A) (A) (A) (A) (A) (A) (A)
                 (A) (A) (A) (A) (A) (A) (A) (A) (A) (A) (A)
       Virtual   (A) (A) (A) (A) (A) (A) (A) (A) (A) (A) (A) (A)
                 (A) (A) (A) (A) (A) (A) (A) (A) (A) (A) (A) (A)
                 (A) (A) (A) (A) (A) (A) (A) (A) (A) (A) (A) (A)
                 (A) (A) (A) (A) (A) (A) (A) (A) (A) (A) (A) (A)
                 (A) (A) (A) (A) (A) (A) (A) (A) (A) (A) (A) (A)
                 (A) (A) (A) (A) (A) (A) (A) (A) (A) (A) (A) (A)
                 (A) (A) (A) (A) (A) (A) (A) (A) (A) (A) (A) (A)
                 (A) (A) (A) (A) (A) (A) (A) (A) (A) (A) (A) (A)
                 (A) (A) (A) (A) (A) (A) (A) (A) (A) (A) (A) (A)
                 (A) (A) (A) (A) (A) (A) (A) (A) (A) (A) (A) (A)
                 (A) (A) (A) (A) (A) (A) (A) (A) (A) (A) (A) (A)
                 (A) (A) (A) (A) (A) (A) (A) (A) (A) (A) (A) (A)
                 (A) (A) (A) (A) (A) (A) (A) (A) (A) (A) (A) (A)
                 (A) (A) (A) (A) (A) (A) (A) (A) (A) (A) (A) (A)
                 (A) (A) (A) (A) (A) (A) (A) (A) (A) (A) (A) (A)
                 (A) (A) (A) (A) (A) (A) (A) (A) (A) (A) (A) (A)
                 (A) (A) (A) (A) (A) (A) (A) (A) (A) (A) (A) (A)
                 (A) (A) (A) (A) (A) (A) (A) (A) (A) (A) (A) (A)
                 (A) (A) (A) (A) (A) (A) (A) (A) (A) (A) (A) (A)
                 (A) (A) (A) (A) (A) (A) (A) (A) (A) (A) (A) (A)
                 (A) (A) (A) (A) (A) (A) (A) (A) (A) (A) (A) (A)
                 (A) (A) (A) (A) (A) (A) (A) (A) (A) (A) (A) (A)
                 (A) (A) (A) (A) (A) (A) (A) (A) (A) (A) (A) (A)
                 (A) (A) (A) (A) (A) (A) (A) (A) (A) (A) (A) (A)
                 (A) (A) (A) (A) (A) (A) (A) (A) (A) (A) (A) (A)
                 (A) (A) (A) (A) (A) (A) (A) (A) (A) (A) (A) (A)
                 (A) (A) (A) (A) (A) (A) (A) (A) (A) (A) (A) (A)
                 (A) (A) (A) (A) (A) (A) (A) (A) (A) (A) (A) (A)
                 (A) (A) (A) (A) (A) (A) (A) (A) (A) (A) (A) (A)
                 (A) (A) (A) (A) (A) (A) (A) (A) (A) (A) (A) (A)
                 (A) (A) (A) (A) (A) (A) (A) (A) (A) (A) (A) (A)
                 (A) (A) (A) (A) (A) (A) (A) (A) (A) (A) (A) (A)
                 (A) (A) (A) (A) (A) (A) (A) (A) (A) (A) (A) (A)
                 (A) (A) (A) (A) (A) (A) (A) (A) (A) (A) (A) (A)
                 (A) (A) (A) (A) (A) (A) (A) (A) (A) (A) (A) (A)
                 (A) (A) (A) (A) (A) (A) (A) (A) (A) (A) (A) (A)
                 (A) (A) (A) (A) (A) (A) (A) (A) (A) (A) (A) (A)
                 (A) (A) (A) (A) (A) (A) (A) (A) (A) (A) (A) (A)
                 (A) (A) (A) (A) (A) (A)
 The electronic state is 2-A.
 Alpha  occ. eigenvalues -- -256.34829 -89.10373 -30.21847 -26.06330 -26.06209
 Alpha  occ. eigenvalues --  -26.03693 -14.49302 -14.49145 -14.48917 -14.48877
 Alpha  occ. eigenvalues --  -10.34894 -10.34863 -10.34855 -10.34785 -10.34645
 Alpha  occ. eigenvalues --  -10.34638 -10.34593 -10.34576 -10.34499 -10.32646
 Alpha  occ. eigenvalues --  -10.32615 -10.32463 -10.32458 -10.31502 -10.31436
 Alpha  occ. eigenvalues --  -10.31396 -10.31220 -10.31101 -10.31086 -10.31020
 Alpha  occ. eigenvalues --  -10.30937 -10.30039 -10.29971 -10.29288 -10.29265
 Alpha  occ. eigenvalues --  -10.29066 -10.28979 -10.28734 -10.28717 -10.28668
 Alpha  occ. eigenvalues --  -10.28617  -8.13554  -6.08112  -6.07828  -6.07319
 Alpha  occ. eigenvalues --   -3.62369  -2.41049  -2.40392  -2.34538  -1.10173
 Alpha  occ. eigenvalues --   -1.09275  -1.09012  -1.08118  -0.95026  -0.94059
 Alpha  occ. eigenvalues --   -0.93048  -0.92788  -0.92508  -0.92249  -0.92094
 Alpha  occ. eigenvalues --   -0.91856  -0.87681  -0.86748  -0.86242  -0.85299
 Alpha  occ. eigenvalues --   -0.83974  -0.82117  -0.81026  -0.79681  -0.79430
 Alpha  occ. eigenvalues --   -0.79405  -0.79032  -0.76441  -0.76407  -0.71475
 Alpha  occ. eigenvalues --   -0.70827  -0.70152  -0.69565  -0.66328  -0.65558
 Alpha  occ. eigenvalues --   -0.64549  -0.64154  -0.62942  -0.62745  -0.62400
 Alpha  occ. eigenvalues --   -0.60088  -0.59818  -0.59430  -0.59067  -0.57719
 Alpha  occ. eigenvalues --   -0.57051  -0.55889  -0.55362  -0.55285  -0.55074
 Alpha  occ. eigenvalues --   -0.54732  -0.54392  -0.54309  -0.54045  -0.53600
 Alpha  occ. eigenvalues --   -0.53360  -0.52900  -0.52769  -0.51618  -0.51498
 Alpha  occ. eigenvalues --   -0.51425  -0.51362  -0.51254  -0.51166  -0.50817
 Alpha  occ. eigenvalues --   -0.50455  -0.50435  -0.50076  -0.49971  -0.49492
 Alpha  occ. eigenvalues --   -0.49185  -0.48900  -0.48677  -0.48273  -0.48023
 Alpha  occ. eigenvalues --   -0.47501  -0.47056  -0.46845  -0.45906  -0.45343
 Alpha  occ. eigenvalues --   -0.45144  -0.44473  -0.43757  -0.43659  -0.43212
 Alpha  occ. eigenvalues --   -0.43112  -0.41148  -0.40380  -0.39996  -0.39068
 Alpha  occ. eigenvalues --   -0.38758  -0.37967  -0.37551  -0.35640  -0.33961
 Alpha  occ. eigenvalues --   -0.33075  -0.32306  -0.31742  -0.30105
 Alpha virt. eigenvalues --   -0.25114  -0.18081  -0.18024  -0.14499  -0.12380
 Alpha virt. eigenvalues --   -0.10131  -0.08629  -0.07540  -0.06098  -0.05591
 Alpha virt. eigenvalues --   -0.02902  -0.02001  -0.01230  -0.00219   0.00554
 Alpha virt. eigenvalues --    0.01045   0.01373   0.01865   0.02266   0.03179
 Alpha virt. eigenvalues --    0.03302   0.03747   0.03962   0.04140   0.04425
 Alpha virt. eigenvalues --    0.04825   0.05174   0.05354   0.05806   0.06205
 Alpha virt. eigenvalues --    0.06860   0.07023   0.07224   0.07568   0.07939
 Alpha virt. eigenvalues --    0.08204   0.08831   0.08926   0.09440   0.09536
 Alpha virt. eigenvalues --    0.09822   0.10489   0.10987   0.11204   0.11295
 Alpha virt. eigenvalues --    0.11857   0.11957   0.12489   0.12676   0.12999
 Alpha virt. eigenvalues --    0.13670   0.14182   0.14678   0.15068   0.15151
 Alpha virt. eigenvalues --    0.15715   0.15934   0.16889   0.16927   0.17184
 Alpha virt. eigenvalues --    0.18699   0.19190   0.19649   0.20243   0.20622
 Alpha virt. eigenvalues --    0.21532   0.22339   0.22938   0.23657   0.24093
 Alpha virt. eigenvalues --    0.24476   0.24627   0.25447   0.26135   0.26572
 Alpha virt. eigenvalues --    0.26964   0.27889   0.29013   0.30144   0.31513
 Alpha virt. eigenvalues --    0.31850   0.32643   0.32962   0.33648   0.34223
 Alpha virt. eigenvalues --    0.34868   0.37292   0.37682   0.37970   0.38175
 Alpha virt. eigenvalues --    0.39024   0.39362   0.39632   0.40214   0.40811
 Alpha virt. eigenvalues --    0.41420   0.41985   0.42601   0.42907   0.43149
 Alpha virt. eigenvalues --    0.43650   0.43870   0.44444   0.44921   0.45162
 Alpha virt. eigenvalues --    0.45488   0.46042   0.47111   0.47462   0.47816
 Alpha virt. eigenvalues --    0.48060   0.48965   0.49348   0.49640   0.49799
 Alpha virt. eigenvalues --    0.50441   0.50747   0.51067   0.52026   0.52213
 Alpha virt. eigenvalues --    0.52379   0.52923   0.53372   0.53794   0.54231
 Alpha virt. eigenvalues --    0.54567   0.55297   0.55502   0.55948   0.56302
 Alpha virt. eigenvalues --    0.56779   0.57099   0.57244   0.57488   0.58248
 Alpha virt. eigenvalues --    0.59241   0.59664   0.60366   0.61269   0.61815
 Alpha virt. eigenvalues --    0.62024   0.62338   0.63066   0.63756   0.63905
 Alpha virt. eigenvalues --    0.64876   0.65024   0.65293   0.65708   0.66302
 Alpha virt. eigenvalues --    0.66365   0.67097   0.67183   0.67461   0.67742
 Alpha virt. eigenvalues --    0.68258   0.68291   0.68810   0.69255   0.69685
 Alpha virt. eigenvalues --    0.70330   0.70607   0.70683   0.71463   0.72128
 Alpha virt. eigenvalues --    0.73008   0.73539   0.74794   0.75367   0.75804
 Alpha virt. eigenvalues --    0.76325   0.76490   0.76937   0.77551   0.77973
 Alpha virt. eigenvalues --    0.78160   0.78762   0.79047   0.80024   0.80181
 Alpha virt. eigenvalues --    0.80495   0.80976   0.81795   0.82141   0.82407
 Alpha virt. eigenvalues --    0.82500   0.82865   0.83283   0.83419   0.83749
 Alpha virt. eigenvalues --    0.84448   0.84676   0.85295   0.85650   0.86141
 Alpha virt. eigenvalues --    0.86441   0.86825   0.87230   0.87737   0.88492
 Alpha virt. eigenvalues --    0.89486   0.89807   0.89902   0.90020   0.90307
 Alpha virt. eigenvalues --    0.90890   0.91299   0.91929   0.92528   0.93582
 Alpha virt. eigenvalues --    0.93750   0.93778   0.94554   0.95406   0.95499
 Alpha virt. eigenvalues --    0.96051   0.96992   0.97288   0.97778   0.99652
 Alpha virt. eigenvalues --    1.00080   1.01906   1.02423   1.03700   1.03990
 Alpha virt. eigenvalues --    1.04587   1.05222   1.06418   1.06589   1.07145
 Alpha virt. eigenvalues --    1.07495   1.09030   1.09169   1.09824   1.10292
 Alpha virt. eigenvalues --    1.10858   1.11071   1.12428   1.13077   1.13549
 Alpha virt. eigenvalues --    1.14132   1.15380   1.15909   1.16559   1.17060
 Alpha virt. eigenvalues --    1.17542   1.17722   1.18846   1.19296   1.19627
 Alpha virt. eigenvalues --    1.21671   1.22672   1.23852   1.24043   1.25073
 Alpha virt. eigenvalues --    1.25910   1.26426   1.26525   1.26967   1.27479
 Alpha virt. eigenvalues --    1.27818   1.28654   1.28945   1.29684   1.32266
 Alpha virt. eigenvalues --    1.32715   1.33076   1.33223   1.35327   1.37017
 Alpha virt. eigenvalues --    1.37463   1.38978   1.41081   1.41760   1.42891
 Alpha virt. eigenvalues --    1.43063   1.43481   1.44026   1.44597   1.45404
 Alpha virt. eigenvalues --    1.45793   1.48434   1.48467   1.49246   1.49798
 Alpha virt. eigenvalues --    1.51381   1.51858   1.53188   1.53660   1.54967
 Alpha virt. eigenvalues --    1.57350   1.58387   1.58825   1.59089   1.59945
 Alpha virt. eigenvalues --    1.60637   1.61515   1.63844   1.66191   1.67180
 Alpha virt. eigenvalues --    1.67442   1.68049   1.68850   1.69006   1.69672
 Alpha virt. eigenvalues --    1.70204   1.70826   1.71211   1.71432   1.72571
 Alpha virt. eigenvalues --    1.72868   1.73113   1.73433   1.75244   1.76024
 Alpha virt. eigenvalues --    1.76177   1.76672   1.77274   1.78747   1.80392
 Alpha virt. eigenvalues --    1.80457   1.80713   1.80941   1.81385   1.81611
 Alpha virt. eigenvalues --    1.82320   1.84086   1.84218   1.84986   1.86369
 Alpha virt. eigenvalues --    1.88982   1.89252   1.89626   1.89873   1.90169
 Alpha virt. eigenvalues --    1.90818   1.91045   1.92402   1.92880   1.93859
 Alpha virt. eigenvalues --    1.94340   1.94802   1.95582   1.96558   1.97558
 Alpha virt. eigenvalues --    1.98987   1.99177   2.01421   2.02200   2.02935
 Alpha virt. eigenvalues --    2.04117   2.04235   2.04960   2.05725   2.06471
 Alpha virt. eigenvalues --    2.07699   2.08347   2.09458   2.10396   2.10860
 Alpha virt. eigenvalues --    2.11589   2.12018   2.12992   2.13152   2.13450
 Alpha virt. eigenvalues --    2.13883   2.14588   2.15360   2.15904   2.16355
 Alpha virt. eigenvalues --    2.16594   2.16982   2.18303   2.18826   2.19386
 Alpha virt. eigenvalues --    2.19553   2.20257   2.21140   2.21303   2.22346
 Alpha virt. eigenvalues --    2.23418   2.23943   2.24785   2.24895   2.25292
 Alpha virt. eigenvalues --    2.26253   2.26793   2.27689   2.29455   2.29988
 Alpha virt. eigenvalues --    2.30351   2.31237   2.32099   2.32474   2.33546
 Alpha virt. eigenvalues --    2.33905   2.34281   2.34466   2.37235   2.38212
 Alpha virt. eigenvalues --    2.38807   2.40652   2.41432   2.42119   2.42330
 Alpha virt. eigenvalues --    2.42532   2.43588   2.44619   2.44737   2.45628
 Alpha virt. eigenvalues --    2.46088   2.49352   2.49711   2.52083   2.54133
 Alpha virt. eigenvalues --    2.54999   2.55187   2.56385   2.57225   2.58957
 Alpha virt. eigenvalues --    2.59848   2.60107   2.64788   2.66644   2.67400
 Alpha virt. eigenvalues --    2.69030   2.70383   2.70470   2.75064   2.76595
 Alpha virt. eigenvalues --    2.77256   2.79435   2.80274   2.81216   2.83431
 Alpha virt. eigenvalues --    2.85231   2.85726   2.86213   2.87539   2.88248
 Alpha virt. eigenvalues --    2.89707   2.93523   2.94091   3.00941   3.02565
 Alpha virt. eigenvalues --    3.09089   3.10482   3.12120   3.18129   3.18775
 Alpha virt. eigenvalues --    3.19143   3.26685   3.28503   3.29034   3.33837
 Alpha virt. eigenvalues --    3.34275   3.42617   3.46354   3.69472   3.86414
 Alpha virt. eigenvalues --    3.95117
  Beta  occ. eigenvalues -- -256.34766 -89.10413 -30.18496 -26.03221 -26.02436
  Beta  occ. eigenvalues --  -26.02184 -14.49575 -14.49418 -14.49209 -14.49172
  Beta  occ. eigenvalues --  -10.34855 -10.34812 -10.34776 -10.34706 -10.34570
  Beta  occ. eigenvalues --  -10.34557 -10.34518 -10.34497 -10.34421 -10.32881
  Beta  occ. eigenvalues --  -10.32836 -10.32693 -10.32686 -10.31479 -10.31414
  Beta  occ. eigenvalues --  -10.31374 -10.31219 -10.31079 -10.31076 -10.31014
  Beta  occ. eigenvalues --  -10.30927 -10.30050 -10.29976 -10.29290 -10.29268
  Beta  occ. eigenvalues --  -10.29068 -10.28980 -10.28735 -10.28698 -10.28670
  Beta  occ. eigenvalues --  -10.28607  -8.13593  -6.08136  -6.07864  -6.07439
  Beta  occ. eigenvalues --   -3.54161  -2.30884  -2.30357  -2.28492  -1.10445
  Beta  occ. eigenvalues --   -1.09515  -1.09313  -1.08385  -0.95274  -0.94179
  Beta  occ. eigenvalues --   -0.93104  -0.92853  -0.92609  -0.92426  -0.92362
  Beta  occ. eigenvalues --   -0.92006  -0.87684  -0.87254  -0.86288  -0.85331
  Beta  occ. eigenvalues --   -0.84024  -0.82146  -0.81083  -0.79719  -0.79489
  Beta  occ. eigenvalues --   -0.79417  -0.79111  -0.76514  -0.76478  -0.71488
  Beta  occ. eigenvalues --   -0.70838  -0.70194  -0.69811  -0.66365  -0.65619
  Beta  occ. eigenvalues --   -0.64582  -0.64142  -0.63036  -0.62845  -0.62442
  Beta  occ. eigenvalues --   -0.60106  -0.59799  -0.59490  -0.59111  -0.57869
  Beta  occ. eigenvalues --   -0.57116  -0.55987  -0.55449  -0.55395  -0.55150
  Beta  occ. eigenvalues --   -0.54786  -0.54423  -0.54368  -0.54128  -0.53689
  Beta  occ. eigenvalues --   -0.53405  -0.52904  -0.52781  -0.51614  -0.51547
  Beta  occ. eigenvalues --   -0.51494  -0.51352  -0.51297  -0.51068  -0.50852
  Beta  occ. eigenvalues --   -0.50570  -0.50318  -0.50058  -0.49787  -0.49438
  Beta  occ. eigenvalues --   -0.49109  -0.49062  -0.48684  -0.48213  -0.47844
  Beta  occ. eigenvalues --   -0.47441  -0.46952  -0.46699  -0.45834  -0.45026
  Beta  occ. eigenvalues --   -0.44598  -0.44402  -0.43352  -0.43153  -0.42979
  Beta  occ. eigenvalues --   -0.42138  -0.40586  -0.40339  -0.39237  -0.38809
  Beta  occ. eigenvalues --   -0.36287  -0.35500  -0.34877  -0.34132  -0.33288
  Beta  occ. eigenvalues --   -0.31970  -0.31579  -0.29504
  Beta virt. eigenvalues --   -0.19949  -0.18744  -0.15842  -0.15283  -0.12781
  Beta virt. eigenvalues --   -0.10061  -0.10009  -0.08528  -0.07570  -0.05823
  Beta virt. eigenvalues --   -0.05648  -0.02766  -0.01867  -0.00713  -0.00083
  Beta virt. eigenvalues --    0.00674   0.01023   0.01604   0.01971   0.02212
  Beta virt. eigenvalues --    0.03084   0.03168   0.03664   0.03782   0.04090
  Beta virt. eigenvalues --    0.04423   0.04751   0.05114   0.05307   0.05774
  Beta virt. eigenvalues --    0.06217   0.06861   0.07023   0.07207   0.07567
  Beta virt. eigenvalues --    0.07939   0.08197   0.08818   0.08940   0.09461
  Beta virt. eigenvalues --    0.09567   0.09827   0.10512   0.10994   0.11246
  Beta virt. eigenvalues --    0.11313   0.11963   0.12154   0.12519   0.12970
  Beta virt. eigenvalues --    0.13094   0.13660   0.14237   0.14766   0.15191
  Beta virt. eigenvalues --    0.15234   0.15941   0.16068   0.16961   0.17122
  Beta virt. eigenvalues --    0.17914   0.18688   0.19210   0.19609   0.20461
  Beta virt. eigenvalues --    0.20661   0.21639   0.22395   0.22918   0.23729
  Beta virt. eigenvalues --    0.24181   0.24550   0.24700   0.25511   0.26211
  Beta virt. eigenvalues --    0.26608   0.27031   0.27929   0.29094   0.30047
  Beta virt. eigenvalues --    0.31509   0.31901   0.32593   0.32932   0.33619
  Beta virt. eigenvalues --    0.34197   0.34955   0.37329   0.37702   0.37980
  Beta virt. eigenvalues --    0.38176   0.39023   0.39360   0.39593   0.40281
  Beta virt. eigenvalues --    0.40810   0.41427   0.41958   0.42568   0.42875
  Beta virt. eigenvalues --    0.43089   0.43732   0.43928   0.44436   0.44862
  Beta virt. eigenvalues --    0.45124   0.45450   0.45924   0.47070   0.47390
  Beta virt. eigenvalues --    0.47834   0.48056   0.48773   0.49232   0.49502
  Beta virt. eigenvalues --    0.49575   0.50379   0.50656   0.51046   0.52055
  Beta virt. eigenvalues --    0.52256   0.52301   0.52825   0.53335   0.53846
  Beta virt. eigenvalues --    0.54245   0.54579   0.55279   0.55444   0.55797
  Beta virt. eigenvalues --    0.56317   0.56575   0.57038   0.57175   0.57370
  Beta virt. eigenvalues --    0.58177   0.59219   0.59614   0.60512   0.61267
  Beta virt. eigenvalues --    0.61842   0.62091   0.62362   0.63021   0.63785
  Beta virt. eigenvalues --    0.63972   0.64849   0.65106   0.65362   0.65690
  Beta virt. eigenvalues --    0.66286   0.66467   0.67129   0.67159   0.67541
  Beta virt. eigenvalues --    0.67812   0.68256   0.68338   0.68821   0.69374
  Beta virt. eigenvalues --    0.69714   0.70314   0.70628   0.70748   0.71768
  Beta virt. eigenvalues --    0.72227   0.73145   0.74298   0.75016   0.75596
  Beta virt. eigenvalues --    0.76070   0.76344   0.76453   0.76894   0.77563
  Beta virt. eigenvalues --    0.77969   0.78226   0.78752   0.78928   0.80055
  Beta virt. eigenvalues --    0.80162   0.80517   0.80880   0.81775   0.82110
  Beta virt. eigenvalues --    0.82153   0.82491   0.82871   0.83255   0.83410
  Beta virt. eigenvalues --    0.83735   0.84468   0.84662   0.85292   0.85670
  Beta virt. eigenvalues --    0.86180   0.86406   0.86881   0.87201   0.87721
  Beta virt. eigenvalues --    0.88559   0.89510   0.89847   0.89949   0.90049
  Beta virt. eigenvalues --    0.90324   0.90911   0.91320   0.91937   0.92604
  Beta virt. eigenvalues --    0.93499   0.93722   0.93804   0.94699   0.95377
  Beta virt. eigenvalues --    0.95505   0.95927   0.96984   0.97259   0.97930
  Beta virt. eigenvalues --    0.99684   1.00029   1.01920   1.02483   1.03807
  Beta virt. eigenvalues --    1.04066   1.04590   1.05353   1.06403   1.06578
  Beta virt. eigenvalues --    1.07148   1.07427   1.08979   1.09152   1.09848
  Beta virt. eigenvalues --    1.10335   1.10855   1.11045   1.12428   1.13090
  Beta virt. eigenvalues --    1.13684   1.14290   1.15459   1.16071   1.16729
  Beta virt. eigenvalues --    1.17284   1.17673   1.17747   1.18728   1.19262
  Beta virt. eigenvalues --    1.20184   1.21798   1.22610   1.23798   1.24093
  Beta virt. eigenvalues --    1.25102   1.25905   1.26295   1.26517   1.26871
  Beta virt. eigenvalues --    1.27448   1.27804   1.28622   1.28953   1.29660
  Beta virt. eigenvalues --    1.32049   1.32533   1.32965   1.33130   1.35137
  Beta virt. eigenvalues --    1.36940   1.37431   1.39018   1.41133   1.41895
  Beta virt. eigenvalues --    1.42857   1.43016   1.43478   1.44000   1.44601
  Beta virt. eigenvalues --    1.45412   1.45797   1.48466   1.48615   1.49283
  Beta virt. eigenvalues --    1.50026   1.51460   1.51943   1.53168   1.53647
  Beta virt. eigenvalues --    1.54963   1.57465   1.58396   1.58830   1.59126
  Beta virt. eigenvalues --    1.59941   1.60598   1.61469   1.63825   1.66200
  Beta virt. eigenvalues --    1.67169   1.67531   1.67884   1.68747   1.68931
  Beta virt. eigenvalues --    1.69597   1.70205   1.70651   1.71287   1.71394
  Beta virt. eigenvalues --    1.72518   1.72849   1.73039   1.73302   1.75174
  Beta virt. eigenvalues --    1.75946   1.76011   1.76496   1.77213   1.78730
  Beta virt. eigenvalues --    1.80177   1.80326   1.80757   1.81085   1.81404
  Beta virt. eigenvalues --    1.81613   1.82099   1.84100   1.84149   1.85024
  Beta virt. eigenvalues --    1.87313   1.89018   1.89285   1.89624   1.89808
  Beta virt. eigenvalues --    1.90111   1.90748   1.91091   1.92255   1.93413
  Beta virt. eigenvalues --    1.93766   1.94329   1.94721   1.95530   1.96505
  Beta virt. eigenvalues --    1.97471   1.98836   2.00598   2.01648   2.02178
  Beta virt. eigenvalues --    2.02904   2.04182   2.04247   2.04965   2.05728
  Beta virt. eigenvalues --    2.06451   2.07658   2.08325   2.09497   2.10450
  Beta virt. eigenvalues --    2.10979   2.11848   2.12514   2.13141   2.13244
  Beta virt. eigenvalues --    2.13504   2.14294   2.14935   2.15410   2.15911
  Beta virt. eigenvalues --    2.16447   2.16849   2.17009   2.18269   2.18812
  Beta virt. eigenvalues --    2.19362   2.19473   2.20289   2.21145   2.21325
  Beta virt. eigenvalues --    2.22367   2.23428   2.23935   2.24789   2.24908
  Beta virt. eigenvalues --    2.25270   2.26251   2.26814   2.27628   2.29438
  Beta virt. eigenvalues --    2.30015   2.30259   2.31246   2.32179   2.32495
  Beta virt. eigenvalues --    2.33525   2.33910   2.34296   2.34531   2.37267
  Beta virt. eigenvalues --    2.38207   2.38857   2.40525   2.41353   2.42134
  Beta virt. eigenvalues --    2.42286   2.42513   2.43571   2.44591   2.44648
  Beta virt. eigenvalues --    2.45640   2.46052   2.49365   2.49712   2.52085
  Beta virt. eigenvalues --    2.53988   2.54724   2.55043   2.56144   2.57019
  Beta virt. eigenvalues --    2.58655   2.59596   2.59843   2.64646   2.66511
  Beta virt. eigenvalues --    2.67321   2.69005   2.70324   2.70438   2.74966
  Beta virt. eigenvalues --    2.76387   2.77052   2.79427   2.80243   2.81221
  Beta virt. eigenvalues --    2.83339   2.85302   2.85690   2.86144   2.87477
  Beta virt. eigenvalues --    2.88206   2.89791   2.93484   2.94048   3.00907
  Beta virt. eigenvalues --    3.02545   3.09105   3.10464   3.12162   3.18634
  Beta virt. eigenvalues --    3.19169   3.23519   3.26880   3.28486   3.29134
  Beta virt. eigenvalues --    3.33858   3.34524   3.48783   3.51609   3.71857
  Beta virt. eigenvalues --    3.90897   3.98302
          Condensed to atoms (all electrons):
          Atomic-Atomic Spin Densities.
 Mulliken charges and spin densities:
               1          2
     1  Fe   0.637760   1.718617
     2  N   -0.667637  -0.138700
     3  N   -0.644286  -0.138997
     4  N   -0.688852  -0.138996
     5  N   -0.644872  -0.141295
     6  C    0.309002   0.058713
     7  C    0.044077   0.013403
     8  C    0.046348   0.014632
     9  C    0.306684   0.057569
    10  C    0.296860   0.056732
    11  C    0.048435   0.000122
    12  C    0.011093   0.006260
    13  C    0.313861   0.056525
    14  C    0.322250   0.057591
    15  C    0.051745   0.013423
    16  C    0.011166   0.016023
    17  C    0.330808   0.061813
    18  C    0.307908   0.058861
    19  C    0.042722   0.004614
    20  C    0.042669   0.004033
    21  C    0.309900   0.060085
    22  C   -0.279538  -0.176350
    23  H    0.205885   0.008010
    24  C   -0.273330  -0.167993
    25  H    0.204227   0.007665
    26  C   -0.258446  -0.171113
    27  H    0.206899   0.007747
    28  C   -0.267931  -0.173688
    29  H    0.206111   0.007884
    30  C   -0.613763  -0.001702
    31  H    0.201922   0.000998
    32  H    0.208511  -0.000114
    33  H    0.212391   0.001106
    34  C   -0.612534  -0.001722
    35  H    0.201288   0.001051
    36  H    0.211738   0.000964
    37  H    0.208845  -0.000097
    38  C   -0.615149  -0.000434
    39  H    0.204330   0.000456
    40  H    0.198181   0.000085
    41  H    0.217244  -0.000062
    42  C   -0.154484  -0.004367
    43  H    0.182751   0.000274
    44  C   -0.388027   0.007472
    45  H    0.189059  -0.000353
    46  H    0.197526  -0.000378
    47  C   -0.617031  -0.001733
    48  H    0.209759   0.001270
    49  H    0.200197   0.000595
    50  H    0.216972   0.000142
    51  C   -0.155928  -0.008614
    52  H    0.182390   0.000612
    53  C   -0.386703   0.013943
    54  H    0.191619  -0.000676
    55  H    0.198005  -0.000664
    56  C   -0.613927  -0.000786
    57  H    0.203063   0.000453
    58  H    0.209698   0.000512
    59  H    0.207458  -0.000126
    60  C   -0.612475  -0.000754
    61  H    0.208254  -0.000127
    62  H    0.209562   0.000453
    63  H    0.199272   0.000482
    64  C   -0.691167   0.001194
    65  H    0.246816   0.000329
    66  H    0.247359  -0.001724
    67  H    0.251911  -0.000040
    68  S    0.134108  -0.054973
    69  H    0.179441   0.003864
 Sum of Mulliken charges =   1.00000   1.00000
 Mulliken charges and spin densities with hydrogens summed into heavy atoms:
               1          2
     1  Fe   0.637760   1.718617
     2  N   -0.667637  -0.138700
     3  N   -0.644286  -0.138997
     4  N   -0.688852  -0.138996
     5  N   -0.644872  -0.141295
     6  C    0.309002   0.058713
     7  C    0.044077   0.013403
     8  C    0.046348   0.014632
     9  C    0.306684   0.057569
    10  C    0.296860   0.056732
    11  C    0.048435   0.000122
    12  C    0.011093   0.006260
    13  C    0.313861   0.056525
    14  C    0.322250   0.057591
    15  C    0.051745   0.013423
    16  C    0.011166   0.016023
    17  C    0.330808   0.061813
    18  C    0.307908   0.058861
    19  C    0.042722   0.004614
    20  C    0.042669   0.004033
    21  C    0.309900   0.060085
    22  C   -0.073652  -0.168340
    24  C   -0.069103  -0.160328
    26  C   -0.051546  -0.163366
    28  C   -0.061820  -0.165804
    30  C    0.009062   0.000288
    34  C    0.009337   0.000196
    38  C    0.004607   0.000045
    42  C    0.028267  -0.004093
    44  C   -0.001442   0.006741
    47  C    0.009897   0.000273
    51  C    0.026462  -0.008002
    53  C    0.002920   0.012604
    56  C    0.006292   0.000053
    60  C    0.004613   0.000054
    64  C    0.054919  -0.000241
    68  S    0.313549  -0.051109
 Electronic spatial extent (au):  <R**2>=          18057.2166
 Charge=              1.0000 electrons
 Dipole moment (field-independent basis, Debye):
    X=              1.9162    Y=             -1.1940    Z=              2.9769  Tot=              3.7362
 Quadrupole moment (field-independent basis, Debye-Ang):
   XX=           -152.5565   YY=           -153.2800   ZZ=           -218.9949
   XY=             -1.5513   XZ=              2.0047   YZ=             -4.2175
 Traceless Quadrupole moment (field-independent basis, Debye-Ang):
   XX=             22.3873   YY=             21.6638   ZZ=            -44.0511
   XY=             -1.5513   XZ=              2.0047   YZ=             -4.2175
 Octapole moment (field-independent basis, Debye-Ang**2):
  XXX=             -3.6471  YYY=             23.9279  ZZZ=             50.8760  XYY=             -0.8591
  XXY=             -6.5565  XXZ=            -10.7186  XZZ=             26.3557  YZZ=            -19.9789
  YYZ=             -4.8205  XYZ=             12.5758
 Hexadecapole moment (field-independent basis, Debye-Ang**3):
 XXXX=          -9754.7011 YYYY=          -9598.3138 ZZZZ=          -1093.9180 XXXY=            131.1192
 XXXZ=            -77.2328 YYYX=           -194.6428 YYYZ=             30.2066 ZZZX=             60.1915
 ZZZY=            -44.9988 XXYY=          -3210.9577 XXZZ=          -2154.4357 YYZZ=          -2169.0271
 XXYZ=            -26.4048 YYXZ=            -99.5226 ZZXY=             -4.9232
 N-N= 5.027821577026D+03 E-N=-1.727338630628D+04  KE= 3.069924550784D+03
                          Isotropic Fermi Contact Couplings
        Atom                 a.u.       MegaHertz       Gauss      10(-4) cm-1
     1  Fe(57)             0.27404      39.74740      14.18286      13.25830
     2  N(14)             -0.04592     -14.83549      -5.29367      -4.94859
     3  N(14)             -0.04866     -15.72091      -5.60961      -5.24393
     4  N(14)             -0.04460     -14.41096      -5.14219      -4.80698
     5  N(14)             -0.04950     -15.99488      -5.70737      -5.33532
     6  C(13)              0.01115      12.53507       4.47283       4.18125
     7  C(13)              0.00081       0.90985       0.32466       0.30349
     8  C(13)              0.00121       1.36391       0.48668       0.45495
     9  C(13)              0.01008      11.33319       4.04396       3.78034
    10  C(13)              0.00988      11.10828       3.96371       3.70532
    11  C(13)             -0.00104      -1.17382      -0.41885      -0.39154
    12  C(13)             -0.00020      -0.22253      -0.07940      -0.07423
    13  C(13)              0.00981      11.03250       3.93667       3.68005
    14  C(13)              0.01092      12.27226       4.37905       4.09359
    15  C(13)              0.00098       1.09973       0.39241       0.36683
    16  C(13)              0.00135       1.51604       0.54096       0.50570
    17  C(13)              0.01075      12.08434       4.31199       4.03090
    18  C(13)              0.01025      11.51831       4.11002       3.84210
    19  C(13)             -0.00039      -0.44184      -0.15766      -0.14738
    20  C(13)             -0.00052      -0.57996      -0.20694      -0.19345
    21  C(13)              0.01038      11.67433       4.16569       3.89414
    22  C(13)             -0.02306     -25.92045      -9.24906      -8.64613
    23  H(1)               0.00273      12.21202       4.35755       4.07349
    24  C(13)             -0.02187     -24.59137      -8.77481      -8.20280
    25  H(1)               0.00260      11.60135       4.13965       3.86979
    26  C(13)             -0.02237     -25.15374      -8.97548      -8.39038
    27  H(1)               0.00265      11.84054       4.22500       3.94958
    28  C(13)             -0.02277     -25.59242      -9.13201      -8.53671
    29  H(1)               0.00268      11.99703       4.28084       4.00178
    30  C(13)             -0.00066      -0.73663      -0.26285      -0.24571
    31  H(1)               0.00051       2.25895       0.80605       0.75351
    32  H(1)              -0.00005      -0.22366      -0.07981      -0.07460
    33  H(1)               0.00055       2.47986       0.88488       0.82719
    34  C(13)             -0.00063      -0.70655      -0.25212      -0.23568
    35  H(1)               0.00052       2.33868       0.83450       0.78010
    36  H(1)               0.00048       2.14187       0.76427       0.71445
    37  H(1)              -0.00005      -0.21026      -0.07503      -0.07014
    38  C(13)             -0.00018      -0.20505      -0.07317      -0.06840
    39  H(1)               0.00024       1.06024       0.37832       0.35366
    40  H(1)               0.00009       0.38133       0.13607       0.12720
    41  H(1)              -0.00001      -0.06435      -0.02296      -0.02147
    42  C(13)             -0.00088      -0.99010      -0.35329      -0.33026
    43  H(1)               0.00014       0.63177       0.22543       0.21074
    44  C(13)              0.00101       1.13813       0.40611       0.37964
    45  H(1)              -0.00011      -0.49344      -0.17607      -0.16459
    46  H(1)              -0.00012      -0.55073      -0.19652      -0.18370
    47  C(13)             -0.00061      -0.68729      -0.24524      -0.22926
    48  H(1)               0.00065       2.88962       1.03109       0.96387
    49  H(1)               0.00027       1.21195       0.43245       0.40426
    50  H(1)               0.00005       0.21270       0.07590       0.07095
    51  C(13)             -0.00168      -1.89313      -0.67552      -0.63148
    52  H(1)               0.00026       1.16354       0.41518       0.38812
    53  C(13)              0.00196       2.19841       0.78445       0.73331
    54  H(1)              -0.00021      -0.93761      -0.33456      -0.31275
    55  H(1)              -0.00021      -0.95248      -0.33987      -0.31771
    56  C(13)             -0.00033      -0.36681      -0.13089      -0.12236
    57  H(1)               0.00025       1.11737       0.39870       0.37271
    58  H(1)               0.00029       1.31083       0.46774       0.43725
    59  H(1)              -0.00005      -0.23455      -0.08369      -0.07824
    60  C(13)             -0.00031      -0.34979      -0.12481      -0.11668
    61  H(1)              -0.00005      -0.24454      -0.08726      -0.08157
    62  H(1)               0.00027       1.22094       0.43566       0.40726
    63  H(1)               0.00027       1.18647       0.42336       0.39576
    64  C(13)             -0.00046      -0.51822      -0.18492      -0.17286
    65  H(1)              -0.00043      -1.90879      -0.68110      -0.63670
    66  H(1)              -0.00096      -4.31114      -1.53832      -1.43804
    67  H(1)               0.00009       0.39675       0.14157       0.13234
    68  S(33)              0.01069       3.67154       1.31010       1.22469
    69  H(1)               0.00164       7.31655       2.61073       2.44054
 --------------------------------------------------------
       Center         ----  Spin Dipole Couplings  ----
                      3XX-RR        3YY-RR        3ZZ-RR
 --------------------------------------------------------
     1   Atom       -2.572720     -0.297496      2.870216
     2   Atom        0.111413      0.116997     -0.228411
     3   Atom        0.114749      0.107109     -0.221858
     4   Atom        0.110093      0.120628     -0.230721
     5   Atom        0.119464      0.110235     -0.229699
     6   Atom       -0.021537     -0.020239      0.041776
     7   Atom       -0.007924     -0.011389      0.019312
     8   Atom       -0.013088     -0.007295      0.020384
     9   Atom       -0.030328     -0.011944      0.042273
    10   Atom       -0.017047     -0.022401      0.039448
    11   Atom       -0.003432     -0.001060      0.004492
    12   Atom       -0.002264     -0.008212      0.010477
    13   Atom       -0.011621     -0.027931      0.039552
    14   Atom       -0.021702     -0.020070      0.041772
    15   Atom       -0.008052     -0.011152      0.019203
    16   Atom       -0.013897     -0.007753      0.021650
    17   Atom       -0.032708     -0.014179      0.046887
    18   Atom       -0.017798     -0.023871      0.041669
    19   Atom       -0.005863     -0.003435      0.009297
    20   Atom       -0.001474     -0.007325      0.008799
    21   Atom       -0.012925     -0.028869      0.041794
    22   Atom        0.088308      0.076906     -0.165214
    23   Atom       -0.006270      0.007938     -0.001667
    24   Atom        0.073454      0.084667     -0.158121
    25   Atom        0.007475     -0.005718     -0.001756
    26   Atom        0.087239      0.075365     -0.162605
    27   Atom       -0.005930      0.007524     -0.001594
    28   Atom        0.076571      0.086906     -0.163477
    29   Atom        0.007826     -0.006113     -0.001714
    30   Atom       -0.001380      0.001682     -0.000302
    31   Atom       -0.000961      0.001527     -0.000566
    32   Atom       -0.000768      0.001399     -0.000631
    33   Atom       -0.000900      0.001393     -0.000493
    34   Atom        0.001196     -0.000965     -0.000231
    35   Atom        0.001478     -0.000942     -0.000536
    36   Atom        0.001280     -0.000868     -0.000413
    37   Atom        0.000547      0.000043     -0.000590
    38   Atom       -0.000626      0.000880     -0.000253
    39   Atom       -0.000407      0.000911     -0.000505
    40   Atom       -0.000737      0.001131     -0.000394
    41   Atom        0.000186      0.000339     -0.000525
    42   Atom        0.003143     -0.001407     -0.001736
    43   Atom        0.001142     -0.000730     -0.000412
    44   Atom       -0.002514      0.000975      0.001538
    45   Atom        0.000346      0.000017     -0.000362
    46   Atom        0.001037     -0.000539     -0.000498
    47   Atom        0.001291     -0.001118     -0.000173
    48   Atom        0.001284     -0.000696     -0.000589
    49   Atom        0.001425     -0.000968     -0.000457
    50   Atom        0.000485      0.000152     -0.000637
    51   Atom       -0.000361      0.005184     -0.004822
    52   Atom       -0.000852      0.001450     -0.000598
    53   Atom       -0.001826     -0.005153      0.006980
    54   Atom        0.000339      0.000179     -0.000517
    55   Atom       -0.000947      0.001515     -0.000567
    56   Atom       -0.000618      0.000910     -0.000291
    57   Atom       -0.000685      0.001161     -0.000476
    58   Atom       -0.000662      0.001067     -0.000405
    59   Atom        0.000145      0.000336     -0.000481
    60   Atom        0.001333     -0.001138     -0.000195
    61   Atom        0.001049     -0.000584     -0.000465
    62   Atom        0.001180     -0.000849     -0.000331
    63   Atom        0.001290     -0.000817     -0.000473
    64   Atom        0.002209     -0.004367      0.002158
    65   Atom        0.002456     -0.003703      0.001247
    66   Atom       -0.001073     -0.002131      0.003203
    67   Atom        0.001006     -0.003582      0.002577
    68   Atom        0.116671      0.142972     -0.259643
    69   Atom       -0.006654     -0.004285      0.010939
 --------------------------------------------------------
                        XY            XZ            YZ
 --------------------------------------------------------
     1   Atom       -1.959417     -0.123764     -0.029728
     2   Atom       -0.021589      0.012593     -0.059999
     3   Atom        0.001318     -0.025410     -0.035110
     4   Atom       -0.022290     -0.004053      0.054682
     5   Atom        0.004043      0.003562      0.030273
     6   Atom       -0.013349      0.007456     -0.002447
     7   Atom       -0.002822      0.003269     -0.000210
     8   Atom       -0.001013      0.002549      0.000478
     9   Atom       -0.010472      0.004641      0.000613
    10   Atom        0.013518      0.002718      0.004866
    11   Atom        0.002856      0.000259      0.001018
    12   Atom        0.000953      0.000599      0.002072
    13   Atom        0.010426      0.000521      0.005800
    14   Atom       -0.013318     -0.006014      0.000811
    15   Atom       -0.003019     -0.003439     -0.000182
    16   Atom       -0.001070     -0.002266     -0.000962
    17   Atom       -0.009828     -0.006147     -0.002154
    18   Atom        0.013627      0.000771     -0.002727
    19   Atom        0.002797      0.000456     -0.000971
    20   Atom        0.000669      0.000694     -0.001499
    21   Atom        0.010049      0.004748     -0.006808
    22   Atom       -0.000692     -0.018953      0.019115
    23   Atom        0.003431      0.000797      0.000364
    24   Atom        0.002676     -0.009269     -0.011185
    25   Atom       -0.002799     -0.000187      0.000535
    26   Atom       -0.001728      0.010271     -0.012361
    27   Atom        0.003448     -0.000261     -0.000337
    28   Atom        0.002496      0.011105      0.016151
    29   Atom       -0.002961      0.000157     -0.000506
    30   Atom        0.000163      0.000003      0.000428
    31   Atom        0.000467     -0.000220     -0.000205
    32   Atom       -0.000625     -0.000016      0.000127
    33   Atom        0.000462      0.000263      0.000333
    34   Atom       -0.000974     -0.000481      0.000271
    35   Atom       -0.000533      0.000086      0.000152
    36   Atom       -0.000583     -0.000537     -0.000075
    37   Atom       -0.001210     -0.000192      0.000149
    38   Atom        0.000992      0.000282      0.000172
    39   Atom        0.000846      0.000012     -0.000205
    40   Atom        0.000382     -0.000034      0.000172
    41   Atom        0.000889      0.000039      0.000150
    42   Atom        0.000239     -0.000038     -0.002265
    43   Atom       -0.000375      0.000126     -0.000086
    44   Atom        0.001270      0.001130      0.005399
    45   Atom        0.000417      0.000009     -0.000257
    46   Atom        0.000052      0.000091      0.000217
    47   Atom       -0.000955      0.000341     -0.000398
    48   Atom       -0.000803     -0.000173     -0.000074
    49   Atom       -0.000363      0.000450      0.000101
    50   Atom       -0.001122      0.000391     -0.000158
    51   Atom       -0.000046     -0.003893      0.000447
    52   Atom        0.000481     -0.000148      0.000039
    53   Atom       -0.001515      0.008911     -0.002180
    54   Atom       -0.000308     -0.000346     -0.000021
    55   Atom        0.000123      0.000342     -0.000116
    56   Atom        0.001016     -0.000079     -0.000178
    57   Atom        0.000641     -0.000105      0.000184
    58   Atom        0.000590      0.000065     -0.000233
    59   Atom        0.000983     -0.000022     -0.000030
    60   Atom        0.000064     -0.000317     -0.000057
    61   Atom        0.000539     -0.000106     -0.000057
    62   Atom       -0.000275     -0.000326      0.000157
    63   Atom       -0.000364     -0.000057     -0.000180
    64   Atom       -0.001740      0.007340     -0.002340
    65   Atom       -0.003196      0.008894     -0.003123
    66   Atom       -0.000489      0.002762     -0.000439
    67   Atom        0.001817      0.006199      0.002259
    68   Atom       -0.008559      0.095278     -0.042548
    69   Atom        0.000628     -0.002248     -0.011705
 --------------------------------------------------------


 ---------------------------------------------------------------------------------
              Anisotropic Spin Dipole Couplings in Principal Axis System
 ---------------------------------------------------------------------------------

       Atom             a.u.   MegaHertz   Gauss  10(-4) cm-1        Axes

              Baa    -3.7031   -64.111   -22.876   -21.385  0.8666  0.4987  0.0186
     1 Fe(57) Bbb     0.8300    14.369     5.127     4.793 -0.4985  0.8667 -0.0176
              Bcc     2.8731    49.742    17.749    16.592 -0.0249  0.0060  0.9997
 
              Baa    -0.2388    -9.208    -3.286    -3.072 -0.0253  0.1648  0.9860
     2 N(14)  Bbb     0.0948     3.654     1.304     1.219  0.8104  0.5809 -0.0763
              Bcc     0.1440     5.554     1.982     1.853 -0.5853  0.7971 -0.1482
 
              Baa    -0.2274    -8.771    -3.130    -2.926  0.0733  0.1038  0.9919
     3 N(14)  Bbb     0.1088     4.196     1.497     1.400 -0.4521  0.8899 -0.0598
              Bcc     0.1186     4.575     1.632     1.526  0.8889  0.4441 -0.1121
 
              Baa    -0.2390    -9.219    -3.290    -3.075  0.0019 -0.1502  0.9887
     4 N(14)  Bbb     0.0950     3.664     1.307     1.222  0.8319  0.5488  0.0818
              Bcc     0.1440     5.556     1.982     1.853 -0.5549  0.8223  0.1260
 
              Baa    -0.2324    -8.963    -3.198    -2.990 -0.0091 -0.0879  0.9961
     5 N(14)  Bbb     0.1108     4.272     1.524     1.425 -0.4449  0.8925  0.0747
              Bcc     0.1216     4.692     1.674     1.565  0.8956  0.4424  0.0472
 
              Baa    -0.0344    -4.621    -1.649    -1.541  0.7319  0.6796 -0.0498
     6 C(13)  Bbb    -0.0085    -1.136    -0.405    -0.379 -0.6692  0.7307  0.1349
              Bcc     0.0429     5.757     2.054     1.920  0.1281 -0.0654  0.9896
 
              Baa    -0.0130    -1.749    -0.624    -0.583  0.5052  0.8618 -0.0454
     7 C(13)  Bbb    -0.0067    -0.896    -0.320    -0.299  0.8547 -0.5069 -0.1116
              Bcc     0.0197     2.645     0.944     0.882  0.1192 -0.0175  0.9927
 
              Baa    -0.0135    -1.806    -0.644    -0.602  0.9829  0.1675 -0.0764
     8 C(13)  Bbb    -0.0071    -0.956    -0.341    -0.319 -0.1681  0.9858 -0.0015
              Bcc     0.0206     2.762     0.986     0.921  0.0751  0.0144  0.9971
 
              Baa    -0.0353    -4.741    -1.692    -1.581  0.9106  0.4093 -0.0577
     9 C(13)  Bbb    -0.0072    -0.971    -0.347    -0.324 -0.4084  0.9124  0.0270
              Bcc     0.0426     5.712     2.038     1.905  0.0637 -0.0010  0.9980
 
              Baa    -0.0336    -4.504    -1.607    -1.502 -0.6304  0.7758 -0.0282
    10 C(13)  Bbb    -0.0065    -0.876    -0.313    -0.292  0.7732  0.6242 -0.1118
              Bcc     0.0401     5.380     1.920     1.794  0.0691  0.0923  0.9933
 
              Baa    -0.0054    -0.718    -0.256    -0.240  0.8280 -0.5596  0.0361
    11 C(13)  Bbb     0.0006     0.080     0.029     0.027  0.5501  0.7983 -0.2452
              Bcc     0.0048     0.638     0.228     0.213  0.1084  0.2229  0.9688
 
              Baa    -0.0086    -1.149    -0.410    -0.383 -0.1392  0.9849 -0.1028
    12 C(13)  Bbb    -0.0022    -0.292    -0.104    -0.097  0.9888  0.1326 -0.0685
              Bcc     0.0107     1.441     0.514     0.481  0.0538  0.1112  0.9923
 
              Baa    -0.0334    -4.476    -1.597    -1.493 -0.4302  0.9001 -0.0685
    13 C(13)  Bbb    -0.0067    -0.903    -0.322    -0.301  0.9023  0.4264 -0.0636
              Bcc     0.0401     5.379     1.919     1.794  0.0280  0.0892  0.9956
 
              Baa    -0.0344    -4.619    -1.648    -1.541  0.7335  0.6778  0.0507
    14 C(13)  Bbb    -0.0080    -1.071    -0.382    -0.357 -0.6722  0.7345 -0.0932
              Bcc     0.0424     5.691     2.031     1.898 -0.1004  0.0343  0.9944
 
              Baa    -0.0131    -1.760    -0.628    -0.587  0.5419  0.8381  0.0624
    15 C(13)  Bbb    -0.0065    -0.874    -0.312    -0.292  0.8313 -0.5454  0.1073
              Bcc     0.0196     2.634     0.940     0.879 -0.1240  0.0063  0.9923
 
              Baa    -0.0142    -1.911    -0.682    -0.637  0.9828  0.1721  0.0667
    16 C(13)  Bbb    -0.0076    -1.018    -0.363    -0.339 -0.1737  0.9846  0.0189
              Bcc     0.0218     2.928     1.045     0.977 -0.0624 -0.0302  0.9976
 
              Baa    -0.0375    -5.025    -1.793    -1.676  0.9159  0.3939  0.0768
    17 C(13)  Bbb    -0.0099    -1.334    -0.476    -0.445 -0.3945  0.9189 -0.0078
              Bcc     0.0474     6.359     2.269     2.121 -0.0737 -0.0231  0.9970
 
              Baa    -0.0349    -4.681    -1.670    -1.561 -0.6241  0.7806  0.0341
    18 C(13)  Bbb    -0.0069    -0.926    -0.330    -0.309  0.7813  0.6237  0.0226
              Bcc     0.0418     5.607     2.001     1.870  0.0036 -0.0408  0.9992
 
              Baa    -0.0077    -1.040    -0.371    -0.347  0.8322 -0.5519 -0.0537
    19 C(13)  Bbb    -0.0016    -0.218    -0.078    -0.073  0.5542  0.8308  0.0507
              Bcc     0.0094     1.258     0.449     0.420  0.0166 -0.0720  0.9973
 
              Baa    -0.0076    -1.013    -0.362    -0.338 -0.1196  0.9882  0.0957
    20 C(13)  Bbb    -0.0014    -0.191    -0.068    -0.064  0.9910  0.1247 -0.0490
              Bcc     0.0090     1.204     0.430     0.402  0.0603 -0.0890  0.9942
 
              Baa    -0.0346    -4.643    -1.657    -1.549 -0.4373  0.8930  0.1067
    21 C(13)  Bbb    -0.0081    -1.087    -0.388    -0.363  0.8966  0.4421 -0.0250
              Bcc     0.0427     5.731     2.045     1.912  0.0695 -0.0848  0.9940
 
              Baa    -0.1681   -22.557    -8.049    -7.524  0.0733 -0.0774  0.9943
    22 C(13)  Bbb     0.0780    10.468     3.735     3.492  0.1817  0.9813  0.0630
              Bcc     0.0901    12.090     4.314     4.033  0.9806 -0.1761 -0.0860
 
              Baa    -0.0071    -3.812    -1.360    -1.271  0.9679 -0.2172 -0.1265
    23 H(1)   Bbb    -0.0016    -0.857    -0.306    -0.286  0.1120 -0.0780  0.9906
              Bcc     0.0088     4.669     1.666     1.557  0.2250  0.9730  0.0512
 
              Baa    -0.1590   -21.336    -7.613    -7.117  0.0393  0.0454  0.9982
    24 C(13)  Bbb     0.0730     9.799     3.497     3.269  0.9683 -0.2483 -0.0268
              Bcc     0.0860    11.536     4.116     3.848  0.2466  0.9676 -0.0537
 
              Baa    -0.0063    -3.382    -1.207    -1.128  0.1961  0.9749 -0.1058
    25 H(1)   Bbb    -0.0017    -0.914    -0.326    -0.305  0.0500  0.0978  0.9939
              Bcc     0.0081     4.297     1.533     1.433  0.9793 -0.2002 -0.0296
 
              Baa    -0.1637   -21.961    -7.836    -7.325 -0.0405  0.0513  0.9979
    26 C(13)  Bbb     0.0756    10.143     3.619     3.383  0.1836  0.9821 -0.0431
              Bcc     0.0881    11.819     4.217     3.942  0.9822 -0.1814  0.0492
 
              Baa    -0.0068    -3.611    -1.289    -1.205  0.9717 -0.2336  0.0339
    27 H(1)   Bbb    -0.0016    -0.855    -0.305    -0.285 -0.0238  0.0459  0.9987
              Bcc     0.0084     4.467     1.594     1.490  0.2349  0.9712 -0.0390
 
              Baa    -0.1650   -22.143    -7.901    -7.386 -0.0452 -0.0635  0.9970
    28 C(13)  Bbb     0.0762    10.225     3.648     3.411  0.9639 -0.2650  0.0268
              Bcc     0.0888    11.918     4.253     3.975  0.2625  0.9622  0.0731
 
              Baa    -0.0068    -3.606    -1.287    -1.203  0.1972  0.9761  0.0917
    29 H(1)   Bbb    -0.0017    -0.895    -0.319    -0.299 -0.0429 -0.0848  0.9955
              Bcc     0.0084     4.501     1.606     1.501  0.9794 -0.2002  0.0252
 
              Baa    -0.0014    -0.186    -0.067    -0.062  0.9983 -0.0556  0.0195
    30 C(13)  Bbb    -0.0004    -0.052    -0.019    -0.017 -0.0303 -0.2001  0.9793
              Bcc     0.0018     0.239     0.085     0.080  0.0506  0.9782  0.2015
 
              Baa    -0.0011    -0.591    -0.211    -0.197  0.9347 -0.1401  0.3268
    31 H(1)   Bbb    -0.0005    -0.283    -0.101    -0.094 -0.3039  0.1625  0.9388
              Bcc     0.0016     0.874     0.312     0.292  0.1846  0.9767 -0.1093
 
              Baa    -0.0009    -0.499    -0.178    -0.167  0.9636  0.2609 -0.0583
    32 H(1)   Bbb    -0.0006    -0.340    -0.121    -0.113  0.0713 -0.0405  0.9966
              Bcc     0.0016     0.840     0.300     0.280 -0.2577  0.9645  0.0576
 
              Baa    -0.0011    -0.567    -0.202    -0.189  0.9268 -0.1262 -0.3537
    33 H(1)   Bbb    -0.0005    -0.261    -0.093    -0.087  0.3174 -0.2403  0.9173
              Bcc     0.0016     0.829     0.296     0.276  0.2008  0.9624  0.1827
 
              Baa    -0.0013    -0.181    -0.064    -0.060  0.3438  0.9357 -0.0791
    34 C(13)  Bbb    -0.0004    -0.051    -0.018    -0.017  0.2799 -0.0217  0.9598
              Bcc     0.0017     0.231     0.082     0.077  0.8964 -0.3521 -0.2694
 
              Baa    -0.0011    -0.588    -0.210    -0.196  0.2033  0.9375 -0.2823
    35 H(1)   Bbb    -0.0005    -0.261    -0.093    -0.087  0.0342  0.2813  0.9590
              Bcc     0.0016     0.849     0.303     0.283  0.9785 -0.2046  0.0251
 
              Baa    -0.0011    -0.581    -0.207    -0.194  0.2960  0.8947  0.3345
    36 H(1)   Bbb    -0.0005    -0.250    -0.089    -0.083  0.1496 -0.3893  0.9089
              Bcc     0.0016     0.831     0.296     0.277  0.9434 -0.2189 -0.2491
 
              Baa    -0.0009    -0.502    -0.179    -0.168  0.6323  0.7746  0.0173
    37 H(1)   Bbb    -0.0006    -0.330    -0.118    -0.110  0.0761 -0.0843  0.9935
              Bcc     0.0016     0.832     0.297     0.277  0.7710 -0.6268 -0.1122
 
              Baa    -0.0012    -0.155    -0.055    -0.052  0.8874 -0.4161 -0.1984
    38 C(13)  Bbb    -0.0003    -0.036    -0.013    -0.012  0.1052 -0.2362  0.9660
              Bcc     0.0014     0.190     0.068     0.064  0.4488  0.8781  0.1659
 
              Baa    -0.0009    -0.454    -0.162    -0.151  0.8490 -0.4414 -0.2904
    39 H(1)   Bbb    -0.0005    -0.262    -0.094    -0.088  0.3030 -0.0436  0.9520
              Bcc     0.0013     0.716     0.256     0.239  0.4329  0.8962 -0.0967
 
              Baa    -0.0008    -0.439    -0.157    -0.146  0.9666 -0.2026  0.1569
    40 H(1)   Bbb    -0.0004    -0.213    -0.076    -0.071 -0.1736 -0.0672  0.9825
              Bcc     0.0012     0.652     0.233     0.218  0.1885  0.9770  0.1002
 
              Baa    -0.0007    -0.357    -0.127    -0.119  0.6234 -0.6205  0.4757
    41 H(1)   Bbb    -0.0005    -0.265    -0.095    -0.088 -0.4006  0.2691  0.8759
              Bcc     0.0012     0.622     0.222     0.207  0.6715  0.7366  0.0808
 
              Baa    -0.0038    -0.516    -0.184    -0.172 -0.0193  0.6815  0.7316
    42 C(13)  Bbb     0.0007     0.092     0.033     0.031 -0.0815  0.7282 -0.6805
              Bcc     0.0032     0.424     0.151     0.142  0.9965  0.0728 -0.0415
 
              Baa    -0.0008    -0.433    -0.155    -0.144  0.1767  0.9720  0.1547
    43 H(1)   Bbb    -0.0004    -0.221    -0.079    -0.074 -0.1122 -0.1362  0.9843
              Bcc     0.0012     0.654     0.233     0.218  0.9779 -0.1913  0.0850
 
              Baa    -0.0042    -0.559    -0.199    -0.186 -0.1025  0.7324 -0.6731
    44 C(13)  Bbb    -0.0028    -0.376    -0.134    -0.125  0.9791 -0.0453 -0.1985
              Bcc     0.0070     0.935     0.334     0.312  0.1759  0.6794  0.7124
 
              Baa    -0.0005    -0.292    -0.104    -0.097 -0.2674  0.5564  0.7867
    45 H(1)   Bbb    -0.0001    -0.054    -0.019    -0.018  0.5385 -0.5908  0.6008
              Bcc     0.0006     0.346     0.124     0.115  0.7991  0.5843 -0.1417
 
              Baa    -0.0007    -0.393    -0.140    -0.131  0.0134  0.7370 -0.6758
    46 H(1)   Bbb    -0.0003    -0.164    -0.059    -0.055 -0.0757  0.6747  0.7342
              Bcc     0.0010     0.558     0.199     0.186  0.9970  0.0413  0.0649
 
              Baa    -0.0015    -0.202    -0.072    -0.067  0.2939  0.9338  0.2038
    47 C(13)  Bbb    -0.0002    -0.030    -0.011    -0.010 -0.2871 -0.1172  0.9507
              Bcc     0.0017     0.232     0.083     0.078  0.9117 -0.3380  0.2337
 
              Baa    -0.0010    -0.544    -0.194    -0.181  0.3345  0.8972  0.2883
    48 H(1)   Bbb    -0.0006    -0.298    -0.106    -0.099 -0.0380 -0.2929  0.9554
              Bcc     0.0016     0.842     0.300     0.281  0.9416 -0.3305 -0.0639
 
              Baa    -0.0011    -0.572    -0.204    -0.191  0.1889  0.9376 -0.2918
    49 H(1)   Bbb    -0.0005    -0.266    -0.095    -0.089 -0.1574  0.3222  0.9335
              Bcc     0.0016     0.838     0.299     0.280  0.9693 -0.1305  0.2085
 
              Baa    -0.0009    -0.484    -0.173    -0.161  0.6114  0.5654 -0.5536
    50 H(1)   Bbb    -0.0006    -0.331    -0.118    -0.110  0.2480  0.5274  0.8126
              Bcc     0.0015     0.815     0.291     0.272  0.7514 -0.6341  0.1822
 
              Baa    -0.0071    -0.951    -0.339    -0.317  0.5005 -0.0296  0.8653
    51 C(13)  Bbb     0.0019     0.251     0.090     0.084  0.8641  0.0792 -0.4971
              Bcc     0.0052     0.700     0.250     0.233 -0.0538  0.9964  0.0652
 
              Baa    -0.0010    -0.537    -0.191    -0.179  0.9181 -0.1856  0.3503
    52 H(1)   Bbb    -0.0005    -0.289    -0.103    -0.096 -0.3443  0.0647  0.9366
              Bcc     0.0015     0.825     0.294     0.275  0.1965  0.9805  0.0045
 
              Baa    -0.0074    -0.989    -0.353    -0.330  0.8522  0.0728 -0.5181
    53 C(13)  Bbb    -0.0055    -0.742    -0.265    -0.248  0.0141  0.9867  0.1619
              Bcc     0.0129     1.732     0.618     0.578  0.5230 -0.1453  0.8399
 
              Baa    -0.0007    -0.352    -0.125    -0.117  0.3664  0.1577  0.9170
    54 H(1)   Bbb     0.0000     0.010     0.004     0.003  0.4518  0.8314 -0.3235
              Bcc     0.0006     0.341     0.122     0.114  0.8134 -0.5328 -0.2334
 
              Baa    -0.0012    -0.618    -0.221    -0.206  0.8587 -0.0615 -0.5088
    55 H(1)   Bbb    -0.0004    -0.196    -0.070    -0.065  0.5108  0.0199  0.8595
              Bcc     0.0015     0.814     0.290     0.272  0.0427  0.9979 -0.0485
 
              Baa    -0.0011    -0.151    -0.054    -0.050  0.8943 -0.4474 -0.0111
    56 C(13)  Bbb    -0.0003    -0.042    -0.015    -0.014  0.0597  0.0947  0.9937
              Bcc     0.0014     0.193     0.069     0.064  0.4435  0.8893 -0.1114
 
              Baa    -0.0009    -0.501    -0.179    -0.167  0.8966 -0.3020  0.3239
    57 H(1)   Bbb    -0.0004    -0.232    -0.083    -0.077 -0.3323  0.0246  0.9428
              Bcc     0.0014     0.733     0.261     0.244  0.2928  0.9530  0.0783
 
              Baa    -0.0009    -0.471    -0.168    -0.157  0.9105 -0.3086 -0.2752
    58 H(1)   Bbb    -0.0004    -0.209    -0.075    -0.070  0.2990  0.0316  0.9537
              Bcc     0.0013     0.680     0.243     0.227  0.2856  0.9507 -0.1210
 
              Baa    -0.0007    -0.399    -0.142    -0.133  0.7403 -0.6721 -0.0152
    59 H(1)   Bbb    -0.0005    -0.257    -0.092    -0.086  0.0259  0.0058  0.9996
              Bcc     0.0012     0.655     0.234     0.219  0.6718  0.7404 -0.0217
 
              Baa    -0.0011    -0.153    -0.055    -0.051 -0.0190  0.9984  0.0541
    60 C(13)  Bbb    -0.0003    -0.034    -0.012    -0.011  0.1973 -0.0493  0.9791
              Bcc     0.0014     0.188     0.067     0.063  0.9802  0.0292 -0.1960
 
              Baa    -0.0007    -0.399    -0.142    -0.133 -0.2815  0.9555  0.0879
    61 H(1)   Bbb    -0.0005    -0.251    -0.090    -0.084  0.0920 -0.0643  0.9937
              Bcc     0.0012     0.651     0.232     0.217  0.9552  0.2878 -0.0698
 
              Baa    -0.0009    -0.485    -0.173    -0.162  0.0953  0.9730 -0.2103
    62 H(1)   Bbb    -0.0004    -0.203    -0.072    -0.068  0.2319  0.1837  0.9552
              Bcc     0.0013     0.688     0.246     0.230  0.9681 -0.1398 -0.2081
 
              Baa    -0.0010    -0.508    -0.181    -0.169  0.1583  0.9177  0.3643
    63 H(1)   Bbb    -0.0004    -0.213    -0.076    -0.071 -0.0463 -0.3616  0.9312
              Bcc     0.0014     0.721     0.257     0.241  0.9863 -0.1643 -0.0147
 
              Baa    -0.0055    -0.736    -0.263    -0.245 -0.4755  0.6023  0.6411
    64 C(13)  Bbb    -0.0046    -0.619    -0.221    -0.207  0.5448  0.7739 -0.3230
              Bcc     0.0101     1.355     0.484     0.452  0.6907 -0.1957  0.6961
 
              Baa    -0.0071    -3.771    -1.346    -1.258 -0.6738  0.0445  0.7375
    65 H(1)   Bbb    -0.0050    -2.650    -0.946    -0.884  0.2307  0.9610  0.1528
              Bcc     0.0120     6.421     2.291     2.142  0.7019 -0.2731  0.6578
 
              Baa    -0.0026    -1.377    -0.491    -0.459  0.7821  0.5263 -0.3336
    66 H(1)   Bbb    -0.0020    -1.085    -0.387    -0.362 -0.4398  0.8455  0.3028
              Bcc     0.0046     2.461     0.878     0.821  0.4414 -0.0901  0.8928
 
              Baa    -0.0045    -2.412    -0.861    -0.804 -0.6062 -0.4327  0.6673
    67 H(1)   Bbb    -0.0042    -2.242    -0.800    -0.748 -0.4695  0.8719  0.1388
              Bcc     0.0087     4.653     1.660     1.552  0.6419  0.2292  0.7318
 
              Baa    -0.2860   -11.726    -4.184    -3.912 -0.2274  0.0916  0.9695
    68 S(33)  Bbb     0.1245     5.106     1.822     1.703  0.7657  0.6319  0.1199
              Bcc     0.1615     6.621     2.362     2.208 -0.6017  0.7696 -0.2139
 
              Baa    -0.0107    -5.712    -2.038    -1.905  0.1332  0.8659  0.4821
    69 H(1)   Bbb    -0.0068    -3.628    -1.294    -1.210  0.9866 -0.1619  0.0182
              Bcc     0.0175     9.339     3.333     3.115 -0.0938 -0.4732  0.8759
 

 ---------------------------------------------------------------------------------

 Unable to Open any file for archive entry.
 1\1\GINC-BGN1014\SP\UAPFD\Gen\C31H32Fe1N4S1(1+,2)\BECSLEIP\11-Nov-2024
 \0\\# apfd/gen scf=maxcycle=999 geom=check\\6hqq_III_D\\1,2\Fe,0,42.08
 9106431,83.0697633357,43.3525909889\N,0,42.8426913352,83.9727550924,41
 .7316950841\N,0,43.9165107721,83.0473116702,44.1799052678\N,0,41.51346
 79078,81.7002384634,44.6985712771\N,0,40.454720098,82.6240736962,42.24
 94390411\C,0,42.2507385341,84.2015245704,40.5245078548\C,0,43.10130938
 46,84.9962858393,39.6698181522\C,0,44.2288645139,85.2517242282,40.3856
 09514\C,0,44.0557854303,84.5968517724,41.6621131052\C,0,44.9556527154,
 83.8565076589,43.8202085016\C,0,46.0022166739,83.8287372578,44.8076823
 721\C,0,45.5802430441,82.9709610364,45.7884508584\C,0,44.2720858059,82
 .5060479235,45.3768137825\C,0,42.217394063,81.2358532604,45.7712975938
 \C,0,41.4219781171,80.3398341383,46.5701962285\C,0,40.1987816983,80.26
 90583091,45.9618336186\C,0,40.2872432365,81.1166164196,44.7886512052\C
 ,0,39.35568601,81.9465930306,42.6834421661\C,0,38.3071199787,81.969016
 9658,41.6893030424\C,0,38.8013114313,82.664682203,40.6301537689\C,0,40
 .1401957906,83.0627601715,40.9977004317\C,0,40.9814270479,83.783780245
 2,40.1733050375\H,0,40.6202339518,84.0452102443,39.191044117\C,0,45.02
 15225203,84.5869970956,42.647714387\H,0,45.9148308087,85.1652550646,42
 .4703024141\C,0,43.5050518092,81.6158804033,46.1004892287\H,0,43.92092
 14201,81.2241651364,47.0155074022\C,0,39.2543339903,81.2791786217,43.8
 875771909\H,0,38.3178995411,80.7900766227,44.1057319477\C,0,45.4424654
 903,86.0214654242,39.9943658991\H,0,45.6337858357,86.825454476,40.7052
 761945\H,0,45.3200845558,86.459058168,39.0069303866\H,0,46.3172110679,
 85.371084969,39.9749530769\C,0,42.7459817597,85.4088615206,38.28348033
 07\H,0,41.8378300546,86.0124682944,38.2818648728\H,0,42.5713433742,84.
 5334952691,37.6580482608\H,0,43.5467042255,85.9935336878,37.8379523583
 \C,0,47.3048315364,84.5394870272,44.6945403791\H,0,47.2021965621,85.58
 69288975,44.9827791139\H,0,47.6744148078,84.5058821035,43.6707641773\H
 ,0,48.041615922,84.0738285752,45.3453589234\C,0,46.2579949325,82.55728
 22118,46.9977480068\H,0,46.0805400057,81.534005104,47.306858121\C,0,47
 .0521945998,83.3261871267,47.7346285989\H,0,47.2242149412,84.362332511
 9,47.5007260069\H,0,47.5368781565,82.949382528,48.6196943626\C,0,41.91
 11401452,79.6029174771,47.7665656062\H,0,41.8952543146,80.2444313491,4
 8.6489675379\H,0,42.9338387599,79.260848494,47.6156568227\H,0,41.27864
 86404,78.7385784439,47.9575176058\C,0,39.0343742334,79.4973122123,46.3
 389661463\H,0,38.4399958912,79.1112391074,45.5194009194\C,0,38.6560010
 215,79.2452346782,47.5873415763\H,0,39.1836151055,79.6436155472,48.436
 2609594\H,0,37.7832326534,78.6515979545,47.8023311092\C,0,36.976555792
 3,81.3211703742,41.8561899069\H,0,36.4810264215,81.6880841067,42.75498
 22264\H,0,37.0867308426,80.2403608775,41.9474659418\H,0,36.3368198754,
 81.5281185907,41.0019851812\C,0,38.1603671913,82.9820803984,39.3236030
 964\H,0,37.1442408488,82.5977205881,39.2888790276\H,0,38.7233017864,82
 .5359644787,38.5035735123\H,0,38.1263076311,84.0600486256,39.164018328
 \C,0,40.2630843981,85.8403890444,43.1906441506\H,0,40.7359639749,85.82
 30502842,42.2140870789\H,0,40.0942364481,86.8566134695,43.5326602903\H
 ,0,39.3251505078,85.2961027444,43.1540501103\S,0,41.3234011556,84.9646
 529323,44.4000288907\H,0,42.3671004721,85.7953898496,44.2541993256\\Ve
 rsion=ES64L-G16RevC.02\State=2-A\HF=-3080.0325968\S2=1.293639\S2-1=0.\
 S2A=0.807114\RMSD=9.541e-09\Dipole=-0.5025621,1.3601888,-0.2408334\Qua
 drupole=7.2535108,-11.845313,4.5918022,14.9957604,9.8316085,-19.732817
 9\PG=C01 [X(C31H32Fe1N4S1)]\\@
 The archive entry for this job was punched.


 EDUCATION DOESN'T COST 
           ... IT PAYS!

 -- POSTMARK, UNIV. OF MISSISSIPPI, DEC 78
 Job cpu time:       0 days  5 hours 48 minutes 48.2 seconds.
 Elapsed time:       0 days  0 hours  5 minutes 57.6 seconds.
 File lengths (MBytes):  RWF=    343 Int=      0 D2E=      0 Chk=    150 Scr=      1
 Normal termination of Gaussian 16 at Mon Nov 11 14:12:39 2024.
 time:       0 days  5 hours 39 minutes 33.7 seconds.
 Elapsed time:       0 days  0 hours  5 minutes 51.3 seconds.
 File lengths (MBytes):  RWF=    343 Int=      0 D2E=      0 Chk=    150 Scr=      1
 Normal termination of Gaussian 16 at Mon Nov 11 14:10:34 2024.
