 Entering Gaussian System, Link 0=g16
 Input=6hqs12re.com
 Output=6hqs12re.log
 Initial command:
 /sw/chem/gaussian/g16_C02/a100/g16/l1.exe "/local/becsleip_8076602/Gau-1536365.inp" -scrdir="/local/becsleip_8076602/"
 Entering Link 1 = /sw/chem/gaussian/g16_C02/a100/g16/l1.exe PID=   1536366.
  
 Copyright (c) 1988-2021, Gaussian, Inc.  All Rights Reserved.
  
 This is part of the Gaussian(R) 16 program.  It is based on
 the Gaussian(R) 09 system (copyright 2009, Gaussian, Inc.),
 the Gaussian(R) 03 system (copyright 2003, Gaussian, Inc.),
 the Gaussian(R) 98 system (copyright 1998, Gaussian, Inc.),
 the Gaussian(R) 94 system (copyright 1995, Gaussian, Inc.),
 the Gaussian 92(TM) system (copyright 1992, Gaussian, Inc.),
 the Gaussian 90(TM) system (copyright 1990, Gaussian, Inc.),
 the Gaussian 88(TM) system (copyright 1988, Gaussian, Inc.),
 the Gaussian 86(TM) system (copyright 1986, Carnegie Mellon
 University), and the Gaussian 82(TM) system (copyright 1983,
 Carnegie Mellon University). Gaussian is a federally registered
 trademark of Gaussian, Inc.
  
 This software contains proprietary and confidential information,
 including trade secrets, belonging to Gaussian, Inc.
  
 This software is provided under written license and may be
 used, copied, transmitted, or stored only in accord with that
 written license.
  
 The following legend is applicable only to US Government
 contracts under FAR:
  
                    RESTRICTED RIGHTS LEGEND
  
 Use, reproduction and disclosure by the US Government is
 subject to restrictions as set forth in subparagraphs (a)
 and (c) of the Commercial Computer Software - Restricted
 Rights clause in FAR 52.227-19.
  
 Gaussian, Inc.
 340 Quinnipiac St., Bldg. 40, Wallingford CT 06492
  
  
 ---------------------------------------------------------------
 Warning -- This program may not be used in any manner that
 competes with the business of Gaussian, Inc. or will provide
 assistance to any competitor of Gaussian, Inc.  The licensee
 of this program is prohibited from giving any competitor of
 Gaussian, Inc. access to this program.  By using this program,
 the user acknowledges that Gaussian, Inc. is engaged in the
 business of creating and licensing software in the field of
 computational chemistry and represents and warrants to the
 licensee that it is not a competitor of Gaussian, Inc. and that
 it will not use this program in any manner prohibited above.
 ---------------------------------------------------------------
  

 Cite this work as:
 Gaussian 16, Revision C.02,
 M. J. Frisch, G. W. Trucks, H. B. Schlegel, G. E. Scuseria, 
 M. A. Robb, J. R. Cheeseman, G. Scalmani, V. Barone, 
 G. A. Petersson, H. Nakatsuji, X. Li, M. Caricato, A. V. Marenich, 
 J. Bloino, B. G. Janesko, R. Gomperts, B. Mennucci, H. P. Hratchian, 
 J. V. Ortiz, A. F. Izmaylov, J. L. Sonnenberg, D. Williams-Young, 
 F. Ding, F. Lipparini, F. Egidi, J. Goings, B. Peng, A. Petrone, 
 T. Henderson, D. Ranasinghe, V. G. Zakrzewski, J. Gao, N. Rega, 
 G. Zheng, W. Liang, M. Hada, M. Ehara, K. Toyota, R. Fukuda, 
 J. Hasegawa, M. Ishida, T. Nakajima, Y. Honda, O. Kitao, H. Nakai, 
 T. Vreven, K. Throssell, J. A. Montgomery, Jr., J. E. Peralta, 
 F. Ogliaro, M. J. Bearpark, J. J. Heyd, E. N. Brothers, K. N. Kudin, 
 V. N. Staroverov, T. A. Keith, R. Kobayashi, J. Normand, 
 K. Raghavachari, A. P. Rendell, J. C. Burant, S. S. Iyengar, 
 J. Tomasi, M. Cossi, J. M. Millam, M. Klene, C. Adamo, R. Cammi, 
 J. W. Ochterski, R. L. Martin, K. Morokuma, O. Farkas, 
 J. B. Foresman, and D. J. Fox, Gaussian, Inc., Wallingford CT, 2019.
 
 ******************************************
 Gaussian 16:  ES64L-G16RevC.02  7-Dec-2021
                11-Nov-2024 
 ******************************************
 %mem=16GB
 %CPU=0-71
 SetSPE:  set environment variable "OMP_PROC_BIND" = "true"
 SetSPE:  set environment variable "OMP_PLACES" = "{0},{1},{2},{3},{4},{5},{6},{7},{8},{9},{10},{11},{12},{13},{14},{15},{16},{17},{18},{19},{20},{21},{22},{23},{24},{25},{26},{27},{28},{29},{30},{31},{32},{33},{34},{35},{36},{37},{38},{39},{40},{41},{42},{43},{44},{45},{46},{47},{48},{49},{50},{51},{52},{53},{54},{55},{56},{57},{58},{59},{60},{61},{62},{63},{64},{65},{66},{67},{68},{69},{70},{71}"
 Will use up to   72 processors via shared memory.
 %gpucpu=0,1,2,3=0,1,2,3
 Will use    4 GPUs:
 Thread  CPU   GPU
      0    0     0
      1    1     1
      2    2     2
      3    3     3
      4    4    -1
      5    5    -1
      6    6    -1
      7    7    -1
      8    8    -1
      9    9    -1
     10   10    -1
     11   11    -1
     12   12    -1
     13   13    -1
     14   14    -1
     15   15    -1
     16   16    -1
     17   17    -1
     18   18    -1
     19   19    -1
     20   20    -1
     21   21    -1
     22   22    -1
     23   23    -1
     24   24    -1
     25   25    -1
     26   26    -1
     27   27    -1
     28   28    -1
     29   29    -1
     30   30    -1
     31   31    -1
     32   32    -1
     33   33    -1
     34   34    -1
     35   35    -1
     36   36    -1
     37   37    -1
     38   38    -1
     39   39    -1
     40   40    -1
     41   41    -1
     42   42    -1
     43   43    -1
     44   44    -1
     45   45    -1
     46   46    -1
     47   47    -1
     48   48    -1
     49   49    -1
     50   50    -1
     51   51    -1
     52   52    -1
     53   53    -1
     54   54    -1
     55   55    -1
     56   56    -1
     57   57    -1
     58   58    -1
     59   59    -1
     60   60    -1
     61   61    -1
     62   62    -1
     63   63    -1
     64   64    -1
     65   65    -1
     66   66    -1
     67   67    -1
     68   68    -1
     69   69    -1
     70   70    -1
     71   71    -1
 SetGPE:  set environment variable "OMP_PROC_BIND" = "true"
 SetGPE:  set environment variable "OMP_PLACES" = "{0},{1},{2},{3},{4},{5},{6},{7},{8},{9},{10},{11},{12},{13},{14},{15},{16},{17},{18},{19},{20},{21},{22},{23},{24},{25},{26},{27},{28},{29},{30},{31},{32},{33},{34},{35},{36},{37},{38},{39},{40},{41},{42},{43},{44},{45},{46},{47},{48},{49},{50},{51},{52},{53},{54},{55},{56},{57},{58},{59},{60},{61},{62},{63},{64},{65},{66},{67},{68},{69},{70},{71}"
 %oldchk=6hqs_II_S.chk
 %chk=6hqs_II_Sre.chk
 Properties for Device   0
 Minimum vector length:                              32
 Maximum vector length:                            1024
 Number of SMPs:                                    108
 Maximum number of threads per SMP:                2048
 Number of ASync Engines:                             5
 Memory:                                           9207742464
 Properties for Device   1
 Minimum vector length:                              32
 Maximum vector length:                            1024
 Number of SMPs:                                    108
 Maximum number of threads per SMP:                2048
 Number of ASync Engines:                             5
 Memory:                                           9207742464
 Properties for Device   2
 Minimum vector length:                              32
 Maximum vector length:                            1024
 Number of SMPs:                                    108
 Maximum number of threads per SMP:                2048
 Number of ASync Engines:                             5
 Memory:                                           9207742464
 Properties for Device   3
 Minimum vector length:                              32
 Maximum vector length:                            1024
 Number of SMPs:                                    108
 Maximum number of threads per SMP:                2048
 Number of ASync Engines:                             5
 Memory:                                           9207742464
   8286968217 words of memory will be used on each GPU.
 Copying data from "6hqs_II_S.chk" to current chk file "6hqs_II_Sre.chk"
 IOpt=  2 FromEx=T IUOpen= 4 IOptOp= 5 NList=   0 IFRang= 0 IUIn= 4 IUOut= 2.
 --------------------------------------
 # apfd/gen scf=maxcycle=999 geom=check
 --------------------------------------
 1/29=2,38=1,172=1/1;
 2/12=2,40=1/2;
 3/5=7,11=2,14=-4,25=1,30=1,74=-44/1,2,3;
 4//1;
 5/5=2,7=999,38=5/2;
 6/7=2,8=2,9=2,10=2,28=1/1;
 99/5=1,9=1/99;
 ----------
 6hqs_III_D
 ----------
 Structure from the checkpoint file:  "6hqs_II_Sre.chk"
 Charge =  1 Multiplicity = 2
 Z-Matrix found in chk file.
 Fe,0,41.8867979343,83.3099903069,42.859046533
 N,0,42.6602710442,84.1836751901,41.2279741825
 N,0,43.7127057147,83.2837443257,43.6891652117
 N,0,41.2999159001,81.9311141775,44.1978480607
 N,0,40.2586122135,82.8494316391,41.7477044364
 C,0,42.0628494024,84.4277065292,40.026753987
 C,0,42.9063933104,85.2400788945,39.1814967178
 C,0,44.0334384792,85.4941315188,39.898966484
 C,0,43.8664030673,84.822721295,41.1675303837
 C,0,44.7525828471,84.0951219515,43.3365089065
 C,0,45.7827307888,84.086263743,44.341150466
 C,0,45.3529048426,83.2322954624,45.3222259002
 C,0,44.0556525973,82.752042826,44.893909642
 C,0,41.9944302094,81.4880370524,45.2858302858
 C,0,41.1836309318,80.6248779694,46.1060257204
 C,0,39.9651859224,80.5448926581,45.489066042
 C,0,40.0669585833,81.3644864908,44.2976298094
 C,0,39.1516593056,82.1846529616,42.1816930266
 C,0,38.0966671713,82.2346962763,41.1952988022
 C,0,38.5950189867,82.9328179064,40.1397576239
 C,0,39.9411038612,83.3096277322,40.5041461184
 C,0,40.7912563337,84.0160630638,39.6761977312
 H,0,40.4274340664,84.2891205067,38.6980158359
 C,0,44.8280739777,84.8147309633,42.1574868203
 H,0,45.718877266,85.3988250259,41.986004589
 C,0,43.281687105,81.8673462964,45.6174176717
 H,0,43.6881673451,81.4879273965,46.5418785848
 C,0,39.0421756793,81.5180852495,43.3857032283
 H,0,38.1003687218,81.0396839408,43.6044873776
 C,0,45.2401509714,86.2785426727,39.515607574
 H,0,45.4253791859,87.0766973845,40.2347565642
 H,0,45.1134675286,86.725542631,38.53285939
 H,0,46.1203330451,85.6356288348,39.4889760642
 C,0,42.544843141,85.6711206204,37.8023816835
 H,0,41.6492777728,86.2935578703,37.815643233
 H,0,42.3453900372,84.8048529721,37.171818995
 H,0,43.3525886939,86.2429501914,37.3527323638
 C,0,47.0808574954,84.8075386859,44.2448275862
 H,0,46.9661175764,85.8544020908,44.5306515771
 H,0,47.4649502608,84.7760305237,43.2263925361
 H,0,47.8120853834,84.348476751,44.9066255915
 C,0,46.0157805534,82.8358932547,46.5453685152
 H,0,45.843539829,81.8136019048,46.8607756119
 C,0,46.7914670679,83.6186980478,47.287424741
 H,0,46.9571517771,84.6545313305,47.0476659598
 H,0,47.2659072396,83.2541318187,48.1830902788
 C,0,41.6571577464,79.915686654,47.3251850798
 H,0,41.6445135147,80.5817254249,48.1892554838
 H,0,42.6763164142,79.5568356844,47.1898251788
 H,0,41.0128259542,79.0648965241,47.5364070417
 C,0,38.7923101424,79.7916488097,45.8773203159
 H,0,38.2038312641,79.3855044612,45.0631191515
 C,0,38.4009464104,79.5770394049,47.1286673533
 H,0,38.9223842414,79.9972496738,47.9708889235
 H,0,37.5230881945,78.99411854,47.3521512935
 C,0,36.7573648563,81.606008217,41.3651087467
 H,0,36.2716078397,81.9761178425,42.2679353913
 H,0,36.8517687343,80.5233209248,41.4509275619
 H,0,36.1167863455,81.8263221331,40.5148661063
 C,0,37.9487176536,83.2760604681,38.8424215515
 H,0,36.9184726867,82.9305391796,38.8215718879
 H,0,38.4827593209,82.8097790723,38.0144168681
 H,0,37.9532671596,84.3544461045,38.6838799379
 C,0,40.0915536766,86.0979991678,42.6549313106
 H,0,40.5997966613,86.1046250186,41.6955001483
 H,0,39.9007589536,87.1057837856,43.010442526
 H,0,39.1604605238,85.5452843145,42.5736000905
 S,0,41.1166938308,85.2081464662,43.8860938027
 H,0,42.1673767079,86.0354751931,43.7719658044
 Recover connectivity data from disk.
 Stoichiometry    C31H32FeN4S(1+,2)
 Framework group  C1[X(C31H32FeN4S)]
 Deg. of freedom   201
 Full point group                 C1      NOp   1
 Largest Abelian subgroup         C1      NOp   1
 Largest concise Abelian subgroup C1      NOp   1
                         Standard orientation:                         
 ---------------------------------------------------------------------
 Center     Atomic      Atomic             Coordinates (Angstroms)
 Number     Number       Type             X           Y           Z
 ---------------------------------------------------------------------
      1         26           0        0.132216   -0.059656    0.005710
      2          7           0        1.396720   -1.581459   -0.321595
      3          7           0       -1.412771   -1.295611   -0.324677
      4          7           0       -1.103509    1.499401   -0.277919
      5          7           0        1.696409    1.197854   -0.259155
      6          6           0        2.754262   -1.550576   -0.446168
      7          6           0        3.303166   -2.885710   -0.491968
      8          6           0        2.247204   -3.735959   -0.384461
      9          6           0        1.067639   -2.907084   -0.286786
     10          6           0       -1.372035   -2.656368   -0.221103
     11          6           0       -2.697550   -3.212890   -0.158811
     12          6           0       -3.561606   -2.153047   -0.240423
     13          6           0       -2.733675   -0.968758   -0.335035
     14          6           0       -2.462097    1.464697   -0.402048
     15          6           0       -3.018157    2.793456   -0.420962
     16          6           0       -1.959579    3.652679   -0.307860
     17          6           0       -0.776346    2.819062   -0.226285
     18          6           0        1.656176    2.557293   -0.182165
     19          6           0        2.988479    3.117049   -0.193566
     20          6           0        3.843080    2.064068   -0.297407
     21          6           0        3.019661    0.877743   -0.333742
     22          6           0        3.522689   -0.402261   -0.459680
     23          1           0        4.591961   -0.515210   -0.547245
     24          6           0       -0.213932   -3.412779   -0.204718
     25          1           0       -0.319458   -4.484945   -0.146177
     26          6           0       -3.230157    0.315696   -0.429158
     27          1           0       -4.301543    0.435864   -0.467933
     28          6           0        0.506462    3.319879   -0.131581
     29          1           0        0.623184    4.390186   -0.064103
     30          6           0        2.230728   -5.225295   -0.379364
     31          1           0        1.747673   -5.602209    0.522372
     32          1           0        3.241924   -5.622360   -0.417766
     33          1           0        1.680865   -5.603559   -1.241533
     34          6           0        4.753879   -3.191319   -0.635174
     35          1           0        5.316672   -2.793449    0.210170
     36          1           0        5.150089   -2.743274   -1.546263
     37          1           0        4.919214   -4.264686   -0.681796
     38          6           0       -3.016274   -4.665658   -0.108533
     39          1           0       -2.928368   -5.047975    0.909745
     40          1           0       -2.335010   -5.232119   -0.741566
     41          1           0       -4.033936   -4.835916   -0.453186
     42          6           0       -5.008133   -2.150555   -0.253507
     43          1           0       -5.469154   -1.388399   -0.870602
     44          6           0       -5.784113   -2.989424    0.424190
     45          1           0       -5.380744   -3.733127    1.089085
     46          1           0       -6.858104   -2.939617    0.358752
     47          6           0       -4.458061    3.112381   -0.617164
     48          1           0       -5.009029    3.003543    0.318236
     49          1           0       -4.903484    2.443196   -1.351718
     50          1           0       -4.569628    4.136950   -0.965635
     51          6           0       -1.954413    5.099619   -0.298294
     52          1           0       -1.102450    5.569702   -0.775124
     53          6           0       -2.895579    5.864117    0.244699
     54          1           0       -3.737011    5.448211    0.770841
     55          1           0       -2.839808    6.939180    0.205885
     56          6           0        3.288194    4.573965   -0.120193
     57          1           0        2.841500    5.012995    0.771857
     58          1           0        2.884436    5.091288   -0.990736
     59          1           0        4.361063    4.746334   -0.088073
     60          6           0        5.330920    2.056308   -0.367212
     61          1           0        5.726817    3.063622   -0.268174
     62          1           0        5.666479    1.649085   -1.321037
     63          1           0        5.750147    1.441932    0.429571
     64          6           0        1.865748   -0.135511    2.838848
     65          1           0        2.450399   -0.806354    2.216742
     66          1           0        1.918785   -0.417202    3.885872
     67          1           0        2.212692    0.884772    2.705823
     68         16           0        0.115958   -0.163043    2.294800
     69          1           0       -0.046559   -1.476908    2.515660
 ---------------------------------------------------------------------
 Rotational constants (GHZ):           0.1104523           0.1093207           0.0596655
 General basis read from cards:  (5D, 7F)
 There are   644 symmetry adapted cartesian basis functions of A   symmetry.
 There are   605 symmetry adapted basis functions of A   symmetry.
   605 basis functions,  1246 primitive gaussians,   644 cartesian basis functions
   144 alpha electrons      143 beta electrons
       nuclear repulsion energy      5028.5131795496 Hartrees.
 NAtoms=   69 NActive=   69 NUniq=   69 SFac= 1.00D+00 NAtFMM=   60 NAOKFM=T Big=T
 Integral buffers will be    131072 words long.
 Raffenetti 2 integral format.
 Two-electron integral symmetry is turned on.
 R6APFD:  NTU= -4 IXU= 1 FactS= 1.050
 Nuclear repulsion after empirical dispersion term =     5028.3835401518 Hartrees.
 One-electron integrals computed using PRISM.
 NBasis=   605 RedAO= T EigKep=  2.53D-04  NBF=   605
 NBsUse=   605 1.00D-06 EigRej= -1.00D+00 NBFU=   605
 ExpMin= 4.20D-02 ExpMax= 3.01D+05 ExpMxC= 3.30D+03 IAcc=3 IRadAn=         5 AccDes= 0.00D+00
 Harris functional with IExCor= 3731 and IRadAn=       5 diagonalized for initial guess.
 HarFok:  IExCor= 3731 AccDes= 0.00D+00 IRadAn=         5 IDoV= 1 UseB2=F ITyADJ=14
 ICtDFT=  3500011 ScaDFX=  1.000000  1.000000  1.000000  1.000000
 FoFCou: FMM=F IPFlag=           0 FMFlag=      100000 FMFlg1=        2001
         NFxFlg=           0 DoJE=T BraDBF=F KetDBF=T FulRan=T
         wScrn=  0.000000 ICntrl=       500 IOpCl=  0 I1Cent=   200000004 NGrid=           0
         NMat0=    1 NMatS0=      1 NMatT0=    0 NMatD0=    1 NMtDS0=    0 NMtDT0=    0
 Petite list used in FoFCou.
 Initial guess <Sx>= 0.0000 <Sy>= 0.0000 <Sz>= 0.5000 <S**2>= 0.7500 S= 0.5000
 Requested convergence on RMS density matrix=1.00D-08 within 999 cycles.
 Requested convergence on MAX density matrix=1.00D-06.
 Requested convergence on             energy=1.00D-06.
 No special actions if energy rises.
 EnCoef did   100 forward-backward iterations
 EnCoef did   100 forward-backward iterations
 EnCoef did   100 forward-backward iterations
 EnCoef did   100 forward-backward iterations
 EnCoef did     4 forward-backward iterations
 Restarting incremental Fock formation.
 Rare condition: small coef for last iteration:  0.000D+00
 Rare condition: small coef for last iteration:  0.000D+00
 Rare condition: small coef for last iteration:  0.000D+00
 Rare condition: small coef for last iteration:  0.000D+00
 Restarting incremental Fock formation.
 Restarting incremental Fock formation.
 Restarting incremental Fock formation.
 Restarting incremental Fock formation.
 SCF Done:  E(UAPFD) =  -3080.03198644     A.U. after  110 cycles
            NFock=110  Conv=0.60D-08     -V/T= 2.0033
 <Sx>= 0.0000 <Sy>= 0.0000 <Sz>= 0.5000 <S**2>= 1.2911 S= 0.7414
 <L.S>=  0.00000000000    
 Annihilation of the first spin contaminant:
 S**2 before annihilation     1.2911,   after     0.8070

 **********************************************************************

            Population analysis using the SCF Density.

 **********************************************************************

 Orbital symmetries:
 Alpha Orbitals:
       Occupied  (A) (A) (A) (A) (A) (A) (A) (A) (A) (A) (A) (A)
                 (A) (A) (A) (A) (A) (A) (A) (A) (A) (A) (A) (A)
                 (A) (A) (A) (A) (A) (A) (A) (A) (A) (A) (A) (A)
                 (A) (A) (A) (A) (A) (A) (A) (A) (A) (A) (A) (A)
                 (A) (A) (A) (A) (A) (A) (A) (A) (A) (A) (A) (A)
                 (A) (A) (A) (A) (A) (A) (A) (A) (A) (A) (A) (A)
                 (A) (A) (A) (A) (A) (A) (A) (A) (A) (A) (A) (A)
                 (A) (A) (A) (A) (A) (A) (A) (A) (A) (A) (A) (A)
                 (A) (A) (A) (A) (A) (A) (A) (A) (A) (A) (A) (A)
                 (A) (A) (A) (A) (A) (A) (A) (A) (A) (A) (A) (A)
                 (A) (A) (A) (A) (A) (A) (A) (A) (A) (A) (A) (A)
                 (A) (A) (A) (A) (A) (A) (A) (A) (A) (A) (A) (A)
       Virtual   (A) (A) (A) (A) (A) (A) (A) (A) (A) (A) (A) (A)
                 (A) (A) (A) (A) (A) (A) (A) (A) (A) (A) (A) (A)
                 (A) (A) (A) (A) (A) (A) (A) (A) (A) (A) (A) (A)
                 (A) (A) (A) (A) (A) (A) (A) (A) (A) (A) (A) (A)
                 (A) (A) (A) (A) (A) (A) (A) (A) (A) (A) (A) (A)
                 (A) (A) (A) (A) (A) (A) (A) (A) (A) (A) (A) (A)
                 (A) (A) (A) (A) (A) (A) (A) (A) (A) (A) (A) (A)
                 (A) (A) (A) (A) (A) (A) (A) (A) (A) (A) (A) (A)
                 (A) (A) (A) (A) (A) (A) (A) (A) (A) (A) (A) (A)
                 (A) (A) (A) (A) (A) (A) (A) (A) (A) (A) (A) (A)
                 (A) (A) (A) (A) (A) (A) (A) (A) (A) (A) (A) (A)
                 (A) (A) (A) (A) (A) (A) (A) (A) (A) (A) (A) (A)
                 (A) (A) (A) (A) (A) (A) (A) (A) (A) (A) (A) (A)
                 (A) (A) (A) (A) (A) (A) (A) (A) (A) (A) (A) (A)
                 (A) (A) (A) (A) (A) (A) (A) (A) (A) (A) (A) (A)
                 (A) (A) (A) (A) (A) (A) (A) (A) (A) (A) (A) (A)
                 (A) (A) (A) (A) (A) (A) (A) (A) (A) (A) (A) (A)
                 (A) (A) (A) (A) (A) (A) (A) (A) (A) (A) (A) (A)
                 (A) (A) (A) (A) (A) (A) (A) (A) (A) (A) (A) (A)
                 (A) (A) (A) (A) (A) (A) (A) (A) (A) (A) (A) (A)
                 (A) (A) (A) (A) (A) (A) (A) (A) (A) (A) (A) (A)
                 (A) (A) (A) (A) (A) (A) (A) (A) (A) (A) (A) (A)
                 (A) (A) (A) (A) (A) (A) (A) (A) (A) (A) (A) (A)
                 (A) (A) (A) (A) (A) (A) (A) (A) (A) (A) (A) (A)
                 (A) (A) (A) (A) (A) (A) (A) (A) (A) (A) (A) (A)
                 (A) (A) (A) (A) (A) (A) (A) (A) (A) (A) (A) (A)
                 (A) (A) (A) (A) (A) (A) (A) (A) (A) (A) (A) (A)
                 (A) (A) (A) (A) (A) (A) (A) (A) (A) (A) (A) (A)
                 (A) (A) (A) (A) (A) (A) (A) (A) (A) (A) (A) (A)
                 (A) (A) (A) (A) (A) (A) (A) (A) (A) (A) (A) (A)
                 (A) (A) (A) (A) (A) (A) (A) (A) (A) (A) (A) (A)
                 (A) (A) (A) (A) (A) (A) (A) (A) (A) (A) (A) (A)
                 (A) (A) (A) (A) (A) (A) (A) (A) (A) (A) (A) (A)
                 (A) (A) (A) (A) (A) (A) (A) (A) (A) (A) (A) (A)
                 (A) (A) (A) (A) (A) (A) (A) (A) (A) (A) (A) (A)
                 (A) (A) (A) (A) (A) (A) (A) (A) (A) (A) (A) (A)
                 (A) (A) (A) (A) (A) (A) (A) (A) (A) (A) (A) (A)
                 (A) (A) (A) (A) (A) (A) (A) (A) (A) (A) (A) (A)
                 (A) (A) (A) (A) (A)
 Beta  Orbitals:
       Occupied  (A) (A) (A) (A) (A) (A) (A) (A) (A) (A) (A) (A)
                 (A) (A) (A) (A) (A) (A) (A) (A) (A) (A) (A) (A)
                 (A) (A) (A) (A) (A) (A) (A) (A) (A) (A) (A) (A)
                 (A) (A) (A) (A) (A) (A) (A) (A) (A) (A) (A) (A)
                 (A) (A) (A) (A) (A) (A) (A) (A) (A) (A) (A) (A)
                 (A) (A) (A) (A) (A) (A) (A) (A) (A) (A) (A) (A)
                 (A) (A) (A) (A) (A) (A) (A) (A) (A) (A) (A) (A)
                 (A) (A) (A) (A) (A) (A) (A) (A) (A) (A) (A) (A)
                 (A) (A) (A) (A) (A) (A) (A) (A) (A) (A) (A) (A)
                 (A) (A) (A) (A) (A) (A) (A) (A) (A) (A) (A) (A)
                 (A) (A) (A) (A) (A) (A) (A) (A) (A) (A) (A) (A)
                 (A) (A) (A) (A) (A) (A) (A) (A) (A) (A) (A)
       Virtual   (A) (A) (A) (A) (A) (A) (A) (A) (A) (A) (A) (A)
                 (A) (A) (A) (A) (A) (A) (A) (A) (A) (A) (A) (A)
                 (A) (A) (A) (A) (A) (A) (A) (A) (A) (A) (A) (A)
                 (A) (A) (A) (A) (A) (A) (A) (A) (A) (A) (A) (A)
                 (A) (A) (A) (A) (A) (A) (A) (A) (A) (A) (A) (A)
                 (A) (A) (A) (A) (A) (A) (A) (A) (A) (A) (A) (A)
                 (A) (A) (A) (A) (A) (A) (A) (A) (A) (A) (A) (A)
                 (A) (A) (A) (A) (A) (A) (A) (A) (A) (A) (A) (A)
                 (A) (A) (A) (A) (A) (A) (A) (A) (A) (A) (A) (A)
                 (A) (A) (A) (A) (A) (A) (A) (A) (A) (A) (A) (A)
                 (A) (A) (A) (A) (A) (A) (A) (A) (A) (A) (A) (A)
                 (A) (A) (A) (A) (A) (A) (A) (A) (A) (A) (A) (A)
                 (A) (A) (A) (A) (A) (A) (A) (A) (A) (A) (A) (A)
                 (A) (A) (A) (A) (A) (A) (A) (A) (A) (A) (A) (A)
                 (A) (A) (A) (A) (A) (A) (A) (A) (A) (A) (A) (A)
                 (A) (A) (A) (A) (A) (A) (A) (A) (A) (A) (A) (A)
                 (A) (A) (A) (A) (A) (A) (A) (A) (A) (A) (A) (A)
                 (A) (A) (A) (A) (A) (A) (A) (A) (A) (A) (A) (A)
                 (A) (A) (A) (A) (A) (A) (A) (A) (A) (A) (A) (A)
                 (A) (A) (A) (A) (A) (A) (A) (A) (A) (A) (A) (A)
                 (A) (A) (A) (A) (A) (A) (A) (A) (A) (A) (A) (A)
                 (A) (A) (A) (A) (A) (A) (A) (A) (A) (A) (A) (A)
                 (A) (A) (A) (A) (A) (A) (A) (A) (A) (A) (A) (A)
                 (A) (A) (A) (A) (A) (A) (A) (A) (A) (A) (A) (A)
                 (A) (A) (A) (A) (A) (A) (A) (A) (A) (A) (A) (A)
                 (A) (A) (A) (A) (A) (A) (A) (A) (A) (A) (A) (A)
                 (A) (A) (A) (A) (A) (A) (A) (A) (A) (A) (A) (A)
                 (A) (A) (A) (A) (A) (A) (A) (A) (A) (A) (A) (A)
                 (A) (A) (A) (A) (A) (A) (A) (A) (A) (A) (A) (A)
                 (A) (A) (A) (A) (A) (A) (A) (A) (A) (A) (A) (A)
                 (A) (A) (A) (A) (A) (A) (A) (A) (A) (A) (A) (A)
                 (A) (A) (A) (A) (A) (A) (A) (A) (A) (A) (A) (A)
                 (A) (A) (A) (A) (A) (A) (A) (A) (A) (A) (A) (A)
                 (A) (A) (A) (A) (A) (A) (A) (A) (A) (A) (A) (A)
                 (A) (A) (A) (A) (A) (A) (A) (A) (A) (A) (A) (A)
                 (A) (A) (A) (A) (A) (A) (A) (A) (A) (A) (A) (A)
                 (A) (A) (A) (A) (A) (A) (A) (A) (A) (A) (A) (A)
                 (A) (A) (A) (A) (A) (A) (A) (A) (A) (A) (A) (A)
                 (A) (A) (A) (A) (A) (A)
 The electronic state is 2-A.
 Alpha  occ. eigenvalues -- -256.34821 -89.10398 -30.21833 -26.06314 -26.06188
 Alpha  occ. eigenvalues --  -26.03691 -14.49303 -14.49131 -14.48909 -14.48864
 Alpha  occ. eigenvalues --  -10.34931 -10.34895 -10.34858 -10.34791 -10.34653
 Alpha  occ. eigenvalues --  -10.34641 -10.34605 -10.34586 -10.34510 -10.32665
 Alpha  occ. eigenvalues --  -10.32640 -10.32481 -10.32473 -10.31514 -10.31448
 Alpha  occ. eigenvalues --  -10.31397 -10.31237 -10.31108 -10.31097 -10.31043
 Alpha  occ. eigenvalues --  -10.30952 -10.30037 -10.29984 -10.29305 -10.29276
 Alpha  occ. eigenvalues --  -10.29084 -10.28990 -10.28745 -10.28712 -10.28663
 Alpha  occ. eigenvalues --  -10.28631  -8.13582  -6.08139  -6.07858  -6.07347
 Alpha  occ. eigenvalues --   -3.62364  -2.41042  -2.40386  -2.34541  -1.10165
 Alpha  occ. eigenvalues --   -1.09269  -1.09010  -1.08114  -0.95023  -0.94077
 Alpha  occ. eigenvalues --   -0.93042  -0.92796  -0.92512  -0.92251  -0.92093
 Alpha  occ. eigenvalues --   -0.91867  -0.87684  -0.86748  -0.86241  -0.85306
 Alpha  occ. eigenvalues --   -0.83985  -0.82121  -0.81027  -0.79698  -0.79456
 Alpha  occ. eigenvalues --   -0.79413  -0.79044  -0.76443  -0.76418  -0.71476
 Alpha  occ. eigenvalues --   -0.70831  -0.70159  -0.69564  -0.66329  -0.65562
 Alpha  occ. eigenvalues --   -0.64552  -0.64144  -0.62937  -0.62761  -0.62401
 Alpha  occ. eigenvalues --   -0.60084  -0.59855  -0.59437  -0.59066  -0.57724
 Alpha  occ. eigenvalues --   -0.57064  -0.55882  -0.55376  -0.55270  -0.55079
 Alpha  occ. eigenvalues --   -0.54740  -0.54400  -0.54313  -0.54045  -0.53616
 Alpha  occ. eigenvalues --   -0.53369  -0.52914  -0.52781  -0.51622  -0.51513
 Alpha  occ. eigenvalues --   -0.51434  -0.51378  -0.51256  -0.51188  -0.50832
 Alpha  occ. eigenvalues --   -0.50461  -0.50414  -0.50094  -0.49985  -0.49498
 Alpha  occ. eigenvalues --   -0.49188  -0.48930  -0.48680  -0.48274  -0.47987
 Alpha  occ. eigenvalues --   -0.47515  -0.47063  -0.46840  -0.45946  -0.45394
 Alpha  occ. eigenvalues --   -0.45142  -0.44462  -0.43773  -0.43629  -0.43211
 Alpha  occ. eigenvalues --   -0.43145  -0.41008  -0.40390  -0.39994  -0.39028
 Alpha  occ. eigenvalues --   -0.38756  -0.37981  -0.37547  -0.35697  -0.33970
 Alpha  occ. eigenvalues --   -0.33113  -0.32321  -0.31758  -0.30120
 Alpha virt. eigenvalues --   -0.25062  -0.18098  -0.18030  -0.14644  -0.12383
 Alpha virt. eigenvalues --   -0.10195  -0.08630  -0.07536  -0.06154  -0.05534
 Alpha virt. eigenvalues --   -0.02932  -0.02019  -0.01200  -0.00240   0.00564
 Alpha virt. eigenvalues --    0.01049   0.01395   0.01873   0.02260   0.03180
 Alpha virt. eigenvalues --    0.03275   0.03698   0.03912   0.04124   0.04379
 Alpha virt. eigenvalues --    0.04712   0.05133   0.05361   0.05778   0.06202
 Alpha virt. eigenvalues --    0.06858   0.07042   0.07228   0.07581   0.07924
 Alpha virt. eigenvalues --    0.08214   0.08822   0.08921   0.09431   0.09524
 Alpha virt. eigenvalues --    0.09805   0.10461   0.10970   0.11202   0.11265
 Alpha virt. eigenvalues --    0.11875   0.11937   0.12500   0.12640   0.12981
 Alpha virt. eigenvalues --    0.13676   0.14170   0.14657   0.15076   0.15139
 Alpha virt. eigenvalues --    0.15699   0.15925   0.16875   0.16911   0.17190
 Alpha virt. eigenvalues --    0.18676   0.19191   0.19605   0.20154   0.20630
 Alpha virt. eigenvalues --    0.21448   0.22348   0.22895   0.23611   0.24018
 Alpha virt. eigenvalues --    0.24442   0.24615   0.25428   0.26092   0.26561
 Alpha virt. eigenvalues --    0.26972   0.27871   0.29003   0.30057   0.31442
 Alpha virt. eigenvalues --    0.31727   0.32695   0.33039   0.33575   0.34244
 Alpha virt. eigenvalues --    0.34861   0.37295   0.37657   0.37909   0.38063
 Alpha virt. eigenvalues --    0.38988   0.39341   0.39646   0.40181   0.40811
 Alpha virt. eigenvalues --    0.41460   0.42050   0.42600   0.42870   0.43230
 Alpha virt. eigenvalues --    0.43650   0.43856   0.44434   0.44893   0.45192
 Alpha virt. eigenvalues --    0.45507   0.46029   0.47093   0.47462   0.47839
 Alpha virt. eigenvalues --    0.48006   0.48905   0.49355   0.49691   0.49809
 Alpha virt. eigenvalues --    0.50476   0.50765   0.51003   0.52040   0.52213
 Alpha virt. eigenvalues --    0.52368   0.52926   0.53403   0.53803   0.54267
 Alpha virt. eigenvalues --    0.54559   0.55310   0.55577   0.56065   0.56324
 Alpha virt. eigenvalues --    0.56767   0.57110   0.57176   0.57488   0.58204
 Alpha virt. eigenvalues --    0.59307   0.59690   0.60340   0.61278   0.61808
 Alpha virt. eigenvalues --    0.62069   0.62351   0.63029   0.63666   0.63957
 Alpha virt. eigenvalues --    0.64867   0.65041   0.65281   0.65749   0.66314
 Alpha virt. eigenvalues --    0.66325   0.67090   0.67189   0.67552   0.67714
 Alpha virt. eigenvalues --    0.68288   0.68364   0.68840   0.69253   0.69718
 Alpha virt. eigenvalues --    0.70286   0.70592   0.70706   0.71427   0.72098
 Alpha virt. eigenvalues --    0.73004   0.73475   0.74770   0.75379   0.75773
 Alpha virt. eigenvalues --    0.76421   0.76528   0.76962   0.77546   0.77975
 Alpha virt. eigenvalues --    0.78228   0.78756   0.79137   0.80025   0.80230
 Alpha virt. eigenvalues --    0.80547   0.80997   0.81778   0.82164   0.82338
 Alpha virt. eigenvalues --    0.82511   0.82830   0.83334   0.83447   0.83719
 Alpha virt. eigenvalues --    0.84326   0.84602   0.85172   0.85653   0.86164
 Alpha virt. eigenvalues --    0.86456   0.86806   0.87158   0.87589   0.88653
 Alpha virt. eigenvalues --    0.89445   0.89788   0.89876   0.90052   0.90315
 Alpha virt. eigenvalues --    0.90867   0.91225   0.91863   0.92575   0.93552
 Alpha virt. eigenvalues --    0.93620   0.93744   0.94588   0.95374   0.95441
 Alpha virt. eigenvalues --    0.95876   0.96911   0.97233   0.97708   0.99550
 Alpha virt. eigenvalues --    1.00077   1.01821   1.02236   1.03656   1.03727
 Alpha virt. eigenvalues --    1.04596   1.05129   1.06420   1.06470   1.07191
 Alpha virt. eigenvalues --    1.07519   1.09043   1.09119   1.09906   1.10126
 Alpha virt. eigenvalues --    1.10872   1.11056   1.12691   1.13044   1.13568
 Alpha virt. eigenvalues --    1.14384   1.15215   1.16096   1.16809   1.17120
 Alpha virt. eigenvalues --    1.17413   1.17598   1.18649   1.19263   1.19776
 Alpha virt. eigenvalues --    1.21416   1.22599   1.23744   1.23933   1.24929
 Alpha virt. eigenvalues --    1.25838   1.26426   1.26599   1.26879   1.27459
 Alpha virt. eigenvalues --    1.27621   1.28191   1.28814   1.29751   1.32087
 Alpha virt. eigenvalues --    1.32722   1.33022   1.33187   1.34807   1.37066
 Alpha virt. eigenvalues --    1.37389   1.38971   1.40903   1.42034   1.42769
 Alpha virt. eigenvalues --    1.43039   1.43845   1.43948   1.44846   1.45374
 Alpha virt. eigenvalues --    1.45811   1.48283   1.48487   1.49267   1.49638
 Alpha virt. eigenvalues --    1.51340   1.51985   1.53260   1.53675   1.54902
 Alpha virt. eigenvalues --    1.57454   1.58376   1.58793   1.59158   1.59942
 Alpha virt. eigenvalues --    1.60733   1.61523   1.63859   1.66010   1.67103
 Alpha virt. eigenvalues --    1.67634   1.68266   1.68813   1.69057   1.69783
 Alpha virt. eigenvalues --    1.70237   1.70967   1.71261   1.71530   1.72635
 Alpha virt. eigenvalues --    1.72846   1.73301   1.73460   1.75186   1.76074
 Alpha virt. eigenvalues --    1.76232   1.76615   1.77169   1.78733   1.80219
 Alpha virt. eigenvalues --    1.80335   1.80586   1.81041   1.81213   1.81494
 Alpha virt. eigenvalues --    1.81994   1.84024   1.84136   1.84919   1.86150
 Alpha virt. eigenvalues --    1.89013   1.89154   1.89616   1.89860   1.90241
 Alpha virt. eigenvalues --    1.90782   1.91063   1.92330   1.92789   1.93834
 Alpha virt. eigenvalues --    1.94289   1.94901   1.95512   1.96411   1.97563
 Alpha virt. eigenvalues --    1.98738   1.98915   2.01385   2.02181   2.02913
 Alpha virt. eigenvalues --    2.04012   2.04169   2.04965   2.05680   2.06452
 Alpha virt. eigenvalues --    2.07648   2.08213   2.09536   2.10346   2.10785
 Alpha virt. eigenvalues --    2.11339   2.12042   2.12757   2.13163   2.13478
 Alpha virt. eigenvalues --    2.13716   2.14529   2.15331   2.16001   2.16302
 Alpha virt. eigenvalues --    2.16669   2.16869   2.18273   2.18680   2.19385
 Alpha virt. eigenvalues --    2.19715   2.20247   2.21063   2.21236   2.22396
 Alpha virt. eigenvalues --    2.23345   2.23841   2.24816   2.24913   2.25259
 Alpha virt. eigenvalues --    2.26249   2.26815   2.27708   2.29425   2.29967
 Alpha virt. eigenvalues --    2.30245   2.31208   2.32010   2.32598   2.33549
 Alpha virt. eigenvalues --    2.33872   2.34300   2.34363   2.37435   2.38187
 Alpha virt. eigenvalues --    2.38770   2.40662   2.41420   2.42073   2.42340
 Alpha virt. eigenvalues --    2.42521   2.43452   2.44627   2.44644   2.45628
 Alpha virt. eigenvalues --    2.46045   2.49339   2.49730   2.52130   2.54037
 Alpha virt. eigenvalues --    2.54824   2.55321   2.56345   2.57027   2.59066
 Alpha virt. eigenvalues --    2.59824   2.60123   2.64711   2.66673   2.67480
 Alpha virt. eigenvalues --    2.68988   2.70380   2.70503   2.75061   2.76615
 Alpha virt. eigenvalues --    2.77391   2.79552   2.80088   2.81284   2.83423
 Alpha virt. eigenvalues --    2.85409   2.85703   2.86242   2.87499   2.88265
 Alpha virt. eigenvalues --    2.89733   2.93606   2.94069   3.01036   3.02450
 Alpha virt. eigenvalues --    3.09116   3.10118   3.12084   3.17458   3.18646
 Alpha virt. eigenvalues --    3.19131   3.26525   3.28569   3.28990   3.33981
 Alpha virt. eigenvalues --    3.34350   3.43402   3.46917   3.68352   3.85729
 Alpha virt. eigenvalues --    3.93422
  Beta  occ. eigenvalues -- -256.34758 -89.10436 -30.18478 -26.03187 -26.02438
  Beta  occ. eigenvalues --  -26.02164 -14.49577 -14.49403 -14.49203 -14.49158
  Beta  occ. eigenvalues --  -10.34930 -10.34812 -10.34770 -10.34711 -10.34578
  Beta  occ. eigenvalues --  -10.34560 -10.34530 -10.34507 -10.34432 -10.32902
  Beta  occ. eigenvalues --  -10.32861 -10.32709 -10.32705 -10.31491 -10.31426
  Beta  occ. eigenvalues --  -10.31376 -10.31236 -10.31101 -10.31072 -10.31036
  Beta  occ. eigenvalues --  -10.30943 -10.30048 -10.29990 -10.29307 -10.29278
  Beta  occ. eigenvalues --  -10.29085 -10.28991 -10.28746 -10.28693 -10.28665
  Beta  occ. eigenvalues --  -10.28621  -8.13619  -6.08162  -6.07892  -6.07461
  Beta  occ. eigenvalues --   -3.54146  -2.30880  -2.30335  -2.28474  -1.10439
  Beta  occ. eigenvalues --   -1.09512  -1.09312  -1.08382  -0.95272  -0.94188
  Beta  occ. eigenvalues --   -0.93100  -0.92861  -0.92613  -0.92427  -0.92363
  Beta  occ. eigenvalues --   -0.92018  -0.87688  -0.87256  -0.86288  -0.85339
  Beta  occ. eigenvalues --   -0.84036  -0.82150  -0.81084  -0.79738  -0.79506
  Beta  occ. eigenvalues --   -0.79428  -0.79124  -0.76516  -0.76489  -0.71489
  Beta  occ. eigenvalues --   -0.70841  -0.70201  -0.69810  -0.66365  -0.65623
  Beta  occ. eigenvalues --   -0.64585  -0.64132  -0.63030  -0.62860  -0.62442
  Beta  occ. eigenvalues --   -0.60102  -0.59833  -0.59496  -0.59111  -0.57870
  Beta  occ. eigenvalues --   -0.57133  -0.55984  -0.55459  -0.55385  -0.55154
  Beta  occ. eigenvalues --   -0.54794  -0.54428  -0.54375  -0.54127  -0.53707
  Beta  occ. eigenvalues --   -0.53413  -0.52916  -0.52793  -0.51615  -0.51562
  Beta  occ. eigenvalues --   -0.51502  -0.51364  -0.51303  -0.51079  -0.50854
  Beta  occ. eigenvalues --   -0.50582  -0.50298  -0.50061  -0.49837  -0.49454
  Beta  occ. eigenvalues --   -0.49131  -0.49063  -0.48681  -0.48212  -0.47816
  Beta  occ. eigenvalues --   -0.47455  -0.46952  -0.46684  -0.45844  -0.45022
  Beta  occ. eigenvalues --   -0.44596  -0.44423  -0.43316  -0.43146  -0.42976
  Beta  occ. eigenvalues --   -0.42189  -0.40588  -0.40348  -0.39238  -0.38806
  Beta  occ. eigenvalues --   -0.36251  -0.35510  -0.34873  -0.34154  -0.33290
  Beta  occ. eigenvalues --   -0.31973  -0.31596  -0.29519
  Beta virt. eigenvalues --   -0.19914  -0.18757  -0.15865  -0.15271  -0.12790
  Beta virt. eigenvalues --   -0.10195  -0.10120  -0.08533  -0.07551  -0.05848
  Beta virt. eigenvalues --   -0.05563  -0.02796  -0.01896  -0.00740  -0.00096
  Beta virt. eigenvalues --    0.00670   0.01025   0.01615   0.01998   0.02207
  Beta virt. eigenvalues --    0.03062   0.03164   0.03621   0.03742   0.04077
  Beta virt. eigenvalues --    0.04364   0.04643   0.05072   0.05313   0.05747
  Beta virt. eigenvalues --    0.06217   0.06860   0.07039   0.07218   0.07580
  Beta virt. eigenvalues --    0.07923   0.08206   0.08810   0.08934   0.09457
  Beta virt. eigenvalues --    0.09546   0.09810   0.10486   0.10979   0.11244
  Beta virt. eigenvalues --    0.11279   0.11950   0.12155   0.12533   0.12945
  Beta virt. eigenvalues --    0.13073   0.13667   0.14226   0.14756   0.15191
  Beta virt. eigenvalues --    0.15231   0.15935   0.16048   0.16941   0.17110
  Beta virt. eigenvalues --    0.17916   0.18665   0.19214   0.19573   0.20391
  Beta virt. eigenvalues --    0.20667   0.21560   0.22402   0.22878   0.23689
  Beta virt. eigenvalues --    0.24106   0.24520   0.24690   0.25496   0.26174
  Beta virt. eigenvalues --    0.26594   0.27043   0.27913   0.29090   0.29962
  Beta virt. eigenvalues --    0.31431   0.31805   0.32644   0.33008   0.33540
  Beta virt. eigenvalues --    0.34216   0.34932   0.37339   0.37682   0.37909
  Beta virt. eigenvalues --    0.38075   0.38992   0.39340   0.39605   0.40250
  Beta virt. eigenvalues --    0.40817   0.41461   0.42005   0.42571   0.42818
  Beta virt. eigenvalues --    0.43159   0.43719   0.43923   0.44426   0.44826
  Beta virt. eigenvalues --    0.45147   0.45468   0.45911   0.47052   0.47385
  Beta virt. eigenvalues --    0.47858   0.48007   0.48707   0.49239   0.49553
  Beta virt. eigenvalues --    0.49581   0.50411   0.50670   0.50982   0.52081
  Beta virt. eigenvalues --    0.52227   0.52300   0.52844   0.53369   0.53860
  Beta virt. eigenvalues --    0.54284   0.54558   0.55308   0.55534   0.55873
  Beta virt. eigenvalues --    0.56322   0.56566   0.57040   0.57125   0.57385
  Beta virt. eigenvalues --    0.58109   0.59279   0.59637   0.60503   0.61265
  Beta virt. eigenvalues --    0.61835   0.62125   0.62380   0.62984   0.63707
  Beta virt. eigenvalues --    0.63985   0.64839   0.65119   0.65355   0.65728
  Beta virt. eigenvalues --    0.66309   0.66420   0.67114   0.67164   0.67634
  Beta virt. eigenvalues --    0.67794   0.68330   0.68364   0.68852   0.69379
  Beta virt. eigenvalues --    0.69744   0.70266   0.70606   0.70780   0.71782
  Beta virt. eigenvalues --    0.72192   0.73162   0.74195   0.74955   0.75593
  Beta virt. eigenvalues --    0.76052   0.76451   0.76463   0.76919   0.77548
  Beta virt. eigenvalues --    0.77976   0.78298   0.78747   0.79001   0.80081
  Beta virt. eigenvalues --    0.80200   0.80566   0.80908   0.81754   0.82076
  Beta virt. eigenvalues --    0.82145   0.82494   0.82835   0.83305   0.83440
  Beta virt. eigenvalues --    0.83695   0.84366   0.84577   0.85171   0.85666
  Beta virt. eigenvalues --    0.86196   0.86418   0.86868   0.87134   0.87576
  Beta virt. eigenvalues --    0.88721   0.89467   0.89805   0.89935   0.90081
  Beta virt. eigenvalues --    0.90330   0.90894   0.91243   0.91865   0.92639
  Beta virt. eigenvalues --    0.93460   0.93648   0.93710   0.94746   0.95378
  Beta virt. eigenvalues --    0.95446   0.95722   0.96914   0.97226   0.97880
  Beta virt. eigenvalues --    0.99569   1.00022   1.01797   1.02330   1.03767
  Beta virt. eigenvalues --    1.03885   1.04580   1.05243   1.06401   1.06456
  Beta virt. eigenvalues --    1.07195   1.07451   1.08988   1.09106   1.09927
  Beta virt. eigenvalues --    1.10157   1.10857   1.11040   1.12697   1.13108
  Beta virt. eigenvalues --    1.13671   1.14426   1.15368   1.16326   1.16929
  Beta virt. eigenvalues --    1.17252   1.17499   1.17735   1.18607   1.19174
  Beta virt. eigenvalues --    1.20324   1.21575   1.22543   1.23682   1.23973
  Beta virt. eigenvalues --    1.24957   1.25837   1.26296   1.26592   1.26794
  Beta virt. eigenvalues --    1.27427   1.27592   1.28185   1.28773   1.29752
  Beta virt. eigenvalues --    1.31937   1.32489   1.32831   1.33173   1.34619
  Beta virt. eigenvalues --    1.37003   1.37362   1.39015   1.40926   1.42165
  Beta virt. eigenvalues --    1.42725   1.42997   1.43846   1.43920   1.44844
  Beta virt. eigenvalues --    1.45394   1.45796   1.48390   1.48650   1.49309
  Beta virt. eigenvalues --    1.49786   1.51421   1.52096   1.53213   1.53664
  Beta virt. eigenvalues --    1.54900   1.57554   1.58378   1.58803   1.59190
  Beta virt. eigenvalues --    1.59941   1.60698   1.61476   1.63836   1.65995
  Beta virt. eigenvalues --    1.67126   1.67719   1.68127   1.68707   1.68996
  Beta virt. eigenvalues --    1.69674   1.70227   1.70742   1.71402   1.71499
  Beta virt. eigenvalues --    1.72536   1.72869   1.73240   1.73328   1.75096
  Beta virt. eigenvalues --    1.75948   1.76158   1.76424   1.77101   1.78716
  Beta virt. eigenvalues --    1.79997   1.80233   1.80502   1.81159   1.81217
  Beta virt. eigenvalues --    1.81647   1.81744   1.84013   1.84151   1.84955
  Beta virt. eigenvalues --    1.87058   1.89050   1.89210   1.89619   1.89810
  Beta virt. eigenvalues --    1.90165   1.90704   1.91102   1.92194   1.93444
  Beta virt. eigenvalues --    1.93672   1.94297   1.94831   1.95460   1.96378
  Beta virt. eigenvalues --    1.97466   1.98765   2.00226   2.01504   2.02122
  Beta virt. eigenvalues --    2.02874   2.04087   2.04164   2.04969   2.05689
  Beta virt. eigenvalues --    2.06436   2.07607   2.08195   2.09554   2.10379
  Beta virt. eigenvalues --    2.10923   2.11805   2.12429   2.13094   2.13201
  Beta virt. eigenvalues --    2.13493   2.14203   2.14723   2.15340   2.16044
  Beta virt. eigenvalues --    2.16413   2.16861   2.16877   2.18234   2.18662
  Beta virt. eigenvalues --    2.19336   2.19655   2.20279   2.21061   2.21255
  Beta virt. eigenvalues --    2.22412   2.23361   2.23830   2.24823   2.24933
  Beta virt. eigenvalues --    2.25224   2.26241   2.26830   2.27648   2.29407
  Beta virt. eigenvalues --    2.29981   2.30164   2.31210   2.32088   2.32623
  Beta virt. eigenvalues --    2.33525   2.33872   2.34298   2.34447   2.37475
  Beta virt. eigenvalues --    2.38152   2.38810   2.40528   2.41355   2.42080
  Beta virt. eigenvalues --    2.42313   2.42494   2.43444   2.44536   2.44604
  Beta virt. eigenvalues --    2.45639   2.46008   2.49350   2.49730   2.52130
  Beta virt. eigenvalues --    2.53895   2.54537   2.55195   2.56095   2.56821
  Beta virt. eigenvalues --    2.58764   2.59564   2.59862   2.64572   2.66534
  Beta virt. eigenvalues --    2.67400   2.68964   2.70307   2.70484   2.74980
  Beta virt. eigenvalues --    2.76393   2.77193   2.79536   2.80056   2.81284
  Beta virt. eigenvalues --    2.83345   2.85457   2.85664   2.86177   2.87436
  Beta virt. eigenvalues --    2.88225   2.89814   2.93568   2.94027   3.01000
  Beta virt. eigenvalues --    3.02430   3.09134   3.10087   3.12128   3.18605
  Beta virt. eigenvalues --    3.19159   3.22884   3.26557   3.28550   3.29096
  Beta virt. eigenvalues --    3.33990   3.34531   3.49419   3.52401   3.70737
  Beta virt. eigenvalues --    3.90325   3.96564
          Condensed to atoms (all electrons):
          Atomic-Atomic Spin Densities.
 Mulliken charges and spin densities:
               1          2
     1  Fe   0.635643   1.718886
     2  N   -0.664067  -0.139588
     3  N   -0.643181  -0.139563
     4  N   -0.686911  -0.138968
     5  N   -0.642162  -0.141087
     6  C    0.306940   0.059402
     7  C    0.043278   0.013011
     8  C    0.047446   0.014581
     9  C    0.303504   0.057764
    10  C    0.294746   0.056674
    11  C    0.048931   0.000105
    12  C    0.010624   0.006253
    13  C    0.313964   0.056483
    14  C    0.321662   0.057725
    15  C    0.051271   0.013065
    16  C    0.011970   0.015571
    17  C    0.328677   0.062405
    18  C    0.306867   0.059161
    19  C    0.043088   0.004586
    20  C    0.042602   0.004048
    21  C    0.306759   0.060251
    22  C   -0.276378  -0.177612
    23  H    0.205702   0.008077
    24  C   -0.270885  -0.168103
    25  H    0.204135   0.007669
    26  C   -0.257268  -0.171111
    27  H    0.206647   0.007765
    28  C   -0.266089  -0.175213
    29  H    0.206341   0.007938
    30  C   -0.613600  -0.001676
    31  H    0.201630   0.000991
    32  H    0.208398  -0.000109
    33  H    0.212595   0.001098
    34  C   -0.612632  -0.001674
    35  H    0.201362   0.001063
    36  H    0.211387   0.000912
    37  H    0.209019  -0.000084
    38  C   -0.615175  -0.000425
    39  H    0.204170   0.000447
    40  H    0.198310   0.000084
    41  H    0.217428  -0.000056
    42  C   -0.154633  -0.004370
    43  H    0.183064   0.000274
    44  C   -0.388253   0.007489
    45  H    0.188974  -0.000354
    46  H    0.197581  -0.000381
    47  C   -0.617417  -0.001674
    48  H    0.209548   0.001228
    49  H    0.200464   0.000585
    50  H    0.217001   0.000158
    51  C   -0.156076  -0.008466
    52  H    0.182663   0.000599
    53  C   -0.386730   0.013769
    54  H    0.191538  -0.000667
    55  H    0.197979  -0.000660
    56  C   -0.613894  -0.000783
    57  H    0.203080   0.000456
    58  H    0.210036   0.000504
    59  H    0.207411  -0.000128
    60  C   -0.612496  -0.000749
    61  H    0.208287  -0.000128
    62  H    0.210334   0.000473
    63  H    0.198520   0.000458
    64  C   -0.691144   0.001816
    65  H    0.246885   0.000266
    66  H    0.247844  -0.001638
    67  H    0.252062  -0.000123
    68  S    0.131394  -0.052159
    69  H    0.179230   0.003459
 Sum of Mulliken charges =   1.00000   1.00000
 Mulliken charges and spin densities with hydrogens summed into heavy atoms:
               1          2
     1  Fe   0.635643   1.718886
     2  N   -0.664067  -0.139588
     3  N   -0.643181  -0.139563
     4  N   -0.686911  -0.138968
     5  N   -0.642162  -0.141087
     6  C    0.306940   0.059402
     7  C    0.043278   0.013011
     8  C    0.047446   0.014581
     9  C    0.303504   0.057764
    10  C    0.294746   0.056674
    11  C    0.048931   0.000105
    12  C    0.010624   0.006253
    13  C    0.313964   0.056483
    14  C    0.321662   0.057725
    15  C    0.051271   0.013065
    16  C    0.011970   0.015571
    17  C    0.328677   0.062405
    18  C    0.306867   0.059161
    19  C    0.043088   0.004586
    20  C    0.042602   0.004048
    21  C    0.306759   0.060251
    22  C   -0.070676  -0.169535
    24  C   -0.066750  -0.160434
    26  C   -0.050621  -0.163346
    28  C   -0.059748  -0.167276
    30  C    0.009023   0.000304
    34  C    0.009135   0.000217
    38  C    0.004734   0.000050
    42  C    0.028431  -0.004096
    44  C   -0.001699   0.006754
    47  C    0.009595   0.000297
    51  C    0.026587  -0.007867
    53  C    0.002787   0.012443
    56  C    0.006633   0.000049
    60  C    0.004646   0.000055
    64  C    0.055647   0.000321
    68  S    0.310623  -0.048700
 Electronic spatial extent (au):  <R**2>=          18050.0765
 Charge=              1.0000 electrons
 Dipole moment (field-independent basis, Debye):
    X=              2.0392    Y=             -0.9884    Z=              3.1377  Tot=              3.8705
 Quadrupole moment (field-independent basis, Debye-Ang):
   XX=           -152.0503   YY=           -153.6554   ZZ=           -219.2759
   XY=             -1.4620   XZ=              2.4619   YZ=             -4.0825
 Traceless Quadrupole moment (field-independent basis, Debye-Ang):
   XX=             22.9436   YY=             21.3385   ZZ=            -44.2821
   XY=             -1.4620   XZ=              2.4619   YZ=             -4.0825
 Octapole moment (field-independent basis, Debye-Ang**2):
  XXX=             -0.5071  YYY=             23.3149  ZZZ=             49.9819  XYY=             -4.0798
  XXY=             -6.2645  XXZ=            -10.2674  XZZ=             27.2193  YZZ=            -16.9446
  YYZ=             -0.0749  XYZ=             11.1139
 Hexadecapole moment (field-independent basis, Debye-Ang**3):
 XXXX=          -9817.4558 YYYY=          -9682.4822 ZZZZ=          -1079.5752 XXXY=            108.6606
 XXXZ=            -71.6024 YYYX=           -175.8582 YYYZ=             -0.5885 ZZZX=             63.1892
 ZZZY=            -39.4279 XXYY=          -3146.7769 XXZZ=          -2152.3501 YYZZ=          -2166.5908
 XXYZ=            -11.6671 YYXZ=           -107.1618 ZZXY=             -0.1299
 N-N= 5.028383540152D+03 E-N=-1.727448325437D+04  KE= 3.069913689516D+03
                          Isotropic Fermi Contact Couplings
        Atom                 a.u.       MegaHertz       Gauss      10(-4) cm-1
     1  Fe(57)             0.26541      38.49476      13.73589      12.84047
     2  N(14)             -0.04396     -14.20407      -5.06836      -4.73797
     3  N(14)             -0.04856     -15.69138      -5.59907      -5.23408
     4  N(14)             -0.04255     -13.74951      -4.90617      -4.58634
     5  N(14)             -0.04925     -15.91320      -5.67823      -5.30807
     6  C(13)              0.01136      12.77105       4.55703       4.25996
     7  C(13)              0.00076       0.85989       0.30683       0.28683
     8  C(13)              0.00126       1.41233       0.50395       0.47110
     9  C(13)              0.01026      11.53941       4.11755       3.84913
    10  C(13)              0.00988      11.10274       3.96173       3.70347
    11  C(13)             -0.00103      -1.16255      -0.41483      -0.38779
    12  C(13)             -0.00019      -0.21251      -0.07583      -0.07089
    13  C(13)              0.00982      11.03725       3.93837       3.68163
    14  C(13)              0.01103      12.40296       4.42569       4.13718
    15  C(13)              0.00097       1.09267       0.38989       0.36448
    16  C(13)              0.00134       1.50952       0.53863       0.50352
    17  C(13)              0.01097      12.33483       4.40137       4.11445
    18  C(13)              0.01030      11.58437       4.13359       3.86413
    19  C(13)             -0.00040      -0.44820      -0.15993      -0.14950
    20  C(13)             -0.00051      -0.57396      -0.20480      -0.19145
    21  C(13)              0.01040      11.69608       4.17345       3.90139
    22  C(13)             -0.02317     -26.04937      -9.29506      -8.68913
    23  H(1)               0.00275      12.29966       4.38883       4.10273
    24  C(13)             -0.02186     -24.57045      -8.76735      -8.19582
    25  H(1)               0.00260      11.60749       4.14184       3.87184
    26  C(13)             -0.02236     -25.13352      -8.96826      -8.38364
    27  H(1)               0.00265      11.84230       4.22563       3.95017
    28  C(13)             -0.02293     -25.78199      -9.19966      -8.59995
    29  H(1)               0.00271      12.09831       4.31698       4.03556
    30  C(13)             -0.00063      -0.70812      -0.25268      -0.23620
    31  H(1)               0.00050       2.24480       0.80100       0.74878
    32  H(1)              -0.00005      -0.21929      -0.07825      -0.07315
    33  H(1)               0.00054       2.42257       0.86443       0.80808
    34  C(13)             -0.00060      -0.67427      -0.24059      -0.22491
    35  H(1)               0.00053       2.36885       0.84527       0.79016
    36  H(1)               0.00045       1.99580       0.71215       0.66573
    37  H(1)              -0.00004      -0.18972      -0.06770      -0.06329
    38  C(13)             -0.00017      -0.19399      -0.06922      -0.06471
    39  H(1)               0.00023       1.03621       0.36975       0.34564
    40  H(1)               0.00008       0.35709       0.12742       0.11911
    41  H(1)              -0.00001      -0.04567      -0.01630      -0.01524
    42  C(13)             -0.00087      -0.97633      -0.34838      -0.32567
    43  H(1)               0.00014       0.62124       0.22168       0.20722
    44  C(13)              0.00101       1.13289       0.40424       0.37789
    45  H(1)              -0.00011      -0.49459      -0.17648      -0.16498
    46  H(1)              -0.00012      -0.55521      -0.19811      -0.18520
    47  C(13)             -0.00057      -0.63773      -0.22756      -0.21272
    48  H(1)               0.00063       2.79608       0.99771       0.93267
    49  H(1)               0.00026       1.16996       0.41747       0.39026
    50  H(1)               0.00005       0.24213       0.08640       0.08076
    51  C(13)             -0.00163      -1.82715      -0.65197      -0.60947
    52  H(1)               0.00025       1.13003       0.40322       0.37694
    53  C(13)              0.00192       2.15594       0.76929       0.71914
    54  H(1)              -0.00021      -0.92620      -0.33049      -0.30895
    55  H(1)              -0.00021      -0.94638      -0.33769      -0.31568
    56  C(13)             -0.00032      -0.36472      -0.13014      -0.12166
    57  H(1)               0.00026       1.15386       0.41173       0.38489
    58  H(1)               0.00029       1.30615       0.46607       0.43568
    59  H(1)              -0.00005      -0.23982      -0.08557      -0.08000
    60  C(13)             -0.00031      -0.34610      -0.12350      -0.11545
    61  H(1)              -0.00005      -0.24411      -0.08711      -0.08143
    62  H(1)               0.00028       1.26888       0.45277       0.42325
    63  H(1)               0.00026       1.16936       0.41726       0.39006
    64  C(13)             -0.00021      -0.23146      -0.08259      -0.07721
    65  H(1)              -0.00042      -1.87141      -0.66777      -0.62424
    66  H(1)              -0.00092      -4.11881      -1.46969      -1.37389
    67  H(1)               0.00008       0.34079       0.12160       0.11368
    68  S(33)              0.01166       4.00369       1.42862       1.33549
    69  H(1)               0.00149       6.68133       2.38407       2.22865
 --------------------------------------------------------
       Center         ----  Spin Dipole Couplings  ----
                      3XX-RR        3YY-RR        3ZZ-RR
 --------------------------------------------------------
     1   Atom       -2.102609     -0.762566      2.865175
     2   Atom        0.117644      0.113074     -0.230718
     3   Atom        0.114996      0.108553     -0.223549
     4   Atom        0.115803      0.116592     -0.232395
     5   Atom        0.116991      0.110755     -0.227746
     6   Atom       -0.019211     -0.023599      0.042810
     7   Atom       -0.007278     -0.011847      0.019125
     8   Atom       -0.012868     -0.007458      0.020326
     9   Atom       -0.027897     -0.014307      0.042204
    10   Atom       -0.019998     -0.019148      0.039146
    11   Atom       -0.004008     -0.000402      0.004410
    12   Atom       -0.002529     -0.007827      0.010357
    13   Atom       -0.014069     -0.025314      0.039383
    14   Atom       -0.018977     -0.023153      0.042130
    15   Atom       -0.007398     -0.011513      0.018910
    16   Atom       -0.013422     -0.007714      0.021136
    17   Atom       -0.030596     -0.016433      0.047029
    18   Atom       -0.021003     -0.020764      0.041767
    19   Atom       -0.006500     -0.002789      0.009289
    20   Atom       -0.001731     -0.007107      0.008839
    21   Atom       -0.015596     -0.026441      0.042037
    22   Atom        0.089388      0.077194     -0.166582
    23   Atom       -0.006964      0.008576     -0.001612
    24   Atom        0.072985      0.085003     -0.157988
    25   Atom        0.007936     -0.006174     -0.001762
    26   Atom        0.087659      0.075113     -0.162772
    27   Atom       -0.006521      0.008107     -0.001586
    28   Atom        0.076993      0.087874     -0.164867
    29   Atom        0.008405     -0.006693     -0.001712
    30   Atom       -0.001386      0.001734     -0.000348
    31   Atom       -0.001038      0.001609     -0.000571
    32   Atom       -0.000597      0.001229     -0.000632
    33   Atom       -0.000976      0.001461     -0.000485
    34   Atom        0.001432     -0.001159     -0.000273
    35   Atom        0.001567     -0.001028     -0.000540
    36   Atom        0.001389     -0.000976     -0.000413
    37   Atom        0.000810     -0.000217     -0.000593
    38   Atom       -0.000810      0.001085     -0.000275
    39   Atom       -0.000568      0.001082     -0.000514
    40   Atom       -0.000801      0.001189     -0.000388
    41   Atom       -0.000008      0.000534     -0.000526
    42   Atom        0.003049     -0.001354     -0.001695
    43   Atom        0.001200     -0.000792     -0.000408
    44   Atom       -0.002742      0.001321      0.001421
    45   Atom        0.000257      0.000107     -0.000364
    46   Atom        0.001012     -0.000505     -0.000507
    47   Atom        0.001486     -0.001272     -0.000214
    48   Atom        0.001438     -0.000845     -0.000593
    49   Atom        0.001463     -0.001013     -0.000450
    50   Atom        0.000730     -0.000087     -0.000643
    51   Atom       -0.000465      0.005071     -0.004606
    52   Atom       -0.000934      0.001512     -0.000578
    53   Atom       -0.001168     -0.005353      0.006522
    54   Atom        0.000377      0.000128     -0.000505
    55   Atom       -0.000923      0.001501     -0.000578
    56   Atom       -0.000838      0.001119     -0.000281
    57   Atom       -0.000811      0.001293     -0.000482
    58   Atom       -0.000782      0.001172     -0.000390
    59   Atom       -0.000072      0.000552     -0.000480
    60   Atom        0.001305     -0.001108     -0.000197
    61   Atom        0.000914     -0.000445     -0.000470
    62   Atom        0.001202     -0.000884     -0.000318
    63   Atom        0.001362     -0.000874     -0.000488
    64   Atom        0.002955     -0.005069      0.002114
    65   Atom        0.002927     -0.004173      0.001246
    66   Atom       -0.000981     -0.002254      0.003235
    67   Atom        0.000781     -0.003220      0.002439
    68   Atom        0.112778      0.135709     -0.248487
    69   Atom       -0.006789     -0.004155      0.010944
 --------------------------------------------------------
                        XY            XZ            YZ
 --------------------------------------------------------
     1   Atom       -2.187146     -0.140075     -0.060511
     2   Atom       -0.021555      0.023759     -0.063445
     3   Atom        0.002189     -0.020038     -0.037541
     4   Atom       -0.023216     -0.012655      0.056816
     5   Atom        0.004128      0.005847      0.029678
     6   Atom       -0.013021      0.005294     -0.000771
     7   Atom       -0.002283      0.002394      0.001042
     8   Atom       -0.001610      0.001667      0.001658
     9   Atom       -0.012000      0.004012      0.003233
    10   Atom        0.013811      0.003072      0.005956
    11   Atom        0.002558      0.000388      0.001240
    12   Atom        0.001636      0.000677      0.002518
    13   Atom        0.012105      0.000794      0.006369
    14   Atom       -0.013168     -0.004211     -0.001085
    15   Atom       -0.002572     -0.002455     -0.001422
    16   Atom       -0.001764     -0.001097     -0.001864
    17   Atom       -0.011380     -0.005059     -0.004788
    18   Atom        0.013901     -0.000144     -0.003577
    19   Atom        0.002500      0.000004     -0.001099
    20   Atom        0.001341      0.000360     -0.001669
    21   Atom        0.011728      0.003589     -0.006942
    22   Atom        0.000566     -0.018284      0.019284
    23   Atom        0.001810      0.000556      0.000571
    24   Atom        0.001270     -0.009037     -0.013328
    25   Atom       -0.001267     -0.000258      0.000658
    26   Atom       -0.000437      0.010031     -0.011237
    27   Atom        0.001867     -0.000087     -0.000385
    28   Atom        0.001326      0.008357      0.017904
    29   Atom       -0.001373      0.000162     -0.000611
    30   Atom       -0.000201     -0.000081      0.000441
    31   Atom        0.000172     -0.000207     -0.000233
    32   Atom       -0.000854     -0.000025      0.000106
    33   Atom        0.000190      0.000207      0.000357
    34   Atom       -0.000724     -0.000519      0.000263
    35   Atom       -0.000281      0.000089      0.000174
    36   Atom       -0.000299     -0.000498     -0.000128
    37   Atom       -0.001120     -0.000197      0.000116
    38   Atom        0.000822      0.000273      0.000196
    39   Atom        0.000695      0.000036     -0.000211
    40   Atom        0.000161     -0.000035      0.000172
    41   Atom        0.000850      0.000021      0.000147
    42   Atom        0.000711      0.000168     -0.002269
    43   Atom       -0.000156      0.000139     -0.000061
    44   Atom        0.000919      0.000569      0.005498
    45   Atom        0.000447      0.000035     -0.000259
    46   Atom        0.000228      0.000056      0.000227
    47   Atom       -0.000699      0.000401     -0.000395
    48   Atom       -0.000568     -0.000177     -0.000100
    49   Atom       -0.000090      0.000430      0.000131
    50   Atom       -0.001051      0.000382     -0.000103
    51   Atom       -0.000629     -0.003962      0.000082
    52   Atom        0.000219     -0.000142      0.000015
    53   Atom       -0.001178      0.009132     -0.001210
    54   Atom       -0.000286     -0.000349     -0.000063
    55   Atom       -0.000167      0.000358     -0.000062
    56   Atom        0.000825     -0.000079     -0.000186
    57   Atom        0.000419     -0.000144      0.000168
    58   Atom        0.000374      0.000081     -0.000228
    59   Atom        0.000938     -0.000017     -0.000025
    60   Atom        0.000341     -0.000308     -0.000107
    61   Atom        0.000709     -0.000080     -0.000067
    62   Atom       -0.000042     -0.000342      0.000102
    63   Atom       -0.000134     -0.000044     -0.000207
    64   Atom       -0.001132      0.008050     -0.001645
    65   Atom       -0.002693      0.008954     -0.002237
    66   Atom       -0.000362      0.002818     -0.000182
    67   Atom        0.002362      0.006120      0.002824
    68   Atom       -0.010624      0.091860     -0.035362
    69   Atom        0.000434     -0.001153     -0.011821
 --------------------------------------------------------


 ---------------------------------------------------------------------------------
              Anisotropic Spin Dipole Couplings in Principal Axis System
 ---------------------------------------------------------------------------------

       Atom             a.u.   MegaHertz   Gauss  10(-4) cm-1        Axes

              Baa    -3.7234   -64.463   -23.002   -21.503  0.8039  0.5943  0.0225
     1 Fe(57) Bbb     0.8543    14.790     5.278     4.933 -0.5941  0.8042 -0.0172
              Bcc     2.8691    49.673    17.724    16.569 -0.0283  0.0004  0.9996
 
              Baa    -0.2431    -9.377    -3.346    -3.128 -0.0545  0.1719  0.9836
     2 N(14)  Bbb     0.0960     3.704     1.322     1.236  0.7443  0.6636 -0.0747
              Bcc     0.1471     5.673     2.024     1.892 -0.6656  0.7281 -0.1641
 
              Baa    -0.2289    -8.827    -3.150    -2.944  0.0571  0.1100  0.9923
     3 N(14)  Bbb     0.1097     4.232     1.510     1.412 -0.5652  0.8229 -0.0587
              Bcc     0.1191     4.595     1.640     1.533  0.8230  0.5575 -0.1092
 
              Baa    -0.2416    -9.319    -3.325    -3.109  0.0249 -0.1550  0.9876
     4 N(14)  Bbb     0.0955     3.681     1.314     1.228  0.7708  0.6321  0.0798
              Bcc     0.1462     5.638     2.012     1.881 -0.6366  0.7592  0.1352
 
              Baa    -0.2304    -8.887    -3.171    -2.964 -0.0157 -0.0865  0.9961
     5 N(14)  Bbb     0.1102     4.251     1.517     1.418 -0.5588  0.8269  0.0629
              Bcc     0.1202     4.635     1.654     1.546  0.8291  0.5557  0.0613
 
              Baa    -0.0347    -4.658    -1.662    -1.554  0.6501  0.7590 -0.0368
     6 C(13)  Bbb    -0.0086    -1.154    -0.412    -0.385  0.7545 -0.6505 -0.0874
              Bcc     0.0433     5.812     2.074     1.939  0.0903 -0.0290  0.9955
 
              Baa    -0.0129    -1.732    -0.618    -0.578  0.3970  0.9159 -0.0595
     7 C(13)  Bbb    -0.0065    -0.867    -0.309    -0.289  0.9137 -0.4005 -0.0692
              Bcc     0.0194     2.598     0.927     0.867  0.0872  0.0269  0.9958
 
              Baa    -0.0134    -1.803    -0.643    -0.601  0.9595  0.2752 -0.0609
     8 C(13)  Bbb    -0.0071    -0.948    -0.338    -0.316 -0.2779  0.9597 -0.0412
              Bcc     0.0205     2.751     0.982     0.918  0.0471  0.0564  0.9973
 
              Baa    -0.0352    -4.727    -1.687    -1.577  0.8611  0.5041 -0.0657
     9 C(13)  Bbb    -0.0073    -0.983    -0.351    -0.328 -0.5060  0.8624 -0.0153
              Bcc     0.0426     5.710     2.037     1.905  0.0489  0.0464  0.9977
 
              Baa    -0.0334    -4.488    -1.601    -1.497  0.7132 -0.7004  0.0273
    10 C(13)  Bbb    -0.0067    -0.892    -0.318    -0.298  0.6966  0.7040 -0.1383
              Bcc     0.0401     5.380     1.920     1.795  0.0777  0.1176  0.9900
 
              Baa    -0.0053    -0.717    -0.256    -0.239  0.8852 -0.4646  0.0238
    11 C(13)  Bbb     0.0005     0.068     0.024     0.023  0.4483  0.8381 -0.3108
              Bcc     0.0048     0.649     0.231     0.216  0.1244  0.2858  0.9502
 
              Baa    -0.0086    -1.149    -0.410    -0.383 -0.2475  0.9615 -0.1191
    12 C(13)  Bbb    -0.0022    -0.295    -0.105    -0.098  0.9665  0.2364 -0.0995
              Bcc     0.0108     1.444     0.515     0.482  0.0675  0.1398  0.9879
 
              Baa    -0.0334    -4.479    -1.598    -1.494 -0.5279  0.8465 -0.0683
    13 C(13)  Bbb    -0.0067    -0.899    -0.321    -0.300  0.8485  0.5221 -0.0868
              Bcc     0.0401     5.378     1.919     1.794  0.0378  0.1038  0.9939
 
              Baa    -0.0346    -4.638    -1.655    -1.547  0.6520  0.7568  0.0465
    14 C(13)  Bbb    -0.0079    -1.054    -0.376    -0.352  0.7552 -0.6536  0.0494
              Bcc     0.0424     5.692     2.031     1.899 -0.0678 -0.0029  0.9977
 
              Baa    -0.0129    -1.734    -0.619    -0.578  0.4478  0.8910  0.0743
    15 C(13)  Bbb    -0.0063    -0.840    -0.300    -0.280  0.8898 -0.4523  0.0612
              Bcc     0.0192     2.574     0.919     0.859 -0.0882 -0.0387  0.9954
 
              Baa    -0.0140    -1.878    -0.670    -0.626  0.9582  0.2825  0.0449
    16 C(13)  Bbb    -0.0073    -0.978    -0.349    -0.326 -0.2846  0.9572  0.0518
              Bcc     0.0213     2.856     1.019     0.953 -0.0284 -0.0624  0.9976
 
              Baa    -0.0375    -5.026    -1.794    -1.677  0.8689  0.4885  0.0797
    17 C(13)  Bbb    -0.0102    -1.364    -0.487    -0.455 -0.4919  0.8702  0.0293
              Bcc     0.0476     6.390     2.280     2.132 -0.0550 -0.0647  0.9964
 
              Baa    -0.0349    -4.678    -1.669    -1.560  0.7077 -0.7058 -0.0316
    18 C(13)  Bbb    -0.0071    -0.956    -0.341    -0.319  0.7064  0.7058  0.0537
              Bcc     0.0420     5.634     2.010     1.879 -0.0156 -0.0603  0.9981
 
              Baa    -0.0078    -1.043    -0.372    -0.348  0.8909 -0.4533 -0.0294
    19 C(13)  Bbb    -0.0016    -0.217    -0.078    -0.072  0.4541  0.8865  0.0891
              Bcc     0.0094     1.260     0.450     0.420 -0.0143 -0.0927  0.9956
 
              Baa    -0.0076    -1.020    -0.364    -0.340 -0.2276  0.9683  0.1033
    20 C(13)  Bbb    -0.0014    -0.190    -0.068    -0.063  0.9735  0.2285  0.0030
              Bcc     0.0090     1.210     0.432     0.404  0.0207 -0.1013  0.9946
 
              Baa    -0.0347    -4.660    -1.663    -1.555 -0.5336  0.8397  0.1009
    21 C(13)  Bbb    -0.0081    -1.088    -0.388    -0.363  0.8446  0.5352  0.0136
              Bcc     0.0428     5.748     2.051     1.917  0.0425 -0.0925  0.9948
 
              Baa    -0.1694   -22.730    -8.111    -7.582  0.0704 -0.0779  0.9945
    22 C(13)  Bbb     0.0786    10.554     3.766     3.520  0.0717  0.9948  0.0729
              Bcc     0.0907    12.177     4.345     4.062  0.9949 -0.0662 -0.0757
 
              Baa    -0.0072    -3.849    -1.374    -1.284  0.9901 -0.1103 -0.0870
    23 H(1)   Bbb    -0.0016    -0.858    -0.306    -0.286  0.0795 -0.0699  0.9944
              Bcc     0.0088     4.707     1.680     1.570  0.1158  0.9914  0.0605
 
              Baa    -0.1591   -21.345    -7.616    -7.120  0.0386  0.0543  0.9978
    24 C(13)  Bbb     0.0731     9.807     3.500     3.271  0.9897 -0.1398 -0.0306
              Bcc     0.0860    11.537     4.117     3.848  0.1378  0.9887 -0.0591
 
              Baa    -0.0064    -3.401    -1.213    -1.134  0.0849  0.9870 -0.1361
    25 H(1)   Bbb    -0.0017    -0.899    -0.321    -0.300  0.0440  0.1327  0.9902
              Bcc     0.0081     4.300     1.534     1.434  0.9954 -0.0901 -0.0322
 
              Baa    -0.1637   -21.967    -7.838    -7.327 -0.0397  0.0469  0.9981
    26 C(13)  Bbb     0.0756    10.142     3.619     3.383  0.0725  0.9964 -0.0439
              Bcc     0.0881    11.825     4.220     3.944  0.9966 -0.0706  0.0430
 
              Baa    -0.0068    -3.605    -1.286    -1.202  0.9922 -0.1244  0.0073
    27 H(1)   Bbb    -0.0016    -0.855    -0.305    -0.285 -0.0024  0.0401  0.9992
              Bcc     0.0084     4.459     1.591     1.487  0.1246  0.9914 -0.0395
 
              Baa    -0.1664   -22.330    -7.968    -7.449 -0.0339 -0.0700  0.9970
    28 C(13)  Bbb     0.0770    10.329     3.686     3.445  0.9873 -0.1571  0.0225
              Bcc     0.0894    12.001     4.282     4.003  0.1550  0.9851  0.0745
 
              Baa    -0.0069    -3.674    -1.311    -1.225  0.0876  0.9896  0.1140
    29 H(1)   Bbb    -0.0016    -0.880    -0.314    -0.293 -0.0313 -0.1117  0.9933
              Bcc     0.0085     4.553     1.625     1.519  0.9957 -0.0906  0.0212
 
              Baa    -0.0014    -0.188    -0.067    -0.063  0.9970  0.0567  0.0526
    30 C(13)  Bbb    -0.0004    -0.059    -0.021    -0.020 -0.0401 -0.2024  0.9785
              Bcc     0.0018     0.247     0.088     0.082 -0.0661  0.9777  0.1995
 
              Baa    -0.0011    -0.597    -0.213    -0.199  0.9391 -0.0301  0.3422
    31 H(1)   Bbb    -0.0005    -0.282    -0.101    -0.094 -0.3358  0.1287  0.9331
              Bcc     0.0016     0.879     0.314     0.293  0.0722  0.9912 -0.1108
 
              Baa    -0.0009    -0.499    -0.178    -0.166  0.9280  0.3688 -0.0532
    32 H(1)   Bbb    -0.0006    -0.340    -0.121    -0.113  0.0674 -0.0257  0.9974
              Bcc     0.0016     0.838     0.299     0.280 -0.3665  0.9292  0.0487
 
              Baa    -0.0011    -0.562    -0.201    -0.187  0.9441 -0.0247 -0.3289
    33 H(1)   Bbb    -0.0005    -0.262    -0.093    -0.087  0.3176 -0.2003  0.9268
              Bcc     0.0015     0.824     0.294     0.275  0.0888  0.9794  0.1813
 
              Baa    -0.0014    -0.183    -0.065    -0.061  0.2269  0.9658 -0.1253
    34 C(13)  Bbb    -0.0004    -0.056    -0.020    -0.019  0.2901  0.0558  0.9554
              Bcc     0.0018     0.239     0.085     0.080  0.9297 -0.2531 -0.2676
 
              Baa    -0.0011    -0.595    -0.212    -0.199  0.1093  0.9468 -0.3026
    35 H(1)   Bbb    -0.0005    -0.258    -0.092    -0.086  0.0005  0.3044  0.9525
              Bcc     0.0016     0.854     0.305     0.285  0.9940 -0.1043  0.0328
 
              Baa    -0.0011    -0.574    -0.205    -0.191  0.1766  0.9331  0.3132
    36 H(1)   Bbb    -0.0005    -0.250    -0.089    -0.083  0.1911 -0.3447  0.9191
              Bcc     0.0015     0.824     0.294     0.275  0.9656 -0.1024 -0.2392
 
              Baa    -0.0009    -0.499    -0.178    -0.167  0.5417  0.8402  0.0253
    37 H(1)   Bbb    -0.0006    -0.329    -0.117    -0.110  0.0754 -0.0785  0.9941
              Bcc     0.0016     0.829     0.296     0.276  0.8372 -0.5366 -0.1059
 
              Baa    -0.0012    -0.155    -0.055    -0.052  0.9230 -0.3194 -0.2146
    38 C(13)  Bbb    -0.0003    -0.037    -0.013    -0.013  0.1457 -0.2260  0.9632
              Bcc     0.0014     0.193     0.069     0.064  0.3562  0.9203  0.1621
 
              Baa    -0.0009    -0.457    -0.163    -0.152  0.8840 -0.3505 -0.3095
    39 H(1)   Bbb    -0.0005    -0.266    -0.095    -0.089  0.3246 -0.0163  0.9457
              Bcc     0.0014     0.723     0.258     0.241  0.3365  0.9364 -0.0994
 
              Baa    -0.0008    -0.437    -0.156    -0.146  0.9893 -0.0893  0.1150
    40 H(1)   Bbb    -0.0004    -0.214    -0.076    -0.071 -0.1234 -0.0943  0.9879
              Bcc     0.0012     0.651     0.232     0.217  0.0773  0.9915  0.1043
 
              Baa    -0.0007    -0.355    -0.127    -0.119  0.6927 -0.5482  0.4687
    41 H(1)   Bbb    -0.0005    -0.267    -0.095    -0.089 -0.4205  0.2210  0.8800
              Bcc     0.0012     0.622     0.222     0.207  0.5860  0.8066  0.0774
 
              Baa    -0.0039    -0.517    -0.184    -0.172 -0.0880  0.6832  0.7249
    42 C(13)  Bbb     0.0007     0.092     0.033     0.031 -0.1641  0.7079 -0.6870
              Bcc     0.0032     0.425     0.152     0.142  0.9825  0.1794 -0.0498
 
              Baa    -0.0008    -0.432    -0.154    -0.144  0.0681  0.9897  0.1260
    43 H(1)   Bbb    -0.0004    -0.221    -0.079    -0.074 -0.0968 -0.1191  0.9882
              Bcc     0.0012     0.654     0.233     0.218  0.9930 -0.0795  0.0877
 
              Baa    -0.0042    -0.560    -0.200    -0.187 -0.1856  0.7103 -0.6790
    44 C(13)  Bbb    -0.0028    -0.377    -0.134    -0.126  0.9767  0.0577 -0.2066
              Bcc     0.0070     0.937     0.334     0.313  0.1075  0.7015  0.7045
 
              Baa    -0.0006    -0.295    -0.105    -0.098 -0.3256  0.5281  0.7842
    45 H(1)   Bbb    -0.0001    -0.055    -0.020    -0.018  0.5969 -0.5285  0.6037
              Bcc     0.0007     0.350     0.125     0.117  0.7333  0.6647 -0.1431
 
              Baa    -0.0007    -0.396    -0.141    -0.132 -0.0724  0.7255 -0.6844
    46 H(1)   Bbb    -0.0003    -0.165    -0.059    -0.055 -0.1464  0.6710  0.7268
              Bcc     0.0011     0.561     0.200     0.187  0.9866  0.1528  0.0577
 
              Baa    -0.0015    -0.202    -0.072    -0.068  0.1915  0.9538  0.2315
    47 C(13)  Bbb    -0.0003    -0.035    -0.013    -0.012 -0.2849 -0.1717  0.9431
              Bcc     0.0018     0.238     0.085     0.079  0.9392 -0.2466  0.2388
 
              Baa    -0.0010    -0.546    -0.195    -0.182  0.2349  0.9209  0.3111
    48 H(1)   Bbb    -0.0006    -0.298    -0.106    -0.099 -0.0067 -0.3185  0.9479
              Bcc     0.0016     0.844     0.301     0.282  0.9720 -0.2248 -0.0686
 
              Baa    -0.0011    -0.564    -0.201    -0.188  0.0798  0.9610 -0.2649
    49 H(1)   Bbb    -0.0005    -0.267    -0.095    -0.089 -0.1938  0.2757  0.9415
              Bcc     0.0016     0.831     0.296     0.277  0.9778 -0.0238  0.2082
 
              Baa    -0.0009    -0.477    -0.170    -0.159  0.5390  0.6302 -0.5588
    50 H(1)   Bbb    -0.0006    -0.330    -0.118    -0.110  0.1987  0.5495  0.8115
              Bcc     0.0015     0.808     0.288     0.269  0.8185 -0.5485  0.1710
 
              Baa    -0.0070    -0.941    -0.336    -0.314  0.5192  0.0213  0.8544
    51 C(13)  Bbb     0.0018     0.246     0.088     0.082  0.8393  0.1760 -0.5144
              Bcc     0.0052     0.695     0.248     0.232 -0.1613  0.9842  0.0735
 
              Baa    -0.0010    -0.535    -0.191    -0.178  0.9437 -0.0842  0.3198
    52 H(1)   Bbb    -0.0005    -0.282    -0.101    -0.094 -0.3187  0.0272  0.9475
              Bcc     0.0015     0.817     0.292     0.273  0.0885  0.9961  0.0011
 
              Baa    -0.0073    -0.978    -0.349    -0.326  0.8286  0.1712 -0.5330
    53 C(13)  Bbb    -0.0055    -0.732    -0.261    -0.244 -0.0932  0.9810  0.1702
              Bcc     0.0127     1.709     0.610     0.570  0.5520 -0.0914  0.8288
 
              Baa    -0.0007    -0.351    -0.125    -0.117  0.3630  0.2049  0.9090
    54 H(1)   Bbb     0.0000     0.016     0.006     0.005  0.3693  0.8640 -0.3422
              Bcc     0.0006     0.335     0.120     0.112  0.8555 -0.4599 -0.2379
 
              Baa    -0.0012    -0.615    -0.219    -0.205  0.8499  0.0412 -0.5253
    55 H(1)   Bbb    -0.0004    -0.194    -0.069    -0.065  0.5217  0.0749  0.8499
              Bcc     0.0015     0.809     0.289     0.270 -0.0744  0.9963 -0.0422
 
              Baa    -0.0011    -0.153    -0.055    -0.051  0.9395 -0.3422  0.0126
    56 C(13)  Bbb    -0.0003    -0.041    -0.015    -0.014  0.0281  0.1138  0.9931
              Bcc     0.0014     0.194     0.069     0.065  0.3413  0.9327 -0.1165
 
              Baa    -0.0010    -0.510    -0.182    -0.170  0.9164 -0.1966  0.3487
    57 H(1)   Bbb    -0.0004    -0.228    -0.081    -0.076 -0.3565 -0.0043  0.9343
              Bcc     0.0014     0.738     0.263     0.246  0.1822  0.9805  0.0740
 
              Baa    -0.0009    -0.471    -0.168    -0.157  0.9478 -0.2003 -0.2481
    58 H(1)   Bbb    -0.0004    -0.206    -0.073    -0.069  0.2676  0.0761  0.9605
              Bcc     0.0013     0.677     0.241     0.226  0.1735  0.9768 -0.1258
 
              Baa    -0.0007    -0.400    -0.143    -0.133  0.8109 -0.5851 -0.0035
    59 H(1)   Bbb    -0.0005    -0.256    -0.091    -0.085  0.0134  0.0125  0.9998
              Bcc     0.0012     0.656     0.234     0.219  0.5850  0.8108 -0.0180
 
              Baa    -0.0012    -0.156    -0.056    -0.052 -0.1282  0.9893  0.0693
    60 C(13)  Bbb    -0.0003    -0.034    -0.012    -0.011  0.2022 -0.0423  0.9784
              Bcc     0.0014     0.190     0.068     0.063  0.9709  0.1394 -0.1946
 
              Baa    -0.0008    -0.400    -0.143    -0.134 -0.3848  0.9163  0.1108
    61 H(1)   Bbb    -0.0005    -0.252    -0.090    -0.084  0.0973 -0.0791  0.9921
              Bcc     0.0012     0.652     0.233     0.218  0.9179  0.3925 -0.0587
 
              Baa    -0.0009    -0.481    -0.172    -0.161 -0.0092  0.9840 -0.1780
    62 H(1)   Bbb    -0.0004    -0.200    -0.071    -0.067  0.2132  0.1758  0.9611
              Bcc     0.0013     0.681     0.243     0.227  0.9770 -0.0290 -0.2114
 
              Baa    -0.0010    -0.519    -0.185    -0.173  0.0600  0.9160  0.3966
    63 H(1)   Bbb    -0.0004    -0.213    -0.076    -0.071 -0.0070 -0.3969  0.9178
              Bcc     0.0014     0.731     0.261     0.244  0.9982 -0.0578 -0.0174
 
              Baa    -0.0058    -0.784    -0.280    -0.262 -0.4933  0.6058  0.6243
    64 C(13)  Bbb    -0.0050    -0.670    -0.239    -0.223  0.4914  0.7862 -0.3747
              Bcc     0.0108     1.454     0.519     0.485  0.7178 -0.1220  0.6855
 
              Baa    -0.0069    -3.692    -1.317    -1.231 -0.6822 -0.0767  0.7271
    65 H(1)   Bbb    -0.0049    -2.627    -0.938    -0.876  0.1048  0.9740  0.2011
              Bcc     0.0118     6.319     2.255     2.108  0.7236 -0.2134  0.6564
 
              Baa    -0.0026    -1.377    -0.491    -0.459  0.7178  0.6139 -0.3286
    66 H(1)   Bbb    -0.0021    -1.110    -0.396    -0.370 -0.5324  0.7880  0.3092
              Bcc     0.0047     2.487     0.887     0.830  0.4487 -0.0470  0.8925
 
              Baa    -0.0046    -2.448    -0.874    -0.817 -0.6670 -0.2765  0.6919
    67 H(1)   Bbb    -0.0043    -2.302    -0.822    -0.768 -0.4005  0.9161 -0.0201
              Bcc     0.0089     4.751     1.695     1.585  0.6283  0.2905  0.7217
 
              Baa    -0.2730   -11.193    -3.994    -3.733 -0.2289  0.0780  0.9703
    68 S(33)  Bbb     0.1179     4.834     1.725     1.612  0.7313  0.6717  0.1185
              Bcc     0.1551     6.359     2.269     2.121 -0.6425  0.7367 -0.2108
 
              Baa    -0.0106    -5.677    -2.026    -1.894  0.0457  0.8751  0.4817
    69 H(1)   Bbb    -0.0068    -3.651    -1.303    -1.218  0.9977 -0.0642  0.0220
              Bcc     0.0175     9.328     3.328     3.111 -0.0502 -0.4796  0.8760
 

 ---------------------------------------------------------------------------------

 Unable to Open any file for archive entry.
 1\1\GINC-BGN1026\SP\UAPFD\Gen\C31H32Fe1N4S1(1+,2)\BECSLEIP\11-Nov-2024
 \0\\# apfd/gen scf=maxcycle=999 geom=check\\6hqs_III_D\\1,2\Fe,0,41.88
 67979343,83.3099903069,42.859046533\N,0,42.6602710442,84.1836751901,41
 .2279741825\N,0,43.7127057147,83.2837443257,43.6891652117\N,0,41.29991
 59001,81.9311141775,44.1978480607\N,0,40.2586122135,82.8494316391,41.7
 477044364\C,0,42.0628494024,84.4277065292,40.026753987\C,0,42.90639331
 04,85.2400788945,39.1814967178\C,0,44.0334384792,85.4941315188,39.8989
 66484\C,0,43.8664030673,84.822721295,41.1675303837\C,0,44.7525828471,8
 4.0951219515,43.3365089065\C,0,45.7827307888,84.086263743,44.341150466
 \C,0,45.3529048426,83.2322954624,45.3222259002\C,0,44.0556525973,82.75
 2042826,44.893909642\C,0,41.9944302094,81.4880370524,45.2858302858\C,0
 ,41.1836309318,80.6248779694,46.1060257204\C,0,39.9651859224,80.544892
 6581,45.489066042\C,0,40.0669585833,81.3644864908,44.2976298094\C,0,39
 .1516593056,82.1846529616,42.1816930266\C,0,38.0966671713,82.234696276
 3,41.1952988022\C,0,38.5950189867,82.9328179064,40.1397576239\C,0,39.9
 411038612,83.3096277322,40.5041461184\C,0,40.7912563337,84.0160630638,
 39.6761977312\H,0,40.4274340664,84.2891205067,38.6980158359\C,0,44.828
 0739777,84.8147309633,42.1574868203\H,0,45.718877266,85.3988250259,41.
 986004589\C,0,43.281687105,81.8673462964,45.6174176717\H,0,43.68816734
 51,81.4879273965,46.5418785848\C,0,39.0421756793,81.5180852495,43.3857
 032283\H,0,38.1003687218,81.0396839408,43.6044873776\C,0,45.2401509714
 ,86.2785426727,39.515607574\H,0,45.4253791859,87.0766973845,40.2347565
 642\H,0,45.1134675286,86.725542631,38.53285939\H,0,46.1203330451,85.63
 56288348,39.4889760642\C,0,42.544843141,85.6711206204,37.8023816835\H,
 0,41.6492777728,86.2935578703,37.815643233\H,0,42.3453900372,84.804852
 9721,37.171818995\H,0,43.3525886939,86.2429501914,37.3527323638\C,0,47
 .0808574954,84.8075386859,44.2448275862\H,0,46.9661175764,85.854402090
 8,44.5306515771\H,0,47.4649502608,84.7760305237,43.2263925361\H,0,47.8
 120853834,84.348476751,44.9066255915\C,0,46.0157805534,82.8358932547,4
 6.5453685152\H,0,45.843539829,81.8136019048,46.8607756119\C,0,46.79146
 70679,83.6186980478,47.287424741\H,0,46.9571517771,84.6545313305,47.04
 76659598\H,0,47.2659072396,83.2541318187,48.1830902788\C,0,41.65715774
 64,79.915686654,47.3251850798\H,0,41.6445135147,80.5817254249,48.18925
 54838\H,0,42.6763164142,79.5568356844,47.1898251788\H,0,41.0128259542,
 79.0648965241,47.5364070417\C,0,38.7923101424,79.7916488097,45.8773203
 159\H,0,38.2038312641,79.3855044612,45.0631191515\C,0,38.4009464104,79
 .5770394049,47.1286673533\H,0,38.9223842414,79.9972496738,47.970888923
 5\H,0,37.5230881945,78.99411854,47.3521512935\C,0,36.7573648563,81.606
 008217,41.3651087467\H,0,36.2716078397,81.9761178425,42.2679353913\H,0
 ,36.8517687343,80.5233209248,41.4509275619\H,0,36.1167863455,81.826322
 1331,40.5148661063\C,0,37.9487176536,83.2760604681,38.8424215515\H,0,3
 6.9184726867,82.9305391796,38.8215718879\H,0,38.4827593209,82.80977907
 23,38.0144168681\H,0,37.9532671596,84.3544461045,38.6838799379\C,0,40.
 0915536766,86.0979991678,42.6549313106\H,0,40.5997966613,86.1046250186
 ,41.6955001483\H,0,39.9007589536,87.1057837856,43.010442526\H,0,39.160
 4605238,85.5452843145,42.5736000905\S,0,41.1166938308,85.2081464662,43
 .8860938027\H,0,42.1673767079,86.0354751931,43.7719658044\\Version=ES6
 4L-G16RevC.02\State=2-A\HF=-3080.0319864\S2=1.291111\S2-1=0.\S2A=0.807
 027\RMSD=6.019e-09\Dipole=-0.5167064,1.4147437,-0.2242847\Quadrupole=7
 .1994811,-12.1760495,4.9765684,15.1573999,9.8194562,-19.7086028\PG=C01
  [X(C31H32Fe1N4S1)]\\@
 The archive entry for this job was punched.


 THE MEEK SHALL INHERIT THE EARTH.
 (THE REST OF US WILL ESCAPE TO THE STARS)
 Job cpu time:       0 days  4 hours 32 minutes 44.4 seconds.
 Elapsed time:       0 days  0 hours  4 minutes 39.5 seconds.
 File lengths (MBytes):  RWF=    343 Int=      0 D2E=      0 Chk=    150 Scr=      1
 Normal termination of Gaussian 16 at Mon Nov 11 15:29:46 2024.
