 Entering Gaussian System, Link 0=g16
 Input=6hqt01.com
 Output=6hqt01.log
 Initial command:
 /sw/chem/gaussian/g16_C02/a100/g16/l1.exe "/local/becsleip_8076293/Gau-1245468.inp" -scrdir="/local/becsleip_8076293/"
 Entering Link 1 = /sw/chem/gaussian/g16_C02/a100/g16/l1.exe PID=   1245469.
  
 Copyright (c) 1988-2021, Gaussian, Inc.  All Rights Reserved.
  
 This is part of the Gaussian(R) 16 program.  It is based on
 the Gaussian(R) 09 system (copyright 2009, Gaussian, Inc.),
 the Gaussian(R) 03 system (copyright 2003, Gaussian, Inc.),
 the Gaussian(R) 98 system (copyright 1998, Gaussian, Inc.),
 the Gaussian(R) 94 system (copyright 1995, Gaussian, Inc.),
 the Gaussian 92(TM) system (copyright 1992, Gaussian, Inc.),
 the Gaussian 90(TM) system (copyright 1990, Gaussian, Inc.),
 the Gaussian 88(TM) system (copyright 1988, Gaussian, Inc.),
 the Gaussian 86(TM) system (copyright 1986, Carnegie Mellon
 University), and the Gaussian 82(TM) system (copyright 1983,
 Carnegie Mellon University). Gaussian is a federally registered
 trademark of Gaussian, Inc.
  
 This software contains proprietary and confidential information,
 including trade secrets, belonging to Gaussian, Inc.
  
 This software is provided under written license and may be
 used, copied, transmitted, or stored only in accord with that
 written license.
  
 The following legend is applicable only to US Government
 contracts under FAR:
  
                    RESTRICTED RIGHTS LEGEND
  
 Use, reproduction and disclosure by the US Government is
 subject to restrictions as set forth in subparagraphs (a)
 and (c) of the Commercial Computer Software - Restricted
 Rights clause in FAR 52.227-19.
  
 Gaussian, Inc.
 340 Quinnipiac St., Bldg. 40, Wallingford CT 06492
  
  
 ---------------------------------------------------------------
 Warning -- This program may not be used in any manner that
 competes with the business of Gaussian, Inc. or will provide
 assistance to any competitor of Gaussian, Inc.  The licensee
 of this program is prohibited from giving any competitor of
 Gaussian, Inc. access to this program.  By using this program,
 the user acknowledges that Gaussian, Inc. is engaged in the
 business of creating and licensing software in the field of
 computational chemistry and represents and warrants to the
 licensee that it is not a competitor of Gaussian, Inc. and that
 it will not use this program in any manner prohibited above.
 ---------------------------------------------------------------
  

 Cite this work as:
 Gaussian 16, Revision C.02,
 M. J. Frisch, G. W. Trucks, H. B. Schlegel, G. E. Scuseria, 
 M. A. Robb, J. R. Cheeseman, G. Scalmani, V. Barone, 
 G. A. Petersson, H. Nakatsuji, X. Li, M. Caricato, A. V. Marenich, 
 J. Bloino, B. G. Janesko, R. Gomperts, B. Mennucci, H. P. Hratchian, 
 J. V. Ortiz, A. F. Izmaylov, J. L. Sonnenberg, D. Williams-Young, 
 F. Ding, F. Lipparini, F. Egidi, J. Goings, B. Peng, A. Petrone, 
 T. Henderson, D. Ranasinghe, V. G. Zakrzewski, J. Gao, N. Rega, 
 G. Zheng, W. Liang, M. Hada, M. Ehara, K. Toyota, R. Fukuda, 
 J. Hasegawa, M. Ishida, T. Nakajima, Y. Honda, O. Kitao, H. Nakai, 
 T. Vreven, K. Throssell, J. A. Montgomery, Jr., J. E. Peralta, 
 F. Ogliaro, M. J. Bearpark, J. J. Heyd, E. N. Brothers, K. N. Kudin, 
 V. N. Staroverov, T. A. Keith, R. Kobayashi, J. Normand, 
 K. Raghavachari, A. P. Rendell, J. C. Burant, S. S. Iyengar, 
 J. Tomasi, M. Cossi, J. M. Millam, M. Klene, C. Adamo, R. Cammi, 
 J. W. Ochterski, R. L. Martin, K. Morokuma, O. Farkas, 
 J. B. Foresman, and D. J. Fox, Gaussian, Inc., Wallingford CT, 2019.
 
 ******************************************
 Gaussian 16:  ES64L-G16RevC.02  7-Dec-2021
                11-Nov-2024 
 ******************************************
 %mem=16GB
 %CPU=0-71
 SetSPE:  set environment variable "OMP_PROC_BIND" = "true"
 SetSPE:  set environment variable "OMP_PLACES" = "{0},{1},{2},{3},{4},{5},{6},{7},{8},{9},{10},{11},{12},{13},{14},{15},{16},{17},{18},{19},{20},{21},{22},{23},{24},{25},{26},{27},{28},{29},{30},{31},{32},{33},{34},{35},{36},{37},{38},{39},{40},{41},{42},{43},{44},{45},{46},{47},{48},{49},{50},{51},{52},{53},{54},{55},{56},{57},{58},{59},{60},{61},{62},{63},{64},{65},{66},{67},{68},{69},{70},{71}"
 Will use up to   72 processors via shared memory.
 %gpucpu=0,1,2,3=0,1,2,3
 Will use    4 GPUs:
 Thread  CPU   GPU
      0    0     0
      1    1     1
      2    2     2
      3    3     3
      4    4    -1
      5    5    -1
      6    6    -1
      7    7    -1
      8    8    -1
      9    9    -1
     10   10    -1
     11   11    -1
     12   12    -1
     13   13    -1
     14   14    -1
     15   15    -1
     16   16    -1
     17   17    -1
     18   18    -1
     19   19    -1
     20   20    -1
     21   21    -1
     22   22    -1
     23   23    -1
     24   24    -1
     25   25    -1
     26   26    -1
     27   27    -1
     28   28    -1
     29   29    -1
     30   30    -1
     31   31    -1
     32   32    -1
     33   33    -1
     34   34    -1
     35   35    -1
     36   36    -1
     37   37    -1
     38   38    -1
     39   39    -1
     40   40    -1
     41   41    -1
     42   42    -1
     43   43    -1
     44   44    -1
     45   45    -1
     46   46    -1
     47   47    -1
     48   48    -1
     49   49    -1
     50   50    -1
     51   51    -1
     52   52    -1
     53   53    -1
     54   54    -1
     55   55    -1
     56   56    -1
     57   57    -1
     58   58    -1
     59   59    -1
     60   60    -1
     61   61    -1
     62   62    -1
     63   63    -1
     64   64    -1
     65   65    -1
     66   66    -1
     67   67    -1
     68   68    -1
     69   69    -1
     70   70    -1
     71   71    -1
 SetGPE:  set environment variable "OMP_PROC_BIND" = "true"
 SetGPE:  set environment variable "OMP_PLACES" = "{0},{1},{2},{3},{4},{5},{6},{7},{8},{9},{10},{11},{12},{13},{14},{15},{16},{17},{18},{19},{20},{21},{22},{23},{24},{25},{26},{27},{28},{29},{30},{31},{32},{33},{34},{35},{36},{37},{38},{39},{40},{41},{42},{43},{44},{45},{46},{47},{48},{49},{50},{51},{52},{53},{54},{55},{56},{57},{58},{59},{60},{61},{62},{63},{64},{65},{66},{67},{68},{69},{70},{71}"
 %chk=6hqt_II_O.chk
 Properties for Device   0
 Minimum vector length:                              32
 Maximum vector length:                            1024
 Number of SMPs:                                    108
 Maximum number of threads per SMP:                2048
 Number of ASync Engines:                             5
 Memory:                                           9207742464
 Properties for Device   1
 Minimum vector length:                              32
 Maximum vector length:                            1024
 Number of SMPs:                                    108
 Maximum number of threads per SMP:                2048
 Number of ASync Engines:                             5
 Memory:                                           9207742464
 Properties for Device   2
 Minimum vector length:                              32
 Maximum vector length:                            1024
 Number of SMPs:                                    108
 Maximum number of threads per SMP:                2048
 Number of ASync Engines:                             5
 Memory:                                           9207742464
 Properties for Device   3
 Minimum vector length:                              32
 Maximum vector length:                            1024
 Number of SMPs:                                    108
 Maximum number of threads per SMP:                2048
 Number of ASync Engines:                             5
 Memory:                                           9207742464
   8286968217 words of memory will be used on each GPU.
 ------------------------------------------
 # polar def2tzvp apfd int=(grid=ultrafine)
 ------------------------------------------
 1/38=1,172=1/1;
 2/12=2,17=6,18=5,40=1/2;
 3/5=44,7=101,11=2,25=1,30=1,74=-44,75=-5/1,2,3;
 4//1;
 5/5=2,38=5,98=1/2;
 8/6=4,10=90,11=11/1;
 10/6=1,13=10/2;
 6/7=2,8=2,9=2,10=2,28=1/1;
 99/5=1,9=1/99;
 ---------
 6hqt_II_S
 ---------
 Symbolic Z-matrix:
 Charge =  0 Multiplicity = 1
 Fe                    41.95698   82.98725   43.1669 
 N                     42.69479   83.92685   41.55981 
 N                     43.79176   82.99938   43.99102 
 N                     41.40572   81.62517   44.52278 
 N                     40.31819   82.55499   42.08742 
 C                     42.09205   84.15053   40.3567 
 C                     42.93728   84.93829   39.49043 
 C                     44.07025   85.19751   40.19638 
 C                     43.9077   84.5485   41.47712 
 C                     44.81908   83.82453   43.63387 
 C                     45.87224   83.79852   44.61421 
 C                     45.46459   82.92896   45.59042 
 C                     44.15982   82.45216   45.18153 
 C                     42.1177   81.16873   45.59283 
 C                     41.32223   80.29215   46.41325 
 C                     40.09543   80.2151   45.81288 
 C                     40.17768   81.04744   44.62879 
 C                     39.22459   81.87618   42.53223 
 C                     38.16924   81.89271   41.54515 
 C                     38.65808   82.57715   40.47611 
 C                     39.99694   82.98393   40.83421 
 C                     40.82512   83.72089   40.01101 
 H                     40.45818   83.97872   39.0299 
 C                     44.87576   84.55369   42.46035 
 H                     45.76409   85.13787   42.27745 
 C                     43.40882   81.54906   45.90602 
 H                     43.83616   81.15809   46.81603 
 C                     39.13509   81.21151   43.73903 
 H                     38.19976   80.7258   43.96918 
 C                     45.28119   85.96389   39.79047 
 H                     45.47097   86.78065   40.48719 
 H                     45.15591   86.38416   38.79587 
 H                     46.15791   85.31618   39.78077 
 C                     42.57199   85.34389   38.10461 
 H                     41.64892   85.92319   38.10306 
 H                     42.42095   84.46558   37.47778 
 H                     43.35706   85.94981   37.66042 
 C                     47.16647   84.52435   44.50155 
 H                     47.0539   85.56834   44.79838 
 H                     47.53276   84.50275   43.47626 
 H                     47.91046   84.06145   45.14613 
 C                     46.1553   82.51391   46.79205 
 H                     45.9964   81.48495   47.09238 
 C                     46.94125   83.28866   47.53162 
 H                     47.09492   84.32975   47.30687 
 H                     47.43739   82.91153   48.41021 
 C                     41.81513   79.57087   47.61747 
 H                     41.81393   80.22742   48.48881 
 H                     42.83288   79.21567   47.46335 
 H                     41.17547   78.71661   47.82878 
 C                     38.93088   79.4533   46.20949 
 H                     38.33318   79.05217   45.39947 
 C                     38.55598   79.22597   47.46361 
 H                     39.0856   79.64054   48.30353 
 H                     37.68277   78.63794   47.69212 
 C                     36.84026   81.24543   41.72606 
 H                     36.34653   81.62698   42.61975 
 H                     36.9525   80.16661   41.83582 
 H                     36.19775   81.43665   40.87026 
 C                     38.0105   82.87952   39.16923 
 H                     37.00346   82.47199   39.13434 
 H                     38.58407   82.44589   38.34998 
 H                     37.95171   83.95635   39.00865 
 C                     40.08745   85.73558   43.05321 
 H                     40.53775   85.72976   42.06594 
 H                     39.91159   86.74823   43.40348 
 H                     39.15717   85.17679   43.03478 
 S                     41.18889   84.87159   44.23389 
 H                     42.22146   85.70745   44.05133 
 
 Stoichiometry    C31H32FeN4S
 Framework group  C1[X(C31H32FeN4S)]
 Deg. of freedom   201
 Full point group                 C1      NOp   1
 Largest Abelian subgroup         C1      NOp   1
 Largest concise Abelian subgroup C1      NOp   1
                         Standard orientation:                         
 ---------------------------------------------------------------------
 Center     Atomic      Atomic             Coordinates (Angstroms)
 Number     Number       Type             X           Y           Z
 ---------------------------------------------------------------------
      1         26           0        0.132588   -0.070431    0.002519
      2          7           0        1.177726   -1.758566   -0.257954
      3          7           0       -1.568272   -1.101142   -0.298260
      4          7           0       -0.898643    1.621865   -0.262526
      5          7           0        1.845745    0.954610   -0.225792
      6          6           0        2.525675   -1.907799   -0.404796
      7          6           0        2.888175   -3.303230   -0.487092
      8          6           0        1.728471   -4.005175   -0.379679
      9          6           0        0.672558   -3.027115   -0.251703
     10          6           0       -1.709393   -2.454285   -0.184765
     11          6           0       -3.097689   -2.831597   -0.150629
     12          6           0       -3.812772   -1.667779   -0.248032
     13          6           0       -2.834499   -0.603206   -0.329313
     14          6           0       -2.246877    1.770730   -0.405206
     15          6           0       -2.618025    3.162011   -0.434151
     16          6           0       -1.454517    3.870900   -0.311190
     17          6           0       -0.395123    2.885784   -0.217040
     18          6           0        1.982484    2.307783   -0.156334
     19          6           0        3.375596    2.689413   -0.200368
     20          6           0        4.083302    1.534487   -0.325110
     21          6           0        3.112847    0.464746   -0.336331
     22          6           0        3.440891   -0.873023   -0.433284
     23          1           0        4.483655   -1.128246   -0.539170
     24          6           0       -0.663647   -3.358608   -0.159155
     25          1           0       -0.911124   -4.407364   -0.107153
     26          6           0       -3.159316    0.733441   -0.440419
     27          1           0       -4.205053    0.991907   -0.497048
     28          6           0        0.941129    3.212689   -0.102420
     29          1           0        1.196416    4.258694   -0.035806
     30          6           0        1.510613   -5.478402   -0.404901
     31          1           0        1.001702   -5.807566    0.501298
     32          1           0        2.457722   -6.006911   -0.477123
     33          1           0        0.895532   -5.759165   -1.259940
     34          6           0        4.281930   -3.798932   -0.660842
     35          1           0        4.919292   -3.450145    0.151410
     36          1           0        4.701123   -3.436520   -1.598979
     37          1           0        4.306327   -4.885225   -0.672707
     38          6           0       -3.605216   -4.229767   -0.104910
     39          1           0       -3.578792   -4.619896    0.913815
     40          1           0       -2.997848   -4.881187   -0.731487
     41          1           0       -4.632655   -4.264870   -0.460484
     42          6           0       -5.246215   -1.475856   -0.288893
     43          1           0       -5.592844   -0.665176   -0.918860
     44          6           0       -6.136695   -2.200899    0.379156
     45          1           0       -5.845210   -2.985396    1.055608
     46          1           0       -7.193814   -2.012650    0.293350
     47          6           0       -3.999569    3.671804   -0.645844
     48          1           0       -4.570097    3.639774    0.283542
     49          1           0       -4.523441    3.067672   -1.384981
     50          1           0       -3.967988    4.701509   -0.995524
     51          6           0       -1.254738    5.304031   -0.303989
     52          1           0       -0.343561    5.654121   -0.774613
     53          6           0       -2.087838    6.190025    0.230798
     54          1           0       -2.981608    5.893707    0.751555
     55          1           0       -1.886176    7.247493    0.190980
     56          6           0        3.863353    4.095174   -0.138448
     57          1           0        3.502613    4.586628    0.765087
     58          1           0        3.505289    4.662031   -0.998071
     59          1           0        4.949973    4.127308   -0.136729
     60          6           0        5.554808    1.333756   -0.439503
     61          1           0        6.077812    2.285972   -0.404945
     62          1           0        5.800620    0.841920   -1.380713
     63          1           0        5.922716    0.709317    0.375060
     64          6           0        1.813227   -0.292281    2.863920
     65          1           0        2.345409   -0.999353    2.235960
     66          1           0        1.826940   -0.597875    3.905794
     67          1           0        2.250449    0.695180    2.755518
     68         16           0        0.076914   -0.156419    2.297880
     69          1           0       -0.204764   -1.452049    2.498316
 ---------------------------------------------------------------------
 Rotational constants (GHZ):           0.1104692           0.1093699           0.0597203
 Standard basis: def2TZVP (5D, 7F)
 There are  1546 symmetry adapted cartesian basis functions of A   symmetry.
 There are  1359 symmetry adapted basis functions of A   symmetry.
  1359 basis functions,  2212 primitive gaussians,  1546 cartesian basis functions
   144 alpha electrons      144 beta electrons
       nuclear repulsion energy      5030.6993660665 Hartrees.
 NAtoms=   69 NActive=   69 NUniq=   69 SFac= 1.00D+00 NAtFMM=   60 NAOKFM=T Big=T
 Integral buffers will be    131072 words long.
 Raffenetti 2 integral format.
 Two-electron integral symmetry is turned on.
 R6APFD:  NTU= -4 IXU= 1 FactS= 1.050
 Nuclear repulsion after empirical dispersion term =     5030.5692499524 Hartrees.
 One-electron integrals computed using PRISM.
   1 Symmetry operations used in ECPInt.
 ECPInt:  NShTT=  146611 NPrTT=  457451 LenC2=  115604 LenP2D=  240784.
 LDataN:  DoStor=T MaxTD1= 6 Len=  172
 Number of processors reduced to  26 by ecpmxn.
 NBasis=  1359 RedAO= T EigKep=  3.21D-06  NBF=  1359
 NBsUse=  1359 1.00D-06 EigRej= -1.00D+00 NBFU=  1359
 ExpMin= 4.20D-02 ExpMax= 3.01D+05 ExpMxC= 2.91D+03 IAcc=3 IRadAn=         5 AccDes= 0.00D+00
 Harris functional with IExCor= 3731 and IRadAn=       5 diagonalized for initial guess.
 HarFok:  IExCor= 3731 AccDes= 0.00D+00 IRadAn=         5 IDoV= 1 UseB2=F ITyADJ=14
 ICtDFT=  3500011 ScaDFX=  1.000000  1.000000  1.000000  1.000000
 FoFCou: FMM=F IPFlag=           0 FMFlag=      100000 FMFlg1=        2001
         NFxFlg=           0 DoJE=T BraDBF=F KetDBF=T FulRan=T
         wScrn=  0.000000 ICntrl=       500 IOpCl=  0 I1Cent=   200000004 NGrid=           0
         NMat0=    1 NMatS0=      1 NMatT0=    0 NMatD0=    1 NMtDS0=    0 NMtDT0=    0
 Petite list used in FoFCou.
 Requested convergence on RMS density matrix=1.00D-08 within 128 cycles.
 Requested convergence on MAX density matrix=1.00D-06.
 Requested convergence on             energy=1.00D-06.
 No special actions if energy rises.
 EnCoef did     4 forward-backward iterations
 EnCoef did   100 forward-backward iterations
 EnCoef did   100 forward-backward iterations
 EnCoef did   100 forward-backward iterations
 EnCoef did     5 forward-backward iterations
 EnCoef did   100 forward-backward iterations
 EnCoef did     2 forward-backward iterations
 EnCoef did     8 forward-backward iterations
 Restarting incremental Fock formation.
 SCF Done:  E(RAPFD) =  -3080.76882149     A.U. after   28 cycles
            NFock= 28  Conv=0.62D-08     -V/T= 2.0031
 DoSCS=F DFT=T ScalE2(SS,OS)=  1.000000  1.000000
 Range of M.O.s used for correlation:     1  1359
 NBasis=  1359 NAE=   144 NBE=   144 NFC=     0 NFV=     0
 NROrb=   1359 NOA=   144 NOB=   144 NVA=  1215 NVB=  1215

 **** Warning!!: The largest alpha MO coefficient is  0.64504654D+02

          Differentiating once with respect to electric field.
                with respect to dipole field.
          Electric field/nuclear overlap derivatives assumed to be zero.
          There are     3 degrees of freedom in the 1st order CPHF.  IDoFFX=0 NUNeed=     3.
      3 vectors produced by pass  0 Test12= 5.83D-12 3.33D-08 XBig12= 1.82D+03 2.54D+01.
 AX will form     3 AO Fock derivatives at one time.
      3 vectors produced by pass  1 Test12= 5.83D-12 3.33D-08 XBig12= 1.11D+03 7.65D+00.
      3 vectors produced by pass  2 Test12= 5.83D-12 3.33D-08 XBig12= 5.14D+02 5.71D+00.
      3 vectors produced by pass  3 Test12= 5.83D-12 3.33D-08 XBig12= 2.59D+02 3.57D+00.
      3 vectors produced by pass  4 Test12= 5.83D-12 3.33D-08 XBig12= 1.70D+02 2.59D+00.
      3 vectors produced by pass  5 Test12= 5.83D-12 3.33D-08 XBig12= 8.95D+01 2.34D+00.
      3 vectors produced by pass  6 Test12= 5.83D-12 3.33D-08 XBig12= 6.03D+01 1.70D+00.
      3 vectors produced by pass  7 Test12= 5.83D-12 3.33D-08 XBig12= 2.97D+01 1.34D+00.
      3 vectors produced by pass  8 Test12= 5.83D-12 3.33D-08 XBig12= 1.01D+01 7.44D-01.
      3 vectors produced by pass  9 Test12= 5.83D-12 3.33D-08 XBig12= 6.68D+00 7.87D-01.
      3 vectors produced by pass 10 Test12= 5.83D-12 3.33D-08 XBig12= 2.84D+00 7.93D-01.
      3 vectors produced by pass 11 Test12= 5.83D-12 3.33D-08 XBig12= 7.82D-01 2.77D-01.
      3 vectors produced by pass 12 Test12= 5.83D-12 3.33D-08 XBig12= 1.89D-01 8.41D-02.
      3 vectors produced by pass 13 Test12= 5.83D-12 3.33D-08 XBig12= 6.90D-02 5.54D-02.
      3 vectors produced by pass 14 Test12= 5.83D-12 3.33D-08 XBig12= 2.51D-02 3.75D-02.
      3 vectors produced by pass 15 Test12= 5.83D-12 3.33D-08 XBig12= 1.05D-02 3.35D-02.
      3 vectors produced by pass 16 Test12= 5.83D-12 3.33D-08 XBig12= 3.64D-03 1.71D-02.
      3 vectors produced by pass 17 Test12= 5.83D-12 3.33D-08 XBig12= 7.34D-04 4.59D-03.
      3 vectors produced by pass 18 Test12= 5.83D-12 3.33D-08 XBig12= 1.31D-04 1.49D-03.
      3 vectors produced by pass 19 Test12= 5.83D-12 3.33D-08 XBig12= 2.88D-05 8.58D-04.
      3 vectors produced by pass 20 Test12= 5.83D-12 3.33D-08 XBig12= 5.85D-06 3.96D-04.
      3 vectors produced by pass 21 Test12= 5.83D-12 3.33D-08 XBig12= 8.00D-07 2.16D-04.
      3 vectors produced by pass 22 Test12= 5.83D-12 3.33D-08 XBig12= 1.22D-07 6.57D-05.
      3 vectors produced by pass 23 Test12= 5.83D-12 3.33D-08 XBig12= 2.27D-08 3.81D-05.
      3 vectors produced by pass 24 Test12= 5.83D-12 3.33D-08 XBig12= 4.46D-09 1.38D-05.
      3 vectors produced by pass 25 Test12= 5.83D-12 3.33D-08 XBig12= 9.54D-10 5.66D-06.
      3 vectors produced by pass 26 Test12= 5.83D-12 3.33D-08 XBig12= 1.27D-10 1.82D-06.
      3 vectors produced by pass 27 Test12= 5.83D-12 3.33D-08 XBig12= 9.82D-12 6.48D-07.
      3 vectors produced by pass 28 Test12= 5.83D-12 3.33D-08 XBig12= 1.98D-12 2.49D-07.
      3 vectors produced by pass 29 Test12= 5.83D-12 3.33D-08 XBig12= 3.79D-13 1.27D-07.
 InvSVY:  IOpt=1 It=  1 EMax= 2.84D-14
 Solved reduced A of dimension    90 with     3 vectors.
 Isotropic polarizability for W=    0.000000      544.44 Bohr**3.
 End of Minotr F.D. properties file   721 does not exist.
 End of Minotr F.D. properties file   722 does not exist.
 End of Minotr F.D. properties file   788 does not exist.

 **********************************************************************

            Population analysis using the SCF Density.

 **********************************************************************

 Orbital symmetries:
       Occupied  (A) (A) (A) (A) (A) (A) (A) (A) (A) (A) (A) (A)
                 (A) (A) (A) (A) (A) (A) (A) (A) (A) (A) (A) (A)
                 (A) (A) (A) (A) (A) (A) (A) (A) (A) (A) (A) (A)
                 (A) (A) (A) (A) (A) (A) (A) (A) (A) (A) (A) (A)
                 (A) (A) (A) (A) (A) (A) (A) (A) (A) (A) (A) (A)
                 (A) (A) (A) (A) (A) (A) (A) (A) (A) (A) (A) (A)
                 (A) (A) (A) (A) (A) (A) (A) (A) (A) (A) (A) (A)
                 (A) (A) (A) (A) (A) (A) (A) (A) (A) (A) (A) (A)
                 (A) (A) (A) (A) (A) (A) (A) (A) (A) (A) (A) (A)
                 (A) (A) (A) (A) (A) (A) (A) (A) (A) (A) (A) (A)
                 (A) (A) (A) (A) (A) (A) (A) (A) (A) (A) (A) (A)
                 (A) (A) (A) (A) (A) (A) (A) (A) (A) (A) (A) (A)
       Virtual   (A) (A) (A) (A) (A) (A) (A) (A) (A) (A) (A) (A)
                 (A) (A) (A) (A) (A) (A) (A) (A) (A) (A) (A) (A)
                 (A) (A) (A) (A) (A) (A) (A) (A) (A) (A) (A) (A)
                 (A) (A) (A) (A) (A) (A) (A) (A) (A) (A) (A) (A)
                 (A) (A) (A) (A) (A) (A) (A) (A) (A) (A) (A) (A)
                 (A) (A) (A) (A) (A) (A) (A) (A) (A) (A) (A) (A)
                 (A) (A) (A) (A) (A) (A) (A) (A) (A) (A) (A) (A)
                 (A) (A) (A) (A) (A) (A) (A) (A) (A) (A) (A) (A)
                 (A) (A) (A) (A) (A) (A) (A) (A) (A) (A) (A) (A)
                 (A) (A) (A) (A) (A) (A) (A) (A) (A) (A) (A) (A)
                 (A) (A) (A) (A) (A) (A) (A) (A) (A) (A) (A) (A)
                 (A) (A) (A) (A) (A) (A) (A) (A) (A) (A) (A) (A)
                 (A) (A) (A) (A) (A) (A) (A) (A) (A) (A) (A) (A)
                 (A) (A) (A) (A) (A) (A) (A) (A) (A) (A) (A) (A)
                 (A) (A) (A) (A) (A) (A) (A) (A) (A) (A) (A) (A)
                 (A) (A) (A) (A) (A) (A) (A) (A) (A) (A) (A) (A)
                 (A) (A) (A) (A) (A) (A) (A) (A) (A) (A) (A) (A)
                 (A) (A) (A) (A) (A) (A) (A) (A) (A) (A) (A) (A)
                 (A) (A) (A) (A) (A) (A) (A) (A) (A) (A) (A) (A)
                 (A) (A) (A) (A) (A) (A) (A) (A) (A) (A) (A) (A)
                 (A) (A) (A) (A) (A) (A) (A) (A) (A) (A) (A) (A)
                 (A) (A) (A) (A) (A) (A) (A) (A) (A) (A) (A) (A)
                 (A) (A) (A) (A) (A) (A) (A) (A) (A) (A) (A) (A)
                 (A) (A) (A) (A) (A) (A) (A) (A) (A) (A) (A) (A)
                 (A) (A) (A) (A) (A) (A) (A) (A) (A) (A) (A) (A)
                 (A) (A) (A) (A) (A) (A) (A) (A) (A) (A) (A) (A)
                 (A) (A) (A) (A) (A) (A) (A) (A) (A) (A) (A) (A)
                 (A) (A) (A) (A) (A) (A) (A) (A) (A) (A) (A) (A)
                 (A) (A) (A) (A) (A) (A) (A) (A) (A) (A) (A) (A)
                 (A) (A) (A) (A) (A) (A) (A) (A) (A) (A) (A) (A)
                 (A) (A) (A) (A) (A) (A) (A) (A) (A) (A) (A) (A)
                 (A) (A) (A) (A) (A) (A) (A) (A) (A) (A) (A) (A)
                 (A) (A) (A) (A) (A) (A) (A) (A) (A) (A) (A) (A)
                 (A) (A) (A) (A) (A) (A) (A) (A) (A) (A) (A) (A)
                 (A) (A) (A) (A) (A) (A) (A) (A) (A) (A) (A) (A)
                 (A) (A) (A) (A) (A) (A) (A) (A) (A) (A) (A) (A)
                 (A) (A) (A) (A) (A) (A) (A) (A) (A) (A) (A) (A)
                 (A) (A) (A) (A) (A) (A) (A) (A) (A) (A) (A) (A)
                 (A) (A) (A) (A) (A) (A) (A) (A) (A) (A) (A) (A)
                 (A) (A) (A) (A) (A) (A) (A) (A) (A) (A) (A) (A)
                 (A) (A) (A) (A) (A) (A) (A) (A) (A) (A) (A) (A)
                 (A) (A) (A) (A) (A) (A) (A) (A) (A) (A) (A) (A)
                 (A) (A) (A) (A) (A) (A) (A) (A) (A) (A) (A) (A)
                 (A) (A) (A) (A) (A) (A) (A) (A) (A) (A) (A) (A)
                 (A) (A) (A) (A) (A) (A) (A) (A) (A) (A) (A) (A)
                 (A) (A) (A) (A) (A) (A) (A) (A) (A) (A) (A) (A)
                 (A) (A) (A) (A) (A) (A) (A) (A) (A) (A) (A) (A)
                 (A) (A) (A) (A) (A) (A) (A) (A) (A) (A) (A) (A)
                 (A) (A) (A) (A) (A) (A) (A) (A) (A) (A) (A) (A)
                 (A) (A) (A) (A) (A) (A) (A) (A) (A) (A) (A) (A)
                 (A) (A) (A) (A) (A) (A) (A) (A) (A) (A) (A) (A)
                 (A) (A) (A) (A) (A) (A) (A) (A) (A) (A) (A) (A)
                 (A) (A) (A) (A) (A) (A) (A) (A) (A) (A) (A) (A)
                 (A) (A) (A) (A) (A) (A) (A) (A) (A) (A) (A) (A)
                 (A) (A) (A) (A) (A) (A) (A) (A) (A) (A) (A) (A)
                 (A) (A) (A) (A) (A) (A) (A) (A) (A) (A) (A) (A)
                 (A) (A) (A) (A) (A) (A) (A) (A) (A) (A) (A) (A)
                 (A) (A) (A) (A) (A) (A) (A) (A) (A) (A) (A) (A)
                 (A) (A) (A) (A) (A) (A) (A) (A) (A) (A) (A) (A)
                 (A) (A) (A) (A) (A) (A) (A) (A) (A) (A) (A) (A)
                 (A) (A) (A) (A) (A) (A) (A) (A) (A) (A) (A) (A)
                 (A) (A) (A) (A) (A) (A) (A) (A) (A) (A) (A) (A)
                 (A) (A) (A) (A) (A) (A) (A) (A) (A) (A) (A) (A)
                 (A) (A) (A) (A) (A) (A) (A) (A) (A) (A) (A) (A)
                 (A) (A) (A) (A) (A) (A) (A) (A) (A) (A) (A) (A)
                 (A) (A) (A) (A) (A) (A) (A) (A) (A) (A) (A) (A)
                 (A) (A) (A) (A) (A) (A) (A) (A) (A) (A) (A) (A)
                 (A) (A) (A) (A) (A) (A) (A) (A) (A) (A) (A) (A)
                 (A) (A) (A) (A) (A) (A) (A) (A) (A) (A) (A) (A)
                 (A) (A) (A) (A) (A) (A) (A) (A) (A) (A) (A) (A)
                 (A) (A) (A) (A) (A) (A) (A) (A) (A) (A) (A) (A)
                 (A) (A) (A) (A) (A) (A) (A) (A) (A) (A) (A) (A)
                 (A) (A) (A) (A) (A) (A) (A) (A) (A) (A) (A) (A)
                 (A) (A) (A) (A) (A) (A) (A) (A) (A) (A) (A) (A)
                 (A) (A) (A) (A) (A) (A) (A) (A) (A) (A) (A) (A)
                 (A) (A) (A) (A) (A) (A) (A) (A) (A) (A) (A) (A)
                 (A) (A) (A) (A) (A) (A) (A) (A) (A) (A) (A) (A)
                 (A) (A) (A) (A) (A) (A) (A) (A) (A) (A) (A) (A)
                 (A) (A) (A) (A) (A) (A) (A) (A) (A) (A) (A) (A)
                 (A) (A) (A) (A) (A) (A) (A) (A) (A) (A) (A) (A)
                 (A) (A) (A) (A) (A) (A) (A) (A) (A) (A) (A) (A)
                 (A) (A) (A) (A) (A) (A) (A) (A) (A) (A) (A) (A)
                 (A) (A) (A) (A) (A) (A) (A) (A) (A) (A) (A) (A)
                 (A) (A) (A) (A) (A) (A) (A) (A) (A) (A) (A) (A)
                 (A) (A) (A) (A) (A) (A) (A) (A) (A) (A) (A) (A)
                 (A) (A) (A) (A) (A) (A) (A) (A) (A) (A) (A) (A)
                 (A) (A) (A) (A) (A) (A) (A) (A) (A) (A) (A) (A)
                 (A) (A) (A) (A) (A) (A) (A) (A) (A) (A) (A) (A)
                 (A) (A) (A) (A) (A) (A) (A) (A) (A) (A) (A) (A)
                 (A) (A) (A) (A) (A) (A) (A) (A) (A) (A) (A) (A)
                 (A) (A) (A) (A) (A) (A) (A) (A) (A) (A) (A) (A)
                 (A) (A) (A) (A) (A) (A) (A) (A) (A) (A) (A) (A)
                 (A) (A) (A) (A) (A) (A) (A) (A) (A) (A) (A) (A)
                 (A) (A) (A) (A) (A) (A) (A) (A) (A) (A) (A) (A)
                 (A) (A) (A) (A) (A) (A) (A) (A) (A) (A) (A) (A)
                 (A) (A) (A) (A) (A) (A) (A) (A) (A) (A) (A) (A)
                 (A) (A) (A) (A) (A) (A) (A) (A) (A) (A) (A) (A)
                 (A) (A) (A) (A) (A) (A) (A) (A) (A) (A) (A) (A)
                 (A) (A) (A) (A) (A) (A) (A) (A) (A) (A) (A) (A)
                 (A) (A) (A) (A) (A) (A) (A) (A) (A) (A) (A) (A)
                 (A) (A) (A) (A) (A) (A) (A) (A) (A) (A) (A) (A)
                 (A) (A) (A)
 The electronic state is 1-A.
 Alpha  occ. eigenvalues -- -256.19607 -88.97662 -30.04520 -25.88710 -25.88355
 Alpha  occ. eigenvalues --  -25.88183 -14.34718 -14.34687 -14.34631 -14.34585
 Alpha  occ. eigenvalues --  -10.22775 -10.21920 -10.21915 -10.21867 -10.21851
 Alpha  occ. eigenvalues --  -10.21812 -10.21800 -10.21712 -10.21712 -10.20164
 Alpha  occ. eigenvalues --  -10.20051 -10.19823 -10.19691 -10.19558 -10.19540
 Alpha  occ. eigenvalues --  -10.19483 -10.19465 -10.19405 -10.19400 -10.19359
 Alpha  occ. eigenvalues --  -10.19341 -10.19340 -10.19331 -10.19260 -10.19250
 Alpha  occ. eigenvalues --  -10.19236 -10.19200 -10.18994 -10.18768 -10.18762
 Alpha  occ. eigenvalues --  -10.18641  -8.00364  -5.94927  -5.94653  -5.94168
 Alpha  occ. eigenvalues --   -3.42304  -2.19149  -2.18184  -2.17924  -0.97891
 Alpha  occ. eigenvalues --   -0.96951  -0.96876  -0.95919  -0.83188  -0.82625
 Alpha  occ. eigenvalues --   -0.82299  -0.81702  -0.81294  -0.81146  -0.80498
 Alpha  occ. eigenvalues --   -0.80448  -0.77460  -0.76365  -0.75089  -0.74888
 Alpha  occ. eigenvalues --   -0.73941  -0.71713  -0.70808  -0.69092  -0.68753
 Alpha  occ. eigenvalues --   -0.68614  -0.67293  -0.64996  -0.64939  -0.61301
 Alpha  occ. eigenvalues --   -0.60660  -0.58741  -0.57499  -0.55354  -0.54505
 Alpha  occ. eigenvalues --   -0.54051  -0.53404  -0.51909  -0.51836  -0.51365
 Alpha  occ. eigenvalues --   -0.49498  -0.48655  -0.48176  -0.47425  -0.46227
 Alpha  occ. eigenvalues --   -0.45633  -0.45446  -0.45168  -0.44691  -0.44550
 Alpha  occ. eigenvalues --   -0.44347  -0.44129  -0.43990  -0.43833  -0.43395
 Alpha  occ. eigenvalues --   -0.43040  -0.42552  -0.42156  -0.42055  -0.41512
 Alpha  occ. eigenvalues --   -0.40952  -0.40838  -0.40740  -0.40446  -0.40237
 Alpha  occ. eigenvalues --   -0.39940  -0.39845  -0.39428  -0.39160  -0.38706
 Alpha  occ. eigenvalues --   -0.38391  -0.38004  -0.37827  -0.37478  -0.36979
 Alpha  occ. eigenvalues --   -0.36853  -0.36260  -0.35738  -0.35263  -0.34771
 Alpha  occ. eigenvalues --   -0.34436  -0.32787  -0.31822  -0.31699  -0.31234
 Alpha  occ. eigenvalues --   -0.30257  -0.29815  -0.29635  -0.27607  -0.27459
 Alpha  occ. eigenvalues --   -0.25168  -0.24868  -0.23866  -0.22934  -0.21183
 Alpha  occ. eigenvalues --   -0.19847  -0.19727  -0.19518  -0.18695
 Alpha virt. eigenvalues --   -0.07438  -0.07410  -0.03986  -0.02639   0.00007
 Alpha virt. eigenvalues --    0.00548   0.01544   0.02676   0.03312   0.03769
 Alpha virt. eigenvalues --    0.04585   0.05311   0.05526   0.05608   0.06501
 Alpha virt. eigenvalues --    0.07042   0.07294   0.07427   0.07790   0.08498
 Alpha virt. eigenvalues --    0.08546   0.09072   0.09142   0.09429   0.09979
 Alpha virt. eigenvalues --    0.10529   0.10902   0.11076   0.11281   0.11517
 Alpha virt. eigenvalues --    0.11759   0.12104   0.12162   0.12602   0.12792
 Alpha virt. eigenvalues --    0.13012   0.13370   0.13627   0.13739   0.13961
 Alpha virt. eigenvalues --    0.14242   0.14402   0.14707   0.14883   0.15108
 Alpha virt. eigenvalues --    0.15344   0.15554   0.15630   0.15795   0.16216
 Alpha virt. eigenvalues --    0.16457   0.16953   0.17220   0.17355   0.17528
 Alpha virt. eigenvalues --    0.17676   0.18139   0.18519   0.18941   0.18975
 Alpha virt. eigenvalues --    0.19603   0.19737   0.19884   0.20155   0.20283
 Alpha virt. eigenvalues --    0.20824   0.21009   0.21386   0.21618   0.21721
 Alpha virt. eigenvalues --    0.22120   0.22286   0.22564   0.23097   0.23697
 Alpha virt. eigenvalues --    0.24115   0.24264   0.24608   0.25140   0.25261
 Alpha virt. eigenvalues --    0.25397   0.25743   0.25854   0.26384   0.26559
 Alpha virt. eigenvalues --    0.26774   0.27157   0.27245   0.27736   0.28413
 Alpha virt. eigenvalues --    0.28496   0.28781   0.28918   0.29058   0.29126
 Alpha virt. eigenvalues --    0.29590   0.29743   0.30067   0.30451   0.30801
 Alpha virt. eigenvalues --    0.31072   0.31509   0.31586   0.31823   0.32172
 Alpha virt. eigenvalues --    0.32633   0.32996   0.33335   0.33709   0.34077
 Alpha virt. eigenvalues --    0.34300   0.34486   0.34722   0.35270   0.35345
 Alpha virt. eigenvalues --    0.36080   0.36270   0.36442   0.36755   0.37050
 Alpha virt. eigenvalues --    0.37279   0.37502   0.38062   0.38612   0.38724
 Alpha virt. eigenvalues --    0.38842   0.39135   0.39226   0.39658   0.39821
 Alpha virt. eigenvalues --    0.40048   0.40311   0.40687   0.40972   0.41203
 Alpha virt. eigenvalues --    0.41399   0.41458   0.41603   0.41841   0.41905
 Alpha virt. eigenvalues --    0.42328   0.42509   0.42744   0.43132   0.43458
 Alpha virt. eigenvalues --    0.43509   0.43726   0.44114   0.44465   0.44669
 Alpha virt. eigenvalues --    0.44886   0.45188   0.45349   0.45678   0.45936
 Alpha virt. eigenvalues --    0.46253   0.46502   0.46603   0.46813   0.47144
 Alpha virt. eigenvalues --    0.47373   0.47511   0.47796   0.48009   0.48395
 Alpha virt. eigenvalues --    0.48655   0.48749   0.49129   0.49148   0.49475
 Alpha virt. eigenvalues --    0.49914   0.50031   0.50316   0.50539   0.50635
 Alpha virt. eigenvalues --    0.51087   0.51186   0.51254   0.51384   0.51714
 Alpha virt. eigenvalues --    0.52056   0.52271   0.52530   0.52680   0.53145
 Alpha virt. eigenvalues --    0.53359   0.53707   0.54015   0.54565   0.54711
 Alpha virt. eigenvalues --    0.54859   0.55039   0.55549   0.55844   0.56102
 Alpha virt. eigenvalues --    0.56665   0.57032   0.57122   0.57237   0.57738
 Alpha virt. eigenvalues --    0.58284   0.58708   0.59009   0.59400   0.59726
 Alpha virt. eigenvalues --    0.60820   0.61329   0.61449   0.61481   0.61806
 Alpha virt. eigenvalues --    0.62085   0.62337   0.62604   0.62660   0.62900
 Alpha virt. eigenvalues --    0.63361   0.63505   0.63704   0.64169   0.64289
 Alpha virt. eigenvalues --    0.64678   0.65152   0.65325   0.65604   0.65993
 Alpha virt. eigenvalues --    0.66559   0.66925   0.67610   0.67943   0.68006
 Alpha virt. eigenvalues --    0.68367   0.68843   0.68992   0.69608   0.69900
 Alpha virt. eigenvalues --    0.70283   0.70691   0.70899   0.71010   0.71383
 Alpha virt. eigenvalues --    0.71673   0.72049   0.72288   0.72438   0.73011
 Alpha virt. eigenvalues --    0.73473   0.73829   0.73982   0.74161   0.74401
 Alpha virt. eigenvalues --    0.74540   0.75275   0.75628   0.75881   0.75937
 Alpha virt. eigenvalues --    0.76398   0.76782   0.77585   0.78153   0.78361
 Alpha virt. eigenvalues --    0.78600   0.79033   0.79182   0.79737   0.80024
 Alpha virt. eigenvalues --    0.80290   0.80883   0.81249   0.81317   0.82375
 Alpha virt. eigenvalues --    0.82381   0.82661   0.83032   0.83585   0.84237
 Alpha virt. eigenvalues --    0.84517   0.84861   0.85350   0.85710   0.86266
 Alpha virt. eigenvalues --    0.86777   0.87212   0.87838   0.88117   0.88898
 Alpha virt. eigenvalues --    0.89044   0.89129   0.89695   0.90103   0.90461
 Alpha virt. eigenvalues --    0.91182   0.91517   0.91875   0.92108   0.92598
 Alpha virt. eigenvalues --    0.93056   0.93615   0.94052   0.94431   0.94596
 Alpha virt. eigenvalues --    0.95157   0.95445   0.96169   0.96383   0.96893
 Alpha virt. eigenvalues --    0.97197   0.97372   0.97823   0.98203   0.98565
 Alpha virt. eigenvalues --    0.99163   0.99443   1.00004   1.00422   1.00445
 Alpha virt. eigenvalues --    1.00829   1.01351   1.01528   1.01668   1.02021
 Alpha virt. eigenvalues --    1.02142   1.02386   1.02908   1.03091   1.03545
 Alpha virt. eigenvalues --    1.03658   1.03812   1.04637   1.05087   1.05617
 Alpha virt. eigenvalues --    1.06370   1.06541   1.06680   1.07309   1.08237
 Alpha virt. eigenvalues --    1.08788   1.09157   1.09272   1.09553   1.10271
 Alpha virt. eigenvalues --    1.10381   1.10745   1.11695   1.12238   1.12667
 Alpha virt. eigenvalues --    1.13188   1.13512   1.14725   1.15417   1.16010
 Alpha virt. eigenvalues --    1.16524   1.16993   1.17474   1.17635   1.18254
 Alpha virt. eigenvalues --    1.18425   1.18839   1.19225   1.19706   1.19820
 Alpha virt. eigenvalues --    1.20355   1.20579   1.21702   1.21855   1.22473
 Alpha virt. eigenvalues --    1.22810   1.23078   1.24039   1.24743   1.24936
 Alpha virt. eigenvalues --    1.25302   1.25978   1.26366   1.26863   1.27350
 Alpha virt. eigenvalues --    1.27438   1.27849   1.28153   1.28294   1.28863
 Alpha virt. eigenvalues --    1.29306   1.29633   1.29928   1.30260   1.30968
 Alpha virt. eigenvalues --    1.31489   1.31672   1.32652   1.33694   1.34116
 Alpha virt. eigenvalues --    1.35658   1.36345   1.36401   1.36960   1.37824
 Alpha virt. eigenvalues --    1.38400   1.38634   1.39445   1.39896   1.41017
 Alpha virt. eigenvalues --    1.41817   1.42598   1.43065   1.43374   1.43647
 Alpha virt. eigenvalues --    1.44414   1.44893   1.45077   1.45838   1.46603
 Alpha virt. eigenvalues --    1.46910   1.47478   1.47599   1.47871   1.48302
 Alpha virt. eigenvalues --    1.48865   1.49219   1.49551   1.49867   1.50205
 Alpha virt. eigenvalues --    1.50387   1.50414   1.50920   1.51272   1.51681
 Alpha virt. eigenvalues --    1.52168   1.52539   1.52610   1.53207   1.53481
 Alpha virt. eigenvalues --    1.53801   1.54066   1.54196   1.54280   1.54463
 Alpha virt. eigenvalues --    1.54670   1.55012   1.55458   1.55614   1.55886
 Alpha virt. eigenvalues --    1.55935   1.56345   1.56470   1.57142   1.57456
 Alpha virt. eigenvalues --    1.57807   1.57841   1.58036   1.58799   1.59118
 Alpha virt. eigenvalues --    1.59605   1.60054   1.60260   1.60696   1.60882
 Alpha virt. eigenvalues --    1.61112   1.61487   1.62023   1.62463   1.62703
 Alpha virt. eigenvalues --    1.62992   1.63482   1.63851   1.64044   1.64307
 Alpha virt. eigenvalues --    1.64351   1.64636   1.65132   1.65361   1.65667
 Alpha virt. eigenvalues --    1.66091   1.66345   1.66692   1.67160   1.67617
 Alpha virt. eigenvalues --    1.67739   1.68044   1.68841   1.69253   1.69538
 Alpha virt. eigenvalues --    1.69979   1.70206   1.70381   1.70620   1.70844
 Alpha virt. eigenvalues --    1.71131   1.71882   1.72407   1.72547   1.72842
 Alpha virt. eigenvalues --    1.73258   1.73947   1.74386   1.74696   1.75579
 Alpha virt. eigenvalues --    1.76375   1.76950   1.77497   1.78341   1.78992
 Alpha virt. eigenvalues --    1.79123   1.79912   1.80970   1.81320   1.81528
 Alpha virt. eigenvalues --    1.81795   1.82463   1.82882   1.83236   1.83787
 Alpha virt. eigenvalues --    1.84374   1.84548   1.84834   1.85189   1.86234
 Alpha virt. eigenvalues --    1.86347   1.86947   1.87303   1.87693   1.88188
 Alpha virt. eigenvalues --    1.88829   1.89533   1.89745   1.90198   1.90248
 Alpha virt. eigenvalues --    1.90765   1.91417   1.93065   1.93369   1.93899
 Alpha virt. eigenvalues --    1.94914   1.95148   1.95677   1.95967   1.96443
 Alpha virt. eigenvalues --    1.97075   1.97599   1.97915   1.98535   1.98843
 Alpha virt. eigenvalues --    1.99227   1.99937   2.00161   2.00309   2.01075
 Alpha virt. eigenvalues --    2.01399   2.01919   2.02745   2.03926   2.04207
 Alpha virt. eigenvalues --    2.04597   2.05488   2.05871   2.06251   2.06902
 Alpha virt. eigenvalues --    2.07155   2.07563   2.08164   2.08617   2.09198
 Alpha virt. eigenvalues --    2.09491   2.09984   2.10513   2.10869   2.11622
 Alpha virt. eigenvalues --    2.11949   2.12556   2.13351   2.13680   2.13996
 Alpha virt. eigenvalues --    2.14474   2.14941   2.15130   2.16223   2.16664
 Alpha virt. eigenvalues --    2.17643   2.18076   2.18584   2.19078   2.19422
 Alpha virt. eigenvalues --    2.19518   2.20401   2.20711   2.21550   2.22312
 Alpha virt. eigenvalues --    2.22551   2.23703   2.24155   2.24827   2.25216
 Alpha virt. eigenvalues --    2.25677   2.26206   2.26263   2.26868   2.27337
 Alpha virt. eigenvalues --    2.27631   2.28216   2.28751   2.28779   2.29628
 Alpha virt. eigenvalues --    2.30011   2.30297   2.30636   2.30979   2.31741
 Alpha virt. eigenvalues --    2.32724   2.33000   2.34016   2.34159   2.34846
 Alpha virt. eigenvalues --    2.35069   2.35395   2.35897   2.36239   2.36541
 Alpha virt. eigenvalues --    2.36703   2.37335   2.37620   2.38223   2.38316
 Alpha virt. eigenvalues --    2.39108   2.39486   2.39867   2.40815   2.41018
 Alpha virt. eigenvalues --    2.41327   2.41763   2.42251   2.43153   2.43822
 Alpha virt. eigenvalues --    2.44046   2.44302   2.44669   2.45318   2.45558
 Alpha virt. eigenvalues --    2.45796   2.46351   2.46863   2.47122   2.47824
 Alpha virt. eigenvalues --    2.48140   2.48668   2.49316   2.50084   2.51010
 Alpha virt. eigenvalues --    2.52018   2.52322   2.52381   2.52559   2.52773
 Alpha virt. eigenvalues --    2.53717   2.53990   2.54787   2.55173   2.55462
 Alpha virt. eigenvalues --    2.55934   2.56088   2.56432   2.56624   2.57200
 Alpha virt. eigenvalues --    2.57357   2.58067   2.58161   2.58963   2.59425
 Alpha virt. eigenvalues --    2.59740   2.60063   2.60646   2.60784   2.61169
 Alpha virt. eigenvalues --    2.61567   2.61838   2.62320   2.62860   2.64065
 Alpha virt. eigenvalues --    2.64131   2.64694   2.65188   2.65575   2.66176
 Alpha virt. eigenvalues --    2.66556   2.66654   2.67316   2.67582   2.68433
 Alpha virt. eigenvalues --    2.68610   2.68980   2.69330   2.69654   2.70168
 Alpha virt. eigenvalues --    2.70591   2.70739   2.71763   2.72337   2.73296
 Alpha virt. eigenvalues --    2.73351   2.73851   2.74265   2.74828   2.75288
 Alpha virt. eigenvalues --    2.76139   2.76542   2.77094   2.77307   2.77958
 Alpha virt. eigenvalues --    2.78177   2.78699   2.79035   2.79890   2.80081
 Alpha virt. eigenvalues --    2.80602   2.81309   2.81652   2.82162   2.82737
 Alpha virt. eigenvalues --    2.82989   2.83309   2.83823   2.84599   2.84938
 Alpha virt. eigenvalues --    2.85017   2.85295   2.85952   2.86425   2.86999
 Alpha virt. eigenvalues --    2.87347   2.87927   2.88002   2.88805   2.88963
 Alpha virt. eigenvalues --    2.89249   2.89848   2.90001   2.90811   2.91004
 Alpha virt. eigenvalues --    2.91591   2.92534   2.92930   2.93235   2.94030
 Alpha virt. eigenvalues --    2.94371   2.94651   2.95129   2.95408   2.96286
 Alpha virt. eigenvalues --    2.96440   2.96889   2.97562   2.97668   2.98107
 Alpha virt. eigenvalues --    2.98528   2.98974   2.99283   2.99681   3.00344
 Alpha virt. eigenvalues --    3.00631   3.00849   3.01736   3.02007   3.03152
 Alpha virt. eigenvalues --    3.03350   3.03649   3.04488   3.04913   3.05341
 Alpha virt. eigenvalues --    3.05627   3.06109   3.06625   3.06898   3.07255
 Alpha virt. eigenvalues --    3.07693   3.07991   3.08015   3.08508   3.09098
 Alpha virt. eigenvalues --    3.09523   3.09924   3.10445   3.10735   3.11214
 Alpha virt. eigenvalues --    3.11510   3.11843   3.12285   3.12864   3.12984
 Alpha virt. eigenvalues --    3.13576   3.13829   3.13995   3.14244   3.14567
 Alpha virt. eigenvalues --    3.14951   3.15495   3.16190   3.16693   3.17026
 Alpha virt. eigenvalues --    3.17440   3.17743   3.18193   3.18519   3.18806
 Alpha virt. eigenvalues --    3.19062   3.19231   3.19783   3.20015   3.20101
 Alpha virt. eigenvalues --    3.20315   3.20589   3.20944   3.21440   3.21803
 Alpha virt. eigenvalues --    3.22194   3.22364   3.22654   3.23293   3.23781
 Alpha virt. eigenvalues --    3.24186   3.24493   3.24680   3.24899   3.25280
 Alpha virt. eigenvalues --    3.25494   3.25828   3.26269   3.26613   3.27357
 Alpha virt. eigenvalues --    3.27563   3.27855   3.28125   3.28681   3.28961
 Alpha virt. eigenvalues --    3.29263   3.29569   3.29789   3.30160   3.30192
 Alpha virt. eigenvalues --    3.30490   3.30810   3.31008   3.31704   3.31833
 Alpha virt. eigenvalues --    3.32177   3.32263   3.32854   3.33172   3.33932
 Alpha virt. eigenvalues --    3.33978   3.34156   3.34420   3.34628   3.35011
 Alpha virt. eigenvalues --    3.35344   3.35494   3.35884   3.36207   3.36352
 Alpha virt. eigenvalues --    3.36569   3.37110   3.37297   3.37570   3.37840
 Alpha virt. eigenvalues --    3.38128   3.38222   3.38615   3.39280   3.39798
 Alpha virt. eigenvalues --    3.40058   3.40147   3.40277   3.41074   3.41711
 Alpha virt. eigenvalues --    3.42422   3.42458   3.42769   3.43035   3.43552
 Alpha virt. eigenvalues --    3.44043   3.44542   3.44798   3.45083   3.45339
 Alpha virt. eigenvalues --    3.45732   3.46508   3.46647   3.47520   3.47909
 Alpha virt. eigenvalues --    3.48699   3.49315   3.49871   3.50202   3.50945
 Alpha virt. eigenvalues --    3.51162   3.51984   3.52957   3.53230   3.53795
 Alpha virt. eigenvalues --    3.54615   3.54912   3.55816   3.56043   3.56676
 Alpha virt. eigenvalues --    3.57161   3.57464   3.57891   3.58175   3.59099
 Alpha virt. eigenvalues --    3.59477   3.59964   3.60673   3.60954   3.61813
 Alpha virt. eigenvalues --    3.62348   3.62741   3.63489   3.63890   3.64302
 Alpha virt. eigenvalues --    3.64624   3.65139   3.65660   3.65845   3.66926
 Alpha virt. eigenvalues --    3.67587   3.68115   3.68724   3.69014   3.69890
 Alpha virt. eigenvalues --    3.70393   3.70435   3.71019   3.71080   3.71754
 Alpha virt. eigenvalues --    3.72106   3.72862   3.73342   3.73755   3.73895
 Alpha virt. eigenvalues --    3.74182   3.74328   3.74669   3.75067   3.76039
 Alpha virt. eigenvalues --    3.76301   3.77230   3.77592   3.78430   3.79623
 Alpha virt. eigenvalues --    3.79741   3.80284   3.81429   3.81907   3.83006
 Alpha virt. eigenvalues --    3.83608   3.84103   3.84740   3.84996   3.85510
 Alpha virt. eigenvalues --    3.85780   3.86440   3.87135   3.88141   3.88401
 Alpha virt. eigenvalues --    3.88733   3.89497   3.90656   3.91473   3.92087
 Alpha virt. eigenvalues --    3.92458   3.92876   3.93156   3.94136   3.95713
 Alpha virt. eigenvalues --    3.97044   3.97299   3.97753   3.98707   3.99072
 Alpha virt. eigenvalues --    3.99266   4.00189   4.00527   4.01357   4.02739
 Alpha virt. eigenvalues --    4.03082   4.03583   4.04208   4.04457   4.05303
 Alpha virt. eigenvalues --    4.05673   4.05827   4.07216   4.07729   4.09171
 Alpha virt. eigenvalues --    4.09508   4.09892   4.10831   4.12131   4.12614
 Alpha virt. eigenvalues --    4.13555   4.14013   4.14607   4.14944   4.15585
 Alpha virt. eigenvalues --    4.16075   4.17174   4.17878   4.18197   4.18493
 Alpha virt. eigenvalues --    4.19092   4.19772   4.20231   4.21150   4.21794
 Alpha virt. eigenvalues --    4.22491   4.22972   4.23977   4.24571   4.25236
 Alpha virt. eigenvalues --    4.26210   4.26379   4.26910   4.27354   4.28078
 Alpha virt. eigenvalues --    4.28626   4.28743   4.29145   4.29889   4.30770
 Alpha virt. eigenvalues --    4.31929   4.32361   4.32757   4.32984   4.33651
 Alpha virt. eigenvalues --    4.34308   4.34973   4.36151   4.36943   4.37022
 Alpha virt. eigenvalues --    4.38083   4.39194   4.39467   4.40219   4.40372
 Alpha virt. eigenvalues --    4.41293   4.41788   4.42531   4.43028   4.43614
 Alpha virt. eigenvalues --    4.44312   4.44708   4.45418   4.45575   4.45929
 Alpha virt. eigenvalues --    4.46567   4.47355   4.48316   4.49224   4.50416
 Alpha virt. eigenvalues --    4.51419   4.51664   4.52289   4.52870   4.54267
 Alpha virt. eigenvalues --    4.54608   4.55553   4.55777   4.56738   4.57880
 Alpha virt. eigenvalues --    4.58700   4.60853   4.63006   4.63601   4.64417
 Alpha virt. eigenvalues --    4.64993   4.67432   4.67545   4.67956   4.68489
 Alpha virt. eigenvalues --    4.68784   4.71739   4.72103   4.72938   4.74082
 Alpha virt. eigenvalues --    4.74628   4.75100   4.77160   4.78829   4.79109
 Alpha virt. eigenvalues --    4.80599   4.82327   4.82368   4.82615   4.83288
 Alpha virt. eigenvalues --    4.83957   4.84568   4.85211   4.85323   4.86228
 Alpha virt. eigenvalues --    4.88108   4.89295   4.90704   4.91538   4.93389
 Alpha virt. eigenvalues --    4.93729   4.94475   4.94650   4.95216   4.96801
 Alpha virt. eigenvalues --    4.98915   4.99933   5.01374   5.01828   5.03015
 Alpha virt. eigenvalues --    5.03522   5.04390   5.04854   5.06733   5.07135
 Alpha virt. eigenvalues --    5.08273   5.08747   5.12032   5.12432   5.16520
 Alpha virt. eigenvalues --    5.16711   5.18763   5.19708   5.19956   5.21420
 Alpha virt. eigenvalues --    5.22138   5.22822   5.23113   5.23718   5.24701
 Alpha virt. eigenvalues --    5.27603   5.34293   5.35041   5.35543   5.37095
 Alpha virt. eigenvalues --    5.37801   5.38240   5.38483   5.39537   5.41284
 Alpha virt. eigenvalues --    5.47207   5.47727   5.49017   5.49762   5.50157
 Alpha virt. eigenvalues --    5.50691   5.51899   5.59014   5.60182   5.60514
 Alpha virt. eigenvalues --    5.61584   5.62055   5.65434   5.66968   5.67331
 Alpha virt. eigenvalues --    5.68150   5.74345   5.75223   5.75561   5.76104
 Alpha virt. eigenvalues --    5.77994   5.86059   5.87259   5.88628   6.00511
 Alpha virt. eigenvalues --    6.00746   6.02055   6.06578   6.07684   6.10704
 Alpha virt. eigenvalues --    6.11195   6.16595   6.24890   6.32822   6.33129
 Alpha virt. eigenvalues --    6.40129   9.03867   9.18704   9.37329  19.48229
 Alpha virt. eigenvalues --   22.30417  22.34859  22.35882  22.45585  22.46096
 Alpha virt. eigenvalues --   22.52511  22.53135  22.61985  22.62687  22.81576
 Alpha virt. eigenvalues --   22.86708  22.88488  22.92717  22.93781  22.94899
 Alpha virt. eigenvalues --   22.96260  23.03499  23.03820  23.14677  23.26071
 Alpha virt. eigenvalues --   23.30260  23.30543  23.36325  23.42080  23.50113
 Alpha virt. eigenvalues --   23.50585  23.54869  23.74871  23.79328  23.79764
 Alpha virt. eigenvalues --   23.88466  32.81565  32.83289  32.86466  33.01679
          Condensed to atoms (all electrons):
 Mulliken charges:
               1
     1  Fe  -0.172998
     2  N   -0.065343
     3  N   -0.109834
     4  N   -0.079543
     5  N   -0.087917
     6  C    0.238298
     7  C   -0.039372
     8  C   -0.047604
     9  C    0.247762
    10  C    0.266941
    11  C   -0.052351
    12  C    0.036585
    13  C    0.272196
    14  C    0.244054
    15  C   -0.045136
    16  C    0.039585
    17  C    0.246092
    18  C    0.221183
    19  C   -0.024835
    20  C   -0.050192
    21  C    0.256695
    22  C   -0.468392
    23  H    0.141980
    24  C   -0.466817
    25  H    0.135126
    26  C   -0.418381
    27  H    0.122558
    28  C   -0.416500
    29  H    0.124914
    30  C   -0.415314
    31  H    0.132499
    32  H    0.121374
    33  H    0.142753
    34  C   -0.411335
    35  H    0.132689
    36  H    0.140355
    37  H    0.121589
    38  C   -0.441077
    39  H    0.141454
    40  H    0.128251
    41  H    0.157792
    42  C   -0.203780
    43  H    0.113545
    44  C   -0.283205
    45  H    0.139998
    46  H    0.124874
    47  C   -0.448672
    48  H    0.146260
    49  H    0.131406
    50  H    0.157910
    51  C   -0.205282
    52  H    0.112124
    53  C   -0.287182
    54  H    0.141364
    55  H    0.124204
    56  C   -0.416004
    57  H    0.136835
    58  H    0.141754
    59  H    0.121011
    60  C   -0.411859
    61  H    0.122029
    62  H    0.138843
    63  H    0.134095
    64  C   -0.340718
    65  H    0.163817
    66  H    0.155676
    67  H    0.149699
    68  S   -0.024443
    69  H    0.165918
 Sum of Mulliken charges =  -0.00000
 Mulliken charges with hydrogens summed into heavy atoms:
               1
     1  Fe  -0.172998
     2  N   -0.065343
     3  N   -0.109834
     4  N   -0.079543
     5  N   -0.087917
     6  C    0.238298
     7  C   -0.039372
     8  C   -0.047604
     9  C    0.247762
    10  C    0.266941
    11  C   -0.052351
    12  C    0.036585
    13  C    0.272196
    14  C    0.244054
    15  C   -0.045136
    16  C    0.039585
    17  C    0.246092
    18  C    0.221183
    19  C   -0.024835
    20  C   -0.050192
    21  C    0.256695
    22  C   -0.326413
    24  C   -0.331691
    26  C   -0.295823
    28  C   -0.291586
    30  C   -0.018689
    34  C   -0.016703
    38  C   -0.013580
    42  C   -0.090235
    44  C   -0.018333
    47  C   -0.013096
    51  C   -0.093157
    53  C   -0.021614
    56  C   -0.016403
    60  C   -0.016891
    64  C    0.128474
    68  S    0.141475
 Electronic spatial extent (au):  <R**2>=          18137.5137
 Charge=             -0.0000 electrons
 Dipole moment (field-independent basis, Debye):
    X=              2.0737    Y=             -1.3012    Z=              2.1093  Tot=              3.2315
 Quadrupole moment (field-independent basis, Debye-Ang):
   XX=           -211.1563   YY=           -212.8046   ZZ=           -231.6368
   XY=              0.1009   XZ=              2.1369   YZ=             -3.7038
 Traceless Quadrupole moment (field-independent basis, Debye-Ang):
   XX=              7.3763   YY=              5.7280   ZZ=            -13.1042
   XY=              0.1009   XZ=              2.1369   YZ=             -3.7038
 Octapole moment (field-independent basis, Debye-Ang**2):
  XXX=             31.5011  YYY=            -24.8320  ZZZ=             34.2131  XYY=             19.4702
  XXY=              8.7661  XXZ=             -0.9719  XZZ=             21.5556  YZZ=            -16.9244
  YYZ=              4.4205  XYZ=              6.9877
 Hexadecapole moment (field-independent basis, Debye-Ang**3):
 XXXX=         -11497.6351 YYYY=         -11395.6630 ZZZZ=          -1198.9838 XXXY=            -30.3615
 XXXZ=            -24.3435 YYYX=             13.4779 YYYZ=              4.8136 ZZZX=             43.1548
 ZZZY=            -34.1924 XXYY=          -3832.6406 XXZZ=          -2266.9517 YYZZ=          -2271.1739
 XXYZ=            -22.7464 YYXZ=            -81.7114 ZZXY=              1.7230
 N-N= 5.030569249952D+03 E-N=-1.731463799196D+04  KE= 3.071174445966D+03
  Exact polarizability:     693.275       0.542     686.894     -10.032       1.731     253.136
 Approx polarizability:    1276.488       2.604    1260.558     -17.751       2.199     433.791

 ----------------------------------------------------------------------

 Electric dipole moment (input orientation):
 (Debye = 10**-18 statcoulomb cm , SI units = C m)
                  (au)            (Debye)         (10**-30 SI)
   Tot        0.127137D+01      0.323149D+01      0.107791D+02
   x         -0.401735D+00     -0.102111D+01     -0.340605D+01
   y          0.111158D+01      0.282536D+01      0.942440D+01
   z         -0.468362D+00     -0.119046D+01     -0.397094D+01

 Dipole polarizability, Alpha (input orientation).
 (esu units = cm**3 , SI units = C**2 m**2 J**-1)
 Alpha(0;0):
               (au)            (10**-24 esu)      (10**-40 SI)
   iso        0.544435D+03      0.806770D+02      0.897652D+02
   aniso      0.437340D+03      0.648071D+02      0.721076D+02
   xx         0.624806D+03      0.925867D+02      0.103017D+03
   yx         0.135214D+03      0.200366D+02      0.222937D+02
   yy         0.401610D+03      0.595125D+02      0.662166D+02
   zx         0.768517D+02      0.113882D+02      0.126711D+02
   zy        -0.155522D+03     -0.230460D+02     -0.256421D+02
   zz         0.606889D+03      0.899316D+02      0.100062D+03

 First dipole hyperpolarizability, Beta (input orientation).
 ||, _|_  parallel and perpendicular components, (z) with respect to z axis,
 vector components x,y,z.  Values do not include the 1/n! factor of 1/2.
 (esu units = statvolt**-1 cm**4 , SI units = C**3 m**3 J**-2)
 Beta(0;0,0):
               (au)            (10**-30 esu)      (10**-50 SI)
   || (z)     0.813924D+03      0.703167D+01      0.260973D+01
   _|_(z)     0.271308D+03      0.234389D+01      0.869911D+00
   x          0.132925D+04      0.114837D+02      0.426207D+01
   y         -0.160271D+04     -0.138462D+02     -0.513888D+01
   z          0.406962D+04      0.351583D+02      0.130487D+02
   ||         0.914274D+03      0.789861D+01      0.293149D+01
   xxx        0.615724D+03      0.531937D+01      0.197423D+01
   xxy       -0.608254D+02     -0.525484D+00     -0.195028D+00
   yxy       -0.248488D+03     -0.214674D+01     -0.796742D+00
   yyy       -0.302683D+03     -0.261495D+01     -0.970513D+00
   xxz        0.709171D+03      0.612668D+01      0.227386D+01
   yxz        0.387920D+03      0.335132D+01      0.124381D+01
   yyz        0.326716D+03      0.282257D+01      0.104757D+01
   zxz        0.758488D+02      0.655275D+00      0.243199D+00
   zyz       -0.170729D+03     -0.147497D+01     -0.547420D+00
   zzz        0.320653D+03      0.277019D+01      0.102813D+01

 ----------------------------------------------------------------------

 Dipole orientation:
    26         79.38777893       -156.54486723         82.00917842
     7         81.99842713       -154.95475930         84.23984983
     7         82.11455168       -158.61664885         80.35990928
     7         77.09274851       -157.43874432         79.14398403
     7         76.99654697       -153.77555859         83.02504652
     6         81.74627353       -152.92353730         85.80688347
     6         84.04481253       -152.47178271         87.20679784
     6         85.70694779       -154.28663502         86.46709809
     6         84.40981123       -155.79939549         84.60024799
     6         84.44232176       -159.10672762         81.35842782
     6         85.69198103       -161.10659874         80.00411180
     6         84.06314653       -161.83872509         78.13122069
     6         81.83966095       -160.26765700         78.40720335
     6         77.52692304       -159.09764413         77.21976142
     6         75.30905256       -159.41856058         75.67530488
     6         73.48900292       -157.89430012         76.69849734
     6         74.65770270       -156.66350145         78.84892615
     6         74.55614393       -153.52706896         82.24686242
     6         73.30307626       -151.50733661         83.59152290
     6         75.05893209       -150.49839347         85.17468904
     6         77.34576113       -151.94015803         84.79801929
     6         79.56932001       -151.51067658         86.09419305
     1         79.61071656       -149.96469386         87.42231229
     6         85.52055487       -157.79758569         83.34628658
     1         87.40885497       -158.32154412         83.90836107
     6         79.74685700       -160.42493998         76.85915861
     1         79.80293342       -161.76542693         75.32450490
     6         73.42515536       -154.93247898         80.36197627
     1         71.46385753       -154.55077055         79.95777696
     6         88.36310770       -154.71718218         87.29283134
     1         88.59114587       -156.62195299         88.04395302
     1         88.89787924       -153.37660566         88.75443075
     1         89.65763607       -154.49543764         85.70590932
     6         84.38714180       -150.38100357         89.05982984
     1         82.99203157       -150.50942861         90.56923283
     1         84.16175215       -148.55515220         88.13521522
     1         86.25886668       -150.45199970         89.90137934
     6         88.30346246       -162.01961106         80.50896699
     1         88.32733186       -163.33783348         82.09445710
     1         89.54912345       -160.44733406         80.96831264
     1         89.04529769       -162.98238659         78.85114531
     6         84.39728353       -163.74145150         76.19649751
     1         83.54699418       -163.31884443         74.38222060
     6         85.62812097       -165.90944000         76.49238853
     1         86.42872371       -166.46504277         78.27720949
     1         85.82875657       -167.23580872         74.96137495
     6         75.17825941       -160.99469325         73.35091903
     1         74.90636562       -162.98148077         73.82981997
     1         76.91771942       -160.83210231         72.26362799
     1         73.60558055       -160.38727544         72.17434873
     6         70.92140990       -157.46990368         75.85912175
     1         70.20498819       -155.56894983         76.11716604
     6         69.42905216       -159.20936209         74.83432132
     1         70.01349647       -161.14492507         74.61830659
     1         67.53853427       -158.76330226         74.22508759
     6         70.61992530       -150.75933077         83.18968954
     1         69.36692075       -152.36577955         83.49276789
     1         70.33941415       -150.08372716         81.26380240
     1         70.07833522       -149.25969669         84.48505959
     6         74.82020801       -148.34426669         86.97076750
     1         72.92137398       -147.56249620         86.92304585
     1         76.14875979       -146.84782542         86.48214003
     1         75.22393485       -148.95464000         88.89682814
     6         77.22911988       -157.93599475         87.74554086
     1         78.60527526       -156.47175157         88.15435405
     1         77.09824370       -159.29221608         89.27984720
     1         75.39723977       -157.08455572         87.39063627
    16         78.12402226       -159.58636710         84.83839533
     1         80.36082086       -160.37584189         85.72994360

 Electric dipole moment (dipole orientation):
 (Debye = 10**-18 statcoulomb cm , SI units = C m)
                  (au)            (Debye)         (10**-30 SI)
   Tot        0.127137D+01      0.323149D+01      0.107791D+02
   x          0.000000D+00      0.000000D+00      0.000000D+00
   y          0.000000D+00      0.000000D+00      0.000000D+00
   z          0.127137D+01      0.323149D+01      0.107791D+02

 Dipole polarizability, Alpha (dipole orientation).
 (esu units = cm**3 , SI units = C**2 m**2 J**-1)
 Alpha(0;0):
               (au)            (10**-24 esu)      (10**-40 SI)
   iso        0.544435D+03      0.806770D+02      0.897652D+02
   aniso      0.437340D+03      0.648071D+02      0.721076D+02
   xx         0.639353D+03      0.947423D+02      0.105415D+03
   yx        -0.975202D+02     -0.144510D+02     -0.160789D+02
   yy         0.498832D+03      0.739193D+02      0.822463D+02
   zx         0.954446D+02      0.141434D+02      0.157367D+02
   zy         0.195895D+03      0.290287D+02      0.322988D+02
   zz         0.495120D+03      0.733692D+02      0.816343D+02

 First dipole hyperpolarizability, Beta (dipole orientation).
 ||, _|_  parallel and perpendicular components, (z) with respect to z axis,
 vector components x,y,z.  Values do not include the 1/n! factor of 1/2.
 (esu units = statvolt**-1 cm**4 , SI units = C**3 m**3 J**-2)
 Beta(0;0,0):
               (au)            (10**-30 esu)      (10**-50 SI)
   || (z)    -0.664107D+03     -0.573736D+01     -0.212937D+01
   _|_(z)    -0.221369D+03     -0.191245D+01     -0.709789D+00
   x         -0.377266D+03     -0.325929D+01     -0.120965D+01
   y         -0.311916D+04     -0.269471D+02     -0.100011D+02
   z         -0.332053D+04     -0.286868D+02     -0.106468D+02
   ||         0.914274D+03      0.789861D+01      0.293149D+01
   xxx       -0.299181D+03     -0.258469D+01     -0.959283D+00
   xxy       -0.491695D+03     -0.424786D+01     -0.157655D+01
   yxy        0.467233D+03      0.403653D+01      0.149812D+01
   yyy       -0.447162D+03     -0.386313D+01     -0.143376D+01
   xxz       -0.686518D+03     -0.593098D+01     -0.220123D+01
   yxz        0.122035D+03      0.105429D+01      0.391289D+00
   yyz       -0.158780D+03     -0.137173D+01     -0.509104D+00
   zxz       -0.293808D+03     -0.253827D+01     -0.942054D+00
   zyz       -0.100862D+03     -0.871366D+00     -0.323399D+00
   zzz       -0.261546D+03     -0.225956D+01     -0.838612D+00

 ----------------------------------------------------------------------
 Unable to Open any file for archive entry.
 1\1\GINC-BGN1027\SP\RAPFD\def2TZVP\C31H32Fe1N4S1\BECSLEIP\11-Nov-2024\
 0\\# polar def2tzvp apfd int=(grid=ultrafine)\\6hqt_II_S\\0,1\Fe,0,41.
 956978954,82.9872461771,43.1668976656\N,0,42.6947876677,83.9268522606,
 41.5598079556\N,0,43.7917641677,82.9993827951,43.9910166169\N,0,41.405
 7168701,81.6251749493,44.5227829021\N,0,40.318187812,82.5549893351,42.
 0874244345\C,0,42.0920474433,84.1505270747,40.3566977629\C,0,42.937280
 5646,84.9382909706,39.4904321419\C,0,44.0702502846,85.1975065282,40.19
 63825381\C,0,43.9077046206,84.5484996841,41.4771245001\C,0,44.81908038
 21,83.8245274996,43.633872618\C,0,45.8722430265,83.7985215751,44.61421
 3562\C,0,45.4645858367,82.9289584891,45.5904202986\C,0,44.1598227016,8
 2.4521576589,45.1815262282\C,0,42.1176981439,81.1687273824,45.59282617
 28\C,0,41.3222288246,80.2921483031,46.4132456595\C,0,40.0954348448,80.
 2150951471,45.8128836803\C,0,40.1776805081,81.0474379302,44.6287914572
 \C,0,39.2245862652,81.8761783847,42.5322254363\C,0,38.1692441561,81.89
 27140834,41.5451474984\C,0,38.6580844029,82.5771479568,40.4761063334\C
 ,0,39.9969430944,82.9839315218,40.8342119492\C,0,40.8251200414,83.7208
 888408,40.0110128233\H,0,40.4581773395,83.9787186963,39.0298987179\C,0
 ,44.87575998,84.553690732,42.4603526063\H,0,45.7640865182,85.137865457
 7,42.2774513749\C,0,43.4088241233,81.5490626261,45.9060239436\H,0,43.8
 361638532,81.1580940502,46.8160251273\C,0,39.135093562,81.2115054106,4
 3.739033353\H,0,38.1997560172,80.7257995296,43.969178801\C,0,45.281194
 5866,85.9638892976,39.7904675347\H,0,45.4709690539,86.7806485817,40.48
 71922536\H,0,45.1559100593,86.3841625621,38.7958690302\H,0,46.15790742
 15,85.3161822027,39.7807730849\C,0,42.5719869734,85.3438931373,38.1046
 073954\H,0,41.6489242262,85.9231928431,38.1030561078\H,0,42.4209537379
 ,84.4655788152,37.4777751419\H,0,43.3570562993,85.9498093818,37.660422
 8266\C,0,47.1664708275,84.5243531329,44.5015457599\H,0,47.0539036959,8
 5.5683448764,44.7983751086\H,0,47.5327586901,84.5027477698,43.47626038
 31\H,0,47.9104604969,84.0614469184,45.1461338679\C,0,46.1552983115,82.
 5139121832,46.7920497734\H,0,45.9963959857,81.4849508453,47.0923849847
 \C,0,46.9412531453,83.2886640217,47.5316216425\H,0,47.0949155564,84.32
 97505814,47.3068702655\H,0,47.437391446,82.9115268042,48.4102089285\C,
 0,41.8151266092,79.5708650495,47.6174746437\H,0,41.813933547,80.227418
 8429,48.4888092967\H,0,42.8328823465,79.2156748486,47.4633500245\H,0,4
 1.1754676375,78.7166088573,47.8287784606\C,0,38.9308766457,79.45329942
 35,46.2094944181\H,0,38.3331806229,79.0521653267,45.3994680051\C,0,38.
 5559809766,79.2259745884,47.4636132665\H,0,39.0856032721,79.6405374119
 ,48.3035272212\H,0,37.6827747264,78.6379374778,47.6921202487\C,0,36.84
 0260397,81.2454291434,41.7260595785\H,0,36.3465337486,81.6269827845,42
 .6197525318\H,0,36.9525038538,80.1666143974,41.8358240677\H,0,36.19775
 29753,81.436646105,40.8702568775\C,0,38.0105019044,82.8795247388,39.16
 9234903\H,0,37.0034568768,82.4719870121,39.1343448137\H,0,38.584068692
 2,82.4458873046,38.3499786529\H,0,37.9517055427,83.956349012,39.008653
 135\C,0,40.0874498626,85.7355757046,43.0532138254\H,0,40.537745599,85.
 7297644405,42.0659433001\H,0,39.9115883751,86.7482282112,43.4034776712
 \H,0,39.1571717013,85.1767949148,43.0347782765\S,0,41.1888943441,84.87
 15899713,44.2338878184\H,0,42.2214572235,85.7074494277,44.0513307151\\
 Version=ES64L-G16RevC.02\State=1-A\HF=-3080.7688215\RMSD=6.233e-09\Dip
 ole=-0.4017348,1.1115838,-0.4683617\Polar=624.8062516,135.2136517,401.
 6104627,76.8517088,-155.5218236,606.8885854\HyperPolar=615.7236417,-60
 .8254476,-248.487821,-302.6834797,709.1705485,387.9195054,326.7162514,
 75.8488288,-170.7293667,320.6526587\Quadrupole=1.9060333,-1.7945027,-0
 .1115306,4.310241,4.3924899,-6.3539409\PG=C01 [X(C31H32Fe1N4S1)]\\@
 The archive entry for this job was punched.


 IF YOU WISH TO UNDERSTAND THE FRAGRANCE OF THE ROSE, 
 OR THE TENACITY OF THE OAK; 
 IF YOU ARE NOT SATISFIED UNTIL YOU KNOW THE SECRET PATHS 
 BY WHICH THE SUNSHINE AND THE AIR ACHIEVE THESE WONDERS; 
 IF YOU WISH TO SEE THE PATTERN WHICH UNDERLIES ONE LARGE FIELD OF 
 HUMAN EXPERIENCE AND HUMAN MEASUREMENT, THEN TAKE UP CHEMISTRY.

                                         -- C. A. COULSON, 1973.
 Job cpu time:       1 days 11 hours 42 minutes  8.7 seconds.
 Elapsed time:       0 days  0 hours 31 minutes  4.6 seconds.
 File lengths (MBytes):  RWF=    952 Int=      0 D2E=      0 Chk=    122 Scr=      1
 Normal termination of Gaussian 16 at Mon Nov 11 13:22:20 2024.
 Initial command:
 /sw/chem/gaussian/g16_C02/a100/g16/l1.exe "/local/becsleip_8076293/Gau-1245468.inp" -scrdir="/local/becsleip_8076293/"
 Entering Link 1 = /sw/chem/gaussian/g16_C02/a100/g16/l1.exe PID=   1246970.
  
 Copyright (c) 1988-2021, Gaussian, Inc.  All Rights Reserved.
  
 This is part of the Gaussian(R) 16 program.  It is based on
 the Gaussian(R) 09 system (copyright 2009, Gaussian, Inc.),
 the Gaussian(R) 03 system (copyright 2003, Gaussian, Inc.),
 the Gaussian(R) 98 system (copyright 1998, Gaussian, Inc.),
 the Gaussian(R) 94 system (copyright 1995, Gaussian, Inc.),
 the Gaussian 92(TM) system (copyright 1992, Gaussian, Inc.),
 the Gaussian 90(TM) system (copyright 1990, Gaussian, Inc.),
 the Gaussian 88(TM) system (copyright 1988, Gaussian, Inc.),
 the Gaussian 86(TM) system (copyright 1986, Carnegie Mellon
 University), and the Gaussian 82(TM) system (copyright 1983,
 Carnegie Mellon University). Gaussian is a federally registered
 trademark of Gaussian, Inc.
  
 This software contains proprietary and confidential information,
 including trade secrets, belonging to Gaussian, Inc.
  
 This software is provided under written license and may be
 used, copied, transmitted, or stored only in accord with that
 written license.
  
 The following legend is applicable only to US Government
 contracts under FAR:
  
                    RESTRICTED RIGHTS LEGEND
  
 Use, reproduction and disclosure by the US Government is
 subject to restrictions as set forth in subparagraphs (a)
 and (c) of the Commercial Computer Software - Restricted
 Rights clause in FAR 52.227-19.
  
 Gaussian, Inc.
 340 Quinnipiac St., Bldg. 40, Wallingford CT 06492
  
  
 ---------------------------------------------------------------
 Warning -- This program may not be used in any manner that
 competes with the business of Gaussian, Inc. or will provide
 assistance to any competitor of Gaussian, Inc.  The licensee
 of this program is prohibited from giving any competitor of
 Gaussian, Inc. access to this program.  By using this program,
 the user acknowledges that Gaussian, Inc. is engaged in the
 business of creating and licensing software in the field of
 computational chemistry and represents and warrants to the
 licensee that it is not a competitor of Gaussian, Inc. and that
 it will not use this program in any manner prohibited above.
 ---------------------------------------------------------------
  

 Cite this work as:
 Gaussian 16, Revision C.02,
 M. J. Frisch, G. W. Trucks, H. B. Schlegel, G. E. Scuseria, 
 M. A. Robb, J. R. Cheeseman, G. Scalmani, V. Barone, 
 G. A. Petersson, H. Nakatsuji, X. Li, M. Caricato, A. V. Marenich, 
 J. Bloino, B. G. Janesko, R. Gomperts, B. Mennucci, H. P. Hratchian, 
 J. V. Ortiz, A. F. Izmaylov, J. L. Sonnenberg, D. Williams-Young, 
 F. Ding, F. Lipparini, F. Egidi, J. Goings, B. Peng, A. Petrone, 
 T. Henderson, D. Ranasinghe, V. G. Zakrzewski, J. Gao, N. Rega, 
 G. Zheng, W. Liang, M. Hada, M. Ehara, K. Toyota, R. Fukuda, 
 J. Hasegawa, M. Ishida, T. Nakajima, Y. Honda, O. Kitao, H. Nakai, 
 T. Vreven, K. Throssell, J. A. Montgomery, Jr., J. E. Peralta, 
 F. Ogliaro, M. J. Bearpark, J. J. Heyd, E. N. Brothers, K. N. Kudin, 
 V. N. Staroverov, T. A. Keith, R. Kobayashi, J. Normand, 
 K. Raghavachari, A. P. Rendell, J. C. Burant, S. S. Iyengar, 
 J. Tomasi, M. Cossi, J. M. Millam, M. Klene, C. Adamo, R. Cammi, 
 J. W. Ochterski, R. L. Martin, K. Morokuma, O. Farkas, 
 J. B. Foresman, and D. J. Fox, Gaussian, Inc., Wallingford CT, 2019.
 
 ******************************************
 Gaussian 16:  ES64L-G16RevC.02  7-Dec-2021
                11-Nov-2024 
 ******************************************
 %mem=16GB
 %CPU=0-71
 SetSPE:  set environment variable "OMP_PROC_BIND" = "true"
 SetSPE:  set environment variable "OMP_PLACES" = "{0},{1},{2},{3},{4},{5},{6},{7},{8},{9},{10},{11},{12},{13},{14},{15},{16},{17},{18},{19},{20},{21},{22},{23},{24},{25},{26},{27},{28},{29},{30},{31},{32},{33},{34},{35},{36},{37},{38},{39},{40},{41},{42},{43},{44},{45},{46},{47},{48},{49},{50},{51},{52},{53},{54},{55},{56},{57},{58},{59},{60},{61},{62},{63},{64},{65},{66},{67},{68},{69},{70},{71}"
 Will use up to   72 processors via shared memory.
 %gpucpu=0,1,2,3=0,1,2,3
 Will use    4 GPUs:
 Thread  CPU   GPU
      0    0     0
      1    1     1
      2    2     2
      3    3     3
      4    4    -1
      5    5    -1
      6    6    -1
      7    7    -1
      8    8    -1
      9    9    -1
     10   10    -1
     11   11    -1
     12   12    -1
     13   13    -1
     14   14    -1
     15   15    -1
     16   16    -1
     17   17    -1
     18   18    -1
     19   19    -1
     20   20    -1
     21   21    -1
     22   22    -1
     23   23    -1
     24   24    -1
     25   25    -1
     26   26    -1
     27   27    -1
     28   28    -1
     29   29    -1
     30   30    -1
     31   31    -1
     32   32    -1
     33   33    -1
     34   34    -1
     35   35    -1
     36   36    -1
     37   37    -1
     38   38    -1
     39   39    -1
     40   40    -1
     41   41    -1
     42   42    -1
     43   43    -1
     44   44    -1
     45   45    -1
     46   46    -1
     47   47    -1
     48   48    -1
     49   49    -1
     50   50    -1
     51   51    -1
     52   52    -1
     53   53    -1
     54   54    -1
     55   55    -1
     56   56    -1
     57   57    -1
     58   58    -1
     59   59    -1
     60   60    -1
     61   61    -1
     62   62    -1
     63   63    -1
     64   64    -1
     65   65    -1
     66   66    -1
     67   67    -1
     68   68    -1
     69   69    -1
     70   70    -1
     71   71    -1
 SetGPE:  set environment variable "OMP_PROC_BIND" = "true"
 SetGPE:  set environment variable "OMP_PLACES" = "{0},{1},{2},{3},{4},{5},{6},{7},{8},{9},{10},{11},{12},{13},{14},{15},{16},{17},{18},{19},{20},{21},{22},{23},{24},{25},{26},{27},{28},{29},{30},{31},{32},{33},{34},{35},{36},{37},{38},{39},{40},{41},{42},{43},{44},{45},{46},{47},{48},{49},{50},{51},{52},{53},{54},{55},{56},{57},{58},{59},{60},{61},{62},{63},{64},{65},{66},{67},{68},{69},{70},{71}"
 %oldchk=6hqt_II_O.chk
 %chk=6hqt_II_Sn.chk
 Properties for Device   0
 Minimum vector length:                              32
 Maximum vector length:                            1024
 Number of SMPs:                                    108
 Maximum number of threads per SMP:                2048
 Number of ASync Engines:                             5
 Memory:                                           9207742464
 Properties for Device   1
 Minimum vector length:                              32
 Maximum vector length:                            1024
 Number of SMPs:                                    108
 Maximum number of threads per SMP:                2048
 Number of ASync Engines:                             5
 Memory:                                           9207742464
 Properties for Device   2
 Minimum vector length:                              32
 Maximum vector length:                            1024
 Number of SMPs:                                    108
 Maximum number of threads per SMP:                2048
 Number of ASync Engines:                             5
 Memory:                                           9207742464
 Properties for Device   3
 Minimum vector length:                              32
 Maximum vector length:                            1024
 Number of SMPs:                                    108
 Maximum number of threads per SMP:                2048
 Number of ASync Engines:                             5
 Memory:                                           9207742464
   8286968217 words of memory will be used on each GPU.
 Copying data from "6hqt_II_O.chk" to current chk file "6hqt_II_Sn.chk"
 IOpt=  2 FromEx=T IUOpen= 4 IOptOp= 5 NList=   0 IFRang= 0 IUIn= 4 IUOut= 2.
 ----------------------------------------------------------------------
 # apfd/def2TZVP int=(grid=ultrafine) geom=check guess=read pop=nbo scf
 =qc
 ----------------------------------------------------------------------
 1/29=2,38=1,172=1/1;
 2/12=2,40=1/2;
 3/5=44,7=101,11=2,14=-4,25=1,30=1,74=-44,75=-5,116=-2/1,2,3;
 4/5=1/1;
 5/5=2,8=3,38=6/8;
 6/7=2,8=2,9=2,10=2,28=1,40=1/1,7;
 99/5=1,9=1/99;
 -------------
 6hqt_II_S_nbo
 -------------
 Structure from the checkpoint file:  "6hqt_II_Sn.chk"
 Charge =  0 Multiplicity = 1
 Z-Matrix found in chk file.
 Fe,0,41.956978954,82.9872461771,43.1668976656
 N,0,42.6947876677,83.9268522606,41.5598079556
 N,0,43.7917641677,82.9993827951,43.9910166169
[...]
  1064. RY*(  13) C  51                  0.00000     3.38474   
  1065. RY*(  14) C  51                  0.00000     1.44893   
  1066. RY*(  15) C  51                  0.00001     2.49438   
  1067. RY*(  16) C  51                  0.00001     1.80928   
  1068. RY*(  17) C  51                  0.00001     1.79749   
  1069. RY*(  18) C  51                  0.00000    20.95797   
  1070. RY*(  19) C  51                  0.00000     3.21995   
  1071. RY*(  20) C  51                  0.00000     3.41713   
  1072. RY*(  21) C  51                  0.00000     3.24258   
  1073. RY*(  22) C  51                  0.00000     3.77531   
  1074. RY*(  23) C  51                  0.00000     3.68356   
  1075. RY*(  24) C  51                  0.00000     3.72914   
  1076. RY*(  25) C  51                  0.00000     4.00764   
  1077. RY*(  26) C  51                  0.00000     3.94033   
  1078. RY*(   1) H  52                  0.00128     0.68847   
  1079. RY*(   2) H  52                  0.00022     2.25606   
  1080. RY*(   3) H  52                  0.00013     2.33178   
  1081. RY*(   4) H  52                  0.00009     2.71735   
  1082. RY*(   5) H  52                  0.00001     3.11762   
  1083. RY*(   1) C  53                  0.00230     1.27292   
  1084. RY*(   2) C  53                  0.00140     0.95489   
  1085. RY*(   3) C  53                  0.00107     0.63654   
  1086. RY*(   4) C  53                  0.00028     1.01505   
  1087. RY*(   5) C  53                  0.00016     1.05215   
  1088. RY*(   6) C  53                  0.00005     1.48618   
  1089. RY*(   7) C  53                  0.00004     1.52660   
  1090. RY*(   8) C  53                  0.00002     2.08487   
  1091. RY*(   9) C  53                  0.00002     1.47048   
  1092. RY*(  10) C  53                  0.00000     1.73926   
  1093. RY*(  11) C  53                  0.00000     2.81881   
  1094. RY*(  12) C  53                  0.00000     2.05049   
  1095. RY*(  13) C  53                  0.00000     3.06133   
  1096. RY*(  14) C  53                  0.00001     1.40642   
  1097. RY*(  15) C  53                  0.00000     2.95530   
  1098. RY*(  16) C  53                  0.00000    20.99720   
  1099. RY*(  17) C  53                  0.00000     3.01018   
  1100. RY*(  18) C  53                  0.00000     1.60023   
  1101. RY*(  19) C  53                  0.00000     3.00572   
  1102. RY*(  20) C  53                  0.00000     3.42402   
  1103. RY*(  21) C  53                  0.00000     3.25184   
  1104. RY*(  22) C  53                  0.00000     3.44721   
  1105. RY*(  23) C  53                  0.00000     3.48951   
  1106. RY*(  24) C  53                  0.00000     3.53224   
  1107. RY*(  25) C  53                  0.00000     3.66818   
  1108. RY*(  26) C  53                  0.00000     3.80601   
  1109. RY*(   1) H  54                  0.00068     1.04843   
  1110. RY*(   2) H  54                  0.00030     1.64553   
  1111. RY*(   3) H  54                  0.00019     2.17977   
  1112. RY*(   4) H  54                  0.00006     2.38619   
  1113. RY*(   5) H  54                  0.00001     3.11151   
  1114. RY*(   1) H  55                  0.00046     0.73195   
  1115. RY*(   2) H  55                  0.00031     1.81787   
  1116. RY*(   3) H  55                  0.00015     2.12153   
  1117. RY*(   4) H  55                  0.00006     2.49937   
  1118. RY*(   5) H  55                  0.00001     3.06537   
  1119. RY*(   1) C  56                  0.00147     1.22837   
  1120. RY*(   2) C  56                  0.00143     1.25880   
  1121. RY*(   3) C  56                  0.00075     1.37438   
  1122. RY*(   4) C  56                  0.00014     1.08094   
  1123. RY*(   5) C  56                  0.00005     1.99272   
  1124. RY*(   6) C  56                  0.00004     1.55355   
  1125. RY*(   7) C  56                  0.00003     2.07859   
  1126. RY*(   8) C  56                  0.00001     2.69561   
  1127. RY*(   9) C  56                  0.00001     1.75496   
  1128. RY*(  10) C  56                  0.00001     3.10439   
  1129. RY*(  11) C  56                  0.00001     1.68514   
  1130. RY*(  12) C  56                  0.00000     2.50875   
  1131. RY*(  13) C  56                  0.00000     2.31403   
  1132. RY*(  14) C  56                  0.00001     2.65790   
  1133. RY*(  15) C  56                  0.00000     2.32636   
  1134. RY*(  16) C  56                  0.00000    21.14845   
  1135. RY*(  17) C  56                  0.00000     3.06572   
  1136. RY*(  18) C  56                  0.00000     3.24962   
  1137. RY*(  19) C  56                  0.00000     2.62009   
  1138. RY*(  20) C  56                  0.00000     3.21703   
  1139. RY*(  21) C  56                  0.00000     3.58136   
  1140. RY*(  22) C  56                  0.00000     3.90444   
  1141. RY*(  23) C  56                  0.00000     3.33802   
  1142. RY*(  24) C  56                  0.00000     3.40859   
  1143. RY*(  25) C  56                  0.00000     3.68604   
  1144. RY*(  26) C  56                  0.00001     3.66595   
  1145. RY*(   1) H  57                  0.00082     0.92275   
  1146. RY*(   2) H  57                  0.00018     1.82745   
  1147. RY*(   3) H  57                  0.00007     2.14223   
  1148. RY*(   4) H  57                  0.00005     1.98434   
  1149. RY*(   5) H  57                  0.00001     2.96175   
  1150. RY*(   1) H  58                  0.00093     0.93244   
  1151. RY*(   2) H  58                  0.00017     1.80558   
  1152. RY*(   3) H  58                  0.00007     2.13249   
  1153. RY*(   4) H  58                  0.00005     1.98631   
  1154. RY*(   5) H  58                  0.00001     2.97474   
  1155. RY*(   1) H  59                  0.00073     0.86099   
  1156. RY*(   2) H  59                  0.00013     1.70295   
  1157. RY*(   3) H  59                  0.00011     2.14719   
  1158. RY*(   4) H  59                  0.00007     2.08143   
  1159. RY*(   5) H  59                  0.00001     2.99000   
  1160. RY*(   1) C  60                  0.00146     1.29296   
  1161. RY*(   2) C  60                  0.00142     1.20286   
  1162. RY*(   3) C  60                  0.00074     1.37520   
  1163. RY*(   4) C  60                  0.00014     1.09106   
  1164. RY*(   5) C  60                  0.00004     2.00831   
  1165. RY*(   6) C  60                  0.00005     1.53520   
  1166. RY*(   7) C  60                  0.00003     2.33251   
  1167. RY*(   8) C  60                  0.00003     2.17919   
  1168. RY*(   9) C  60                  0.00000    21.08781   
  1169. RY*(  10) C  60                  0.00001     2.57917   
  1170. RY*(  11) C  60                  0.00001     1.76108   
  1171. RY*(  12) C  60                  0.00000     2.07519   
  1172. RY*(  13) C  60                  0.00000     2.41887   
  1173. RY*(  14) C  60                  0.00000     2.97783   
  1174. RY*(  15) C  60                  0.00000     2.30882   
  1175. RY*(  16) C  60                  0.00001     3.53973   
  1176. RY*(  17) C  60                  0.00000     2.72380   
  1177. RY*(  18) C  60                  0.00000     3.21246   
  1178. RY*(  19) C  60                  0.00000     2.29506   
  1179. RY*(  20) C  60                  0.00000     3.25302   
  1180. RY*(  21) C  60                  0.00000     3.64703   
  1181. RY*(  22) C  60                  0.00000     3.71875   
  1182. RY*(  23) C  60                  0.00000     3.32218   
  1183. RY*(  24) C  60                  0.00000     3.42702   
  1184. RY*(  25) C  60                  0.00000     3.44792   
  1185. RY*(  26) C  60                  0.00000     3.72173   
  1186. RY*(   1) H  61                  0.00073     0.85730   
  1187. RY*(   2) H  61                  0.00013     1.70153   
  1188. RY*(   3) H  61                  0.00011     2.15774   
  1189. RY*(   4) H  61                  0.00007     2.07629   
  1190. RY*(   5) H  61                  0.00001     2.99299   
  1191. RY*(   1) H  62                  0.00090     0.91230   
  1192. RY*(   2) H  62                  0.00018     1.80899   
  1193. RY*(   3) H  62                  0.00006     2.07521   
  1194. RY*(   4) H  62                  0.00006     2.05473   
  1195. RY*(   5) H  62                  0.00001     2.97122   
  1196. RY*(   1) H  63                  0.00088     0.90431   
  1197. RY*(   2) H  63                  0.00018     1.82784   
  1198. RY*(   3) H  63                  0.00006     2.07647   
  1199. RY*(   4) H  63                  0.00006     2.04724   
  1200. RY*(   5) H  63                  0.00001     2.96734   
  1276. BD*(   1) N   2 - C   6          0.02639     0.49599   
  1277. BD*(   1) N   2 - C   9          0.02651     0.49441   
  1278. BD*(   2) N   2 - C   9          0.63588     0.00245  1298(v),1289(v),1291(v)
                                                    361(g),142(r),177(g),728(v)
                                                    138(r),139(r),140(r),1275(r)
  1279. BD*(   1) N   3 - C  10          0.02637     0.49396   
  1280. BD*(   1) N   3 - C  13          0.02539     0.50102   
  1281. BD*(   1) N   4 - C  14          0.02640     0.49779   
  1282. BD*(   1) N   4 - C  17          0.02544     0.50096   
  1283. BD*(   2) N   4 - C  17          0.60981     0.00665  1316(v),1309(v),148(v)
                                                    569(g),142(r),229(g),790(v)
                                                    138(r),139(r),140(r),1275(r)
  1284. BD*(   1) N   5 - C  18          0.02595     0.50016   
  1285. BD*(   1) N   5 - C  21          0.02614     0.49818   
  1286. BD*(   2) N   5 - C  21          0.63255     0.00301  1289(v),1318(v),1316(v)
                                                    142(r),673(g),255(g),697(v)
                                                    138(r),139(r),141(r),140(r)
                                                    1275(r)
  1287. BD*(   1) C   6 - C   7          0.03508     0.48968   
  1288. BD*(   1) C   6 - C  22          0.02103     0.57367   
  1289. BD*(   2) C   6 - C  22          0.41597     0.04186  1298(r),1286(v),1291(v)
                                                    1278(v),697(g),1316(r)
                                                    285(g),142(r)
  1290. BD*(   1) C   7 - C   8          0.02272     0.60392   
  1291. BD*(   2) C   7 - C   8          0.25048     0.06551  1289(v),1278(v),1329(v)
                                                    1331(v),1330(v),1327(v)
  1292. BD*(   1) C   7 - C  34          0.01718     0.41138   
  1293. BD*(   1) C   8 - C   9          0.03520     0.48835   
  1294. BD*(   1) C   8 - C  30          0.01713     0.41164   
  1295. BD*(   1) C   9 - C  24          0.02079     0.57641   
  1296. BD*(   1) C  10 - C  11          0.03468     0.49561   
  1297. BD*(   1) C  10 - C  24          0.02125     0.57184   
  1298. BD*(   2) C  10 - C  24          0.42110     0.04182  1289(r),1278(v),1300(v)
                                                    145(v),1305(r),728(g),387(g)
                                                    389(g),142(r)
  1299. BD*(   1) C  11 - C  12          0.02477     0.58835   
  1300. BD*(   2) C  11 - C  12          0.28725     0.06222  1338(v),1305(v),1298(v)
                                                    1333(v),1334(v)
  1301. BD*(   1) C  11 - C  38          0.01638     0.41446   
  1302. BD*(   1) C  12 - C  13          0.03453     0.48579   
  1303. BD*(   1) C  12 - C  42          0.02664     0.49348   
  1304. BD*(   1) C  13 - C  26          0.02064     0.57734   
  1305. BD*(   2) C  13 - C  26          0.40078     0.04518  1300(v),148(v),145(v)
                                                    1298(r),759(g),1338(r)
                                                    467(g),142(r)
  1306. BD*(   1) C  14 - C  15          0.03425     0.49528   
  1307. BD*(   1) C  14 - C  26          0.02105     0.57453   
  1308. BD*(   1) C  15 - C  16          0.02483     0.59198   
  1309. BD*(   2) C  15 - C  16          0.28124     0.06430  1346(v),1283(v),148(v)
                                                    1341(v),1342(v)
  1310. BD*(   1) C  15 - C  47          0.01628     0.41694   
  1311. BD*(   1) C  16 - C  17          0.03473     0.48501   
  1312. BD*(   1) C  16 - C  51          0.02670     0.49425   
  1313. BD*(   1) C  17 - C  28          0.02073     0.57673   
  1314. BD*(   1) C  18 - C  19          0.03549     0.48870   
  1315. BD*(   1) C  18 - C  28          0.02118     0.57655   
  1316. BD*(   2) C  18 - C  28          0.40477     0.04516  1283(v),1318(v),1286(v)
                                                    790(g),1289(r),597(g),595(g)
                                                    142(r)
  1317. BD*(   1) C  19 - C  20          0.02272     0.60377   
  1318. BD*(   2) C  19 - C  20          0.25062     0.06569  1316(v),1286(v),1350(v)
                                                    1354(v),1353(v),1349(v)
  1319. BD*(   1) C  19 - C  56          0.01708     0.41272   
  1320. BD*(   1) C  20 - C  21          0.03523     0.48970   
  1321. BD*(   1) C  20 - C  60          0.01718     0.41168   
  1322. BD*(   1) C  21 - C  22          0.02099     0.57549   
  1323. BD*(   1) C  22 - H  23          0.01253     0.43067   
  1324. BD*(   1) C  24 - H  25          0.01301     0.43033   
  1325. BD*(   1) C  26 - H  27          0.01295     0.43084   
  1326. BD*(   1) C  28 - H  29          0.01285     0.43098   
  1327. BD*(   1) C  30 - H  31          0.01053     0.37551   
  1328. BD*(   1) C  30 - H  32          0.00669     0.38750   
  1329. BD*(   1) C  30 - H  33          0.01099     0.37696   
  1330. BD*(   1) C  34 - H  35          0.01066     0.37553   
  1331. BD*(   1) C  34 - H  36          0.01088     0.37728   
  1332. BD*(   1) C  34 - H  37          0.00664     0.38765   
  1333. BD*(   1) C  38 - H  39          0.01218     0.37511   
  1334. BD*(   1) C  38 - H  40          0.01013     0.38305   
  1335. BD*(   1) C  38 - H  41          0.00819     0.39195   
  1336. BD*(   1) C  42 - H  43          0.02129     0.42149   
  1337. BD*(   1) C  42 - C  44          0.00780     0.62866   
  1338. BD*(   2) C  42 - C  44          0.07340     0.05831   
  1339. BD*(   1) C  44 - H  45          0.01095     0.43291   
  1340. BD*(   1) C  44 - H  46          0.00852     0.43403   
  1341. BD*(   1) C  47 - H  48          0.01208     0.37823   
  1342. BD*(   1) C  47 - H  49          0.00992     0.38539   
  1343. BD*(   1) C  47 - H  50          0.00811     0.39383   
  1344. BD*(   1) C  51 - H  52          0.02134     0.42226   
  1345. BD*(   1) C  51 - C  53          0.00780     0.62985   
  1346. BD*(   2) C  51 - C  53          0.07387     0.05912   
  1347. BD*(   1) C  53 - H  54          0.01093     0.43467   
  1348. BD*(   1) C  53 - H  55          0.00854     0.43481   
  1349. BD*(   1) C  56 - H  57          0.01023     0.37755   
  1350. BD*(   1) C  56 - H  58          0.01110     0.37722   
  1351. BD*(   1) C  56 - H  59          0.00668     0.38786   
  1352. BD*(   1) C  60 - H  61          0.00663     0.38758   
  1353. BD*(   1) C  60 - H  62          0.01075     0.37674   
  1354. BD*(   1) C  60 - H  63          0.01075     0.37527   
       -------------------------------
              Total Lewis  230.21054  ( 97.2730%)
        Valence non-Lewis    5.96440  (  2.5202%)
        Rydberg non-Lewis    0.48942  (  0.2068%)
       -------------------------------
            Total unit  2  236.66436  (100.0000%)
           Charge unit  2   -0.66436
 Unable to Open any file for archive entry.
 1\1\GINC-BGN1027\SP\RAPFD\def2TZVP\C31H32Fe1N4S1\BECSLEIP\11-Nov-2024\
 0\\# apfd/def2TZVP int=(grid=ultrafine) geom=check guess=read pop=nbo 
 scf=qc\\6hqt_II_S_nbo\\0,1\Fe,0,41.956978954,82.9872461771,43.16689766
 56\N,0,42.6947876677,83.9268522606,41.5598079556\N,0,43.7917641677,82.
 9993827951,43.9910166169\N,0,41.4057168701,81.6251749493,44.5227829021
 \N,0,40.318187812,82.5549893351,42.0874244345\C,0,42.0920474433,84.150
 5270747,40.3566977629\C,0,42.9372805646,84.9382909706,39.4904321419\C,
 0,44.0702502846,85.1975065282,40.1963825381\C,0,43.9077046206,84.54849
 96841,41.4771245001\C,0,44.8190803821,83.8245274996,43.633872618\C,0,4
 5.8722430265,83.7985215751,44.614213562\C,0,45.4645858367,82.928958489
 1,45.5904202986\C,0,44.1598227016,82.4521576589,45.1815262282\C,0,42.1
 176981439,81.1687273824,45.5928261728\C,0,41.3222288246,80.2921483031,
 46.4132456595\C,0,40.0954348448,80.2150951471,45.8128836803\C,0,40.177
 6805081,81.0474379302,44.6287914572\C,0,39.2245862652,81.8761783847,42
 .5322254363\C,0,38.1692441561,81.8927140834,41.5451474984\C,0,38.65808
 44029,82.5771479568,40.4761063334\C,0,39.9969430944,82.9839315218,40.8
 342119492\C,0,40.8251200414,83.7208888408,40.0110128233\H,0,40.4581773
 395,83.9787186963,39.0298987179\C,0,44.87575998,84.553690732,42.460352
 6063\H,0,45.7640865182,85.1378654577,42.2774513749\C,0,43.4088241233,8
 1.5490626261,45.9060239436\H,0,43.8361638532,81.1580940502,46.81602512
 73\C,0,39.135093562,81.2115054106,43.739033353\H,0,38.1997560172,80.72
 57995296,43.969178801\C,0,45.2811945866,85.9638892976,39.7904675347\H,
 0,45.4709690539,86.7806485817,40.4871922536\H,0,45.1559100593,86.38416
 25621,38.7958690302\H,0,46.1579074215,85.3161822027,39.7807730849\C,0,
 42.5719869734,85.3438931373,38.1046073954\H,0,41.6489242262,85.9231928
 431,38.1030561078\H,0,42.4209537379,84.4655788152,37.4777751419\H,0,43
 .3570562993,85.9498093818,37.6604228266\C,0,47.1664708275,84.524353132
 9,44.5015457599\H,0,47.0539036959,85.5683448764,44.7983751086\H,0,47.5
 327586901,84.5027477698,43.4762603831\H,0,47.9104604969,84.0614469184,
 45.1461338679\C,0,46.1552983115,82.5139121832,46.7920497734\H,0,45.996
 3959857,81.4849508453,47.0923849847\C,0,46.9412531453,83.2886640217,47
 .5316216425\H,0,47.0949155564,84.3297505814,47.3068702655\H,0,47.43739
 1446,82.9115268042,48.4102089285\C,0,41.8151266092,79.5708650495,47.61
 74746437\H,0,41.813933547,80.2274188429,48.4888092967\H,0,42.832882346
 5,79.2156748486,47.4633500245\H,0,41.1754676375,78.7166088573,47.82877
 84606\C,0,38.9308766457,79.4532994235,46.2094944181\H,0,38.3331806229,
 79.0521653267,45.3994680051\C,0,38.5559809766,79.2259745884,47.4636132
 665\H,0,39.0856032721,79.6405374119,48.3035272212\H,0,37.6827747264,78
 .6379374778,47.6921202487\C,0,36.840260397,81.2454291434,41.7260595785
 \H,0,36.3465337486,81.6269827845,42.6197525318\H,0,36.9525038538,80.16
 66143974,41.8358240677\H,0,36.1977529753,81.436646105,40.8702568775\C,
 0,38.0105019044,82.8795247388,39.169234903\H,0,37.0034568768,82.471987
 0121,39.1343448137\H,0,38.5840686922,82.4458873046,38.3499786529\H,0,3
 7.9517055427,83.956349012,39.008653135\C,0,40.0874498626,85.7355757046
 ,43.0532138254\H,0,40.537745599,85.7297644405,42.0659433001\H,0,39.911
 5883751,86.7482282112,43.4034776712\H,0,39.1571717013,85.1767949148,43
 .0347782765\S,0,41.1888943441,84.8715899713,44.2338878184\H,0,42.22145
 72235,85.7074494277,44.0513307151\\Version=ES64L-G16RevC.02\State=1-A\
 HF=-3080.7688215\RMSD=3.855e-09\Dipole=-0.4017348,1.1115838,-0.4683617
 \Quadrupole=1.9060333,-1.7945027,-0.1115306,4.310241,4.3924899,-6.3539
 409\PG=C01 [X(C31H32Fe1N4S1)]\\@
 The archive entry for this job was punched.


 WHERE THERE IS MUCH DESIRE TO LEARN, THERE OF NECESSITY WILL BE
 MUCH ARGUING, MUCH WRITING, MANY OPINIONS; FOR OPINION IN GOOD MEN
 IS BUT KNOWLEDGE IN THE MAKING. -- JOHN MILTON.
 Job cpu time:       0 days  0 hours 31 minutes 54.3 seconds.
 Elapsed time:       0 days  0 hours  0 minutes 39.3 seconds.
 File lengths (MBytes):  RWF=    624 Int=      0 D2E=      0 Chk=    150 Scr=      1
 Normal termination of Gaussian 16 at Mon Nov 11 13:23:02 2024.
