 Entering Gaussian System, Link 0=g16
 Input=6k9i16re.com
 Output=6k9i16re.log
 Initial command:
 /sw/chem/gaussian/g16_C02/a100/g16/l1.exe "/local/becsleip_8078623/Gau-1686435.inp" -scrdir="/local/becsleip_8078623/"
 Entering Link 1 = /sw/chem/gaussian/g16_C02/a100/g16/l1.exe PID=   1686436.
  
 Copyright (c) 1988-2021, Gaussian, Inc.  All Rights Reserved.
  
 This is part of the Gaussian(R) 16 program.  It is based on
 the Gaussian(R) 09 system (copyright 2009, Gaussian, Inc.),
 the Gaussian(R) 03 system (copyright 2003, Gaussian, Inc.),
 the Gaussian(R) 98 system (copyright 1998, Gaussian, Inc.),
 the Gaussian(R) 94 system (copyright 1995, Gaussian, Inc.),
 the Gaussian 92(TM) system (copyright 1992, Gaussian, Inc.),
 the Gaussian 90(TM) system (copyright 1990, Gaussian, Inc.),
 the Gaussian 88(TM) system (copyright 1988, Gaussian, Inc.),
 the Gaussian 86(TM) system (copyright 1986, Carnegie Mellon
 University), and the Gaussian 82(TM) system (copyright 1983,
 Carnegie Mellon University). Gaussian is a federally registered
 trademark of Gaussian, Inc.
  
 This software contains proprietary and confidential information,
 including trade secrets, belonging to Gaussian, Inc.
  
 This software is provided under written license and may be
 used, copied, transmitted, or stored only in accord with that
 written license.
  
 The following legend is applicable only to US Government
 contracts under FAR:
  
                    RESTRICTED RIGHTS LEGEND
  
 Use, reproduction and disclosure by the US Government is
 subject to restrictions as set forth in subparagraphs (a)
 and (c) of the Commercial Computer Software - Restricted
 Rights clause in FAR 52.227-19.
  
 Gaussian, Inc.
 340 Quinnipiac St., Bldg. 40, Wallingford CT 06492
  
  
 ---------------------------------------------------------------
 Warning -- This program may not be used in any manner that
 competes with the business of Gaussian, Inc. or will provide
 assistance to any competitor of Gaussian, Inc.  The licensee
 of this program is prohibited from giving any competitor of
 Gaussian, Inc. access to this program.  By using this program,
 the user acknowledges that Gaussian, Inc. is engaged in the
 business of creating and licensing software in the field of
 computational chemistry and represents and warrants to the
 licensee that it is not a competitor of Gaussian, Inc. and that
 it will not use this program in any manner prohibited above.
 ---------------------------------------------------------------
  

 Cite this work as:
 Gaussian 16, Revision C.02,
 M. J. Frisch, G. W. Trucks, H. B. Schlegel, G. E. Scuseria, 
 M. A. Robb, J. R. Cheeseman, G. Scalmani, V. Barone, 
 G. A. Petersson, H. Nakatsuji, X. Li, M. Caricato, A. V. Marenich, 
 J. Bloino, B. G. Janesko, R. Gomperts, B. Mennucci, H. P. Hratchian, 
 J. V. Ortiz, A. F. Izmaylov, J. L. Sonnenberg, D. Williams-Young, 
 F. Ding, F. Lipparini, F. Egidi, J. Goings, B. Peng, A. Petrone, 
 T. Henderson, D. Ranasinghe, V. G. Zakrzewski, J. Gao, N. Rega, 
 G. Zheng, W. Liang, M. Hada, M. Ehara, K. Toyota, R. Fukuda, 
 J. Hasegawa, M. Ishida, T. Nakajima, Y. Honda, O. Kitao, H. Nakai, 
 T. Vreven, K. Throssell, J. A. Montgomery, Jr., J. E. Peralta, 
 F. Ogliaro, M. J. Bearpark, J. J. Heyd, E. N. Brothers, K. N. Kudin, 
 V. N. Staroverov, T. A. Keith, R. Kobayashi, J. Normand, 
 K. Raghavachari, A. P. Rendell, J. C. Burant, S. S. Iyengar, 
 J. Tomasi, M. Cossi, J. M. Millam, M. Klene, C. Adamo, R. Cammi, 
 J. W. Ochterski, R. L. Martin, K. Morokuma, O. Farkas, 
 J. B. Foresman, and D. J. Fox, Gaussian, Inc., Wallingford CT, 2019.
 
 ******************************************
 Gaussian 16:  ES64L-G16RevC.02  7-Dec-2021
                13-Nov-2024 
 ******************************************
 %mem=16GB
 %CPU=0-71
 SetSPE:  set environment variable "OMP_PROC_BIND" = "true"
 SetSPE:  set environment variable "OMP_PLACES" = "{0},{1},{2},{3},{4},{5},{6},{7},{8},{9},{10},{11},{12},{13},{14},{15},{16},{17},{18},{19},{20},{21},{22},{23},{24},{25},{26},{27},{28},{29},{30},{31},{32},{33},{34},{35},{36},{37},{38},{39},{40},{41},{42},{43},{44},{45},{46},{47},{48},{49},{50},{51},{52},{53},{54},{55},{56},{57},{58},{59},{60},{61},{62},{63},{64},{65},{66},{67},{68},{69},{70},{71}"
 Will use up to   72 processors via shared memory.
 %gpucpu=0,1,2,3=0,1,2,3
 Will use    4 GPUs:
 Thread  CPU   GPU
      0    0     0
      1    1     1
      2    2     2
      3    3     3
      4    4    -1
      5    5    -1
      6    6    -1
      7    7    -1
      8    8    -1
      9    9    -1
     10   10    -1
     11   11    -1
     12   12    -1
     13   13    -1
     14   14    -1
     15   15    -1
     16   16    -1
     17   17    -1
     18   18    -1
     19   19    -1
     20   20    -1
     21   21    -1
     22   22    -1
     23   23    -1
     24   24    -1
     25   25    -1
     26   26    -1
     27   27    -1
     28   28    -1
     29   29    -1
     30   30    -1
     31   31    -1
     32   32    -1
     33   33    -1
     34   34    -1
     35   35    -1
     36   36    -1
     37   37    -1
     38   38    -1
     39   39    -1
     40   40    -1
     41   41    -1
     42   42    -1
     43   43    -1
     44   44    -1
     45   45    -1
     46   46    -1
     47   47    -1
     48   48    -1
     49   49    -1
     50   50    -1
     51   51    -1
     52   52    -1
     53   53    -1
     54   54    -1
     55   55    -1
     56   56    -1
     57   57    -1
     58   58    -1
     59   59    -1
     60   60    -1
     61   61    -1
     62   62    -1
     63   63    -1
     64   64    -1
     65   65    -1
     66   66    -1
     67   67    -1
     68   68    -1
     69   69    -1
     70   70    -1
     71   71    -1
 SetGPE:  set environment variable "OMP_PROC_BIND" = "true"
 SetGPE:  set environment variable "OMP_PLACES" = "{0},{1},{2},{3},{4},{5},{6},{7},{8},{9},{10},{11},{12},{13},{14},{15},{16},{17},{18},{19},{20},{21},{22},{23},{24},{25},{26},{27},{28},{29},{30},{31},{32},{33},{34},{35},{36},{37},{38},{39},{40},{41},{42},{43},{44},{45},{46},{47},{48},{49},{50},{51},{52},{53},{54},{55},{56},{57},{58},{59},{60},{61},{62},{63},{64},{65},{66},{67},{68},{69},{70},{71}"
 %oldchk=6k9i_III_D.chk
 %chk=6k9i_III_Dre.chk
 Properties for Device   0
 Minimum vector length:                              32
 Maximum vector length:                            1024
 Number of SMPs:                                    108
 Maximum number of threads per SMP:                2048
 Number of ASync Engines:                             5
 Memory:                                           9207742464
 Properties for Device   1
 Minimum vector length:                              32
 Maximum vector length:                            1024
 Number of SMPs:                                    108
 Maximum number of threads per SMP:                2048
 Number of ASync Engines:                             5
 Memory:                                           9207742464
 Properties for Device   2
 Minimum vector length:                              32
 Maximum vector length:                            1024
 Number of SMPs:                                    108
 Maximum number of threads per SMP:                2048
 Number of ASync Engines:                             5
 Memory:                                           9207742464
 Properties for Device   3
 Minimum vector length:                              32
 Maximum vector length:                            1024
 Number of SMPs:                                    108
 Maximum number of threads per SMP:                2048
 Number of ASync Engines:                             5
 Memory:                                           9207742464
   8286968217 words of memory will be used on each GPU.
 Copying data from "6k9i_III_D.chk" to current chk file "6k9i_III_Dre.chk"
 IOpt=  2 FromEx=T IUOpen= 4 IOptOp= 5 NList=   0 IFRang= 0 IUIn= 4 IUOut= 2.
 --------------------------------------
 # apfd/gen scf=maxcycle=999 geom=check
 --------------------------------------
 1/29=2,38=1,172=1/1;
 2/12=2,40=1/2;
 3/5=7,11=2,14=-4,25=1,30=1,74=-44/1,2,3;
 4//1;
 5/5=2,7=999,38=5/2;
 6/7=2,8=2,9=2,10=2,28=1/1;
 99/5=1,9=1/99;
 ----------
 6k9i_III_H
 ----------
 Structure from the checkpoint file:  "6k9i_III_Dre.chk"
 Charge =  1 Multiplicity = 6
 Z-Matrix found in chk file.
 Fe,0,1.1649878783,15.4366065426,-0.0359813979
 N,0,2.7714116259,15.6704813211,1.0750574278
 N,0,0.1307785603,14.7579562869,1.5078493743
 N,0,-0.4492151221,15.204008142,-1.2232910778
 N,0,2.1578032414,16.1361010809,-1.6435967752
 C,0,3.9509764113,16.232433235,0.7141014643
 C,0,4.9078543144,16.1429330679,1.795619087
 C,0,4.2779705655,15.4940577923,2.8105254863
 C,0,2.9333980725,15.2253876939,2.3475568847
 C,0,0.6393550249,14.4340764897,2.7264553061
 C,0,-0.4048765048,13.9468237961,3.5930904919
 C,0,-1.5615252958,14.0043465069,2.8741913607
 C,0,-1.2026486518,14.5027418357,1.5677211804
 C,0,-1.7081536511,14.9258402071,-0.7956582522
 C,0,-2.6391791896,14.9318804519,-1.906900046
 C,0,-1.8897296784,15.1759792101,-3.0268866098
 C,0,-0.5393638324,15.3808530081,-2.5694380741
 C,0,1.7426722244,16.1835516809,-2.9348735221
 C,0,2.7233127444,16.8526198606,-3.7668251295
 C,0,3.7698317493,17.1607541094,-2.9384787928
 C,0,3.4042628849,16.6828966247,-1.6298284837
 C,0,4.2272004219,16.7822528681,-0.5211473998
 H,0,5.1978183904,17.2323584615,-0.6616147606
 C,0,1.9572945941,14.6152323571,3.1122932972
 H,0,2.2321230843,14.3027978187,4.1090273975
 C,0,-2.075492269,14.62170757,0.5017594791
 H,0,-3.1173936224,14.4005065529,0.6763135551
 C,0,0.504199083,15.7699876352,-3.3905006538
 H,0,0.3111265219,15.8345280175,-4.4503817963
 C,0,6.3052425006,16.6558303124,1.7217154913
 H,0,6.3120326867,17.7236597037,1.502592906
 H,0,6.8564369135,16.1455829434,0.9307884598
 H,0,6.8288279897,16.4946795129,2.6609738832
 C,0,4.7990329604,15.1078869548,4.1520013202
 H,0,4.7300196549,14.0288926676,4.2899925437
 H,0,4.2221659901,15.5870022407,4.9440553794
 H,0,5.8403500694,15.4009560093,4.2619643569
 C,0,5.0116567968,17.9142223276,-3.2633997671
 H,0,5.8498726906,17.2340668081,-3.424418049
 H,0,5.2770356858,18.5896622691,-2.4514775821
 H,0,4.8661115414,18.4991190696,-4.169405709
 C,0,2.5658628426,17.1136309095,-5.1805436807
 H,0,1.5527511441,17.3145457586,-5.5116612831
 C,0,3.5469702227,17.1190512955,-6.0772407633
 H,0,4.5634451733,16.8808024898,-5.8169748334
 H,0,3.3600447564,17.338410329,-7.1153086966
 C,0,-2.350696727,15.3331052171,-4.4344375293
 H,0,-2.1465326059,14.4307760629,-5.0141257872
 H,0,-1.8407140639,16.1654308455,-4.9175047874
 H,0,-3.4220636866,15.5218539311,-4.4574925322
 C,0,-4.063594481,14.7076504968,-1.7918369476
 H,0,-4.5264113209,15.1011804817,-0.8939359056
 C,0,-4.8183067104,14.0723801952,-2.6819503294
 H,0,-4.4033125435,13.6213131415,-3.5664233123
 H,0,-5.8800120923,13.9571071207,-2.5408043131
 C,0,-2.9204480793,13.6114260849,3.3458649165
 H,0,-2.9424527612,12.5492561335,3.5959713725
 H,0,-3.6764505786,13.7977283299,2.5887054957
 H,0,-3.186674191,14.1702181699,4.2437207284
 C,0,-0.2433945134,13.4836822942,5.0003862007
 H,0,-0.9830560942,12.717474886,5.2301239881
 H,0,-0.3882670721,14.3120730782,5.698223141
 H,0,0.7484091466,13.0680458803,5.1657292125
 C,0,-0.6137892441,20.7059090689,-0.2501006993
 H,0,0.1138946155,21.4865480955,-0.0282965423
 H,0,-1.5504135298,20.9621720338,0.2448960086
 H,0,-0.7818895685,20.6819416888,-1.3223301541
 N,0,0.1806527177,19.1145438234,1.5142522175
 H,0,0.1004862954,19.7626771042,2.2804790661
 C,0,-0.1194845004,19.3814926634,0.203941021
 C,0,0.6083296571,17.8334341385,1.5839287714
 H,0,0.9115931309,17.3487035685,2.4888063327
 N,0,0.5961712476,17.2749679423,0.3985971187
 C,0,0.145512473,18.2238862697,-0.4698418746
 H,0,0.0422460923,18.0094205971,-1.5129168075
 C,0,0.2987728576,11.3084669438,0.7863645943
 H,0,1.1803813177,10.7064886141,0.9939814329
 H,0,-0.5690787412,10.6540932714,0.7277013965
 H,0,0.1538528568,12.002506421,1.6086667951
 C,0,0.4668365529,12.060545855,-0.5198301816
 H,0,-0.4089781401,12.6690996729,-0.7373422169
 H,0,0.6505620631,11.3691228998,-1.3416802939
 S,0,1.9270157026,13.1781590213,-0.4348309221
 C,0,2.4427526791,13.0725681734,-2.1757594698
 H,0,3.2879892942,13.7421763741,-2.29271472
 H,0,1.6304137691,13.3922109553,-2.8206712503
 H,0,2.7424895814,12.0514606278,-2.3973262312
 Recover connectivity data from disk.
 Stoichiometry    C37H42FeN6S(1+,6)
 Framework group  C1[X(C37H42FeN6S)]
 Deg. of freedom   255
 Full point group                 C1      NOp   1
 Largest Abelian subgroup         C1      NOp   1
 Largest concise Abelian subgroup C1      NOp   1
                         Standard orientation:                         
 ---------------------------------------------------------------------
 Center     Atomic      Atomic             Coordinates (Angstroms)
 Number     Number       Type             X           Y           Z
 ---------------------------------------------------------------------
      1         26           0       -0.086903   -0.239123   -0.097453
      2          7           0       -0.011573   -2.204808   -0.087002
      3          7           0       -2.057000   -0.260337    0.080974
      4          7           0       -0.108344    1.777844   -0.126495
      5          7           0        1.919120   -0.149059   -0.262261
      6          6           0        1.093859   -2.989189   -0.072264
      7          6           0        0.725916   -4.386334   -0.149132
      8          6           0       -0.630572   -4.420428   -0.230407
      9          6           0       -1.075353   -3.044669   -0.168304
     10          6           0       -2.853882   -1.357281   -0.020228
     11          6           0       -4.238876   -0.988011    0.135722
     12          6           0       -4.257524    0.357182    0.354968
     13          6           0       -2.882966    0.795443    0.304256
     14          6           0       -1.182681    2.558429    0.159262
     15          6           0       -0.815025    3.960677    0.143982
     16          6           0        0.507801    4.001015   -0.208344
     17          6           0        0.932409    2.630136   -0.331301
     18          6           0        2.699640    0.943259   -0.461289
     19          6           0        4.104170    0.586503   -0.422905
     20          6           0        4.141255   -0.771240   -0.245522
     21          6           0        2.770455   -1.207450   -0.173526
     22          6           0        2.395243   -2.532060   -0.028966
     23          1           0        3.182071   -3.269038    0.017830
     24          6           0       -2.401978   -2.657485   -0.174840
     25          1           0       -3.145202   -3.437186   -0.254267
     26          6           0       -2.471768    2.113292    0.384728
     27          1           0       -3.222386    2.864682    0.576934
     28          6           0        2.240960    2.244001   -0.561926
     29          1           0        2.966962    3.019990   -0.750479
     30          6           0        1.704671   -5.510159   -0.165741
     31          1           0        2.328515   -5.490247    0.727983
     32          1           0        2.358453   -5.432429   -1.035373
     33          1           0        1.194563   -6.469531   -0.207150
     34          6           0       -1.540006   -5.594054   -0.355791
     35          1           0       -2.139065   -5.515052   -1.262940
     36          1           0       -2.220865   -5.648878    0.494563
     37          1           0       -0.972614   -6.520567   -0.400092
     38          6           0        5.332779   -1.645493   -0.068412
     39          1           0        5.585745   -2.153838   -1.000473
     40          1           0        5.145318   -2.404800    0.689331
     41          1           0        6.189371   -1.049582    0.240254
     42          6           0        5.197669    1.524410   -0.549819
     43          1           0        5.021440    2.511058   -0.135247
     44          6           0        6.367703    1.270569   -1.127099
     45          1           0        6.582883    0.326859   -1.597026
     46          1           0        7.146526    2.013572   -1.172109
     47          6           0        1.399343    5.188141   -0.327779
     48          1           0        1.552225    5.456590   -1.374909
     49          1           0        2.374420    4.985084    0.112897
     50          1           0        0.957266    6.040056    0.184855
     51          6           0       -1.715058    5.053487    0.440938
     52          1           0       -2.454445    4.853130    1.208046
     53          6           0       -1.698366    6.246485   -0.143817
     54          1           0       -1.017729    6.482759   -0.943117
     55          1           0       -2.388657    7.023141    0.140320
     56          6           0       -5.464313    1.202857    0.583066
     57          1           0       -6.116672    1.176201   -0.291554
     58          1           0       -5.197326    2.237739    0.776136
     59          1           0       -6.034026    0.829152    1.434560
     60          6           0       -5.411820   -1.905561    0.077735
     61          1           0       -6.284228   -1.375228   -0.302534
     62          1           0       -5.655093   -2.284185    1.073555
     63          1           0       -5.213541   -2.755951   -0.571332
     64          6           0        1.427057    0.794598    5.157525
     65          1           0        1.960573    0.004922    5.686571
     66          1           0        0.692763    1.225248    5.838195
     67          1           0        2.137129    1.566593    4.877649
     68          7           0       -0.176642   -0.730252    3.983001
     69          1           0       -0.515609   -1.183499    4.815632
     70          6           0        0.769840    0.259913    3.938203
     71          6           0       -0.560369   -0.988183    2.712084
     72          1           0       -1.293857   -1.719346    2.441657
     73          7           0        0.085013   -0.221588    1.867775
     74          6           0        0.915038    0.560438    2.614246
     75          1           0        1.554565    1.281954    2.150473
     76          6           0       -2.903387    0.370251   -3.285587
     77          1           0       -2.871944   -0.398835   -4.053854
     78          1           0       -3.576125    1.163009   -3.607721
     79          1           0       -3.297493   -0.068929   -2.374172
     80          6           0       -1.516897    0.936113   -3.045884
     81          1           0       -1.535183    1.705784   -2.276487
     82          1           0       -1.102456    1.343737   -3.967480
     83         16           0       -0.367618   -0.391227   -2.492952
     84          6           0        1.154319    0.238082   -3.264732
     85          1           0        1.954017   -0.434040   -2.972818
     86          1           0        1.365566    1.238468   -2.900617
     87          1           0        1.035781    0.229563   -4.345227
 ---------------------------------------------------------------------
 Rotational constants (GHZ):           0.0835867           0.0808516           0.0581058
 General basis read from cards:  (5D, 7F)
 There are   784 symmetry adapted cartesian basis functions of A   symmetry.
 There are   737 symmetry adapted basis functions of A   symmetry.
   737 basis functions,  1510 primitive gaussians,   784 cartesian basis functions
   176 alpha electrons      171 beta electrons
       nuclear repulsion energy      7154.1723267384 Hartrees.
 NAtoms=   87 NActive=   87 NUniq=   87 SFac= 1.00D+00 NAtFMM=   60 NAOKFM=T Big=T
 Integral buffers will be    131072 words long.
 Raffenetti 2 integral format.
 Two-electron integral symmetry is turned on.
 R6APFD:  NTU= -4 IXU= 1 FactS= 1.050
 Nuclear repulsion after empirical dispersion term =     7153.9885064314 Hartrees.
 One-electron integrals computed using PRISM.
 NBasis=   737 RedAO= T EigKep=  2.58D-04  NBF=   737
 NBsUse=   737 1.00D-06 EigRej= -1.00D+00 NBFU=   737
 ExpMin= 4.20D-02 ExpMax= 3.01D+05 ExpMxC= 3.30D+03 IAcc=3 IRadAn=         5 AccDes= 0.00D+00
 Harris functional with IExCor= 3731 and IRadAn=       5 diagonalized for initial guess.
 HarFok:  IExCor= 3731 AccDes= 0.00D+00 IRadAn=         5 IDoV= 1 UseB2=F ITyADJ=14
 ICtDFT=  3500011 ScaDFX=  1.000000  1.000000  1.000000  1.000000
 FoFCou: FMM=F IPFlag=           0 FMFlag=      100000 FMFlg1=        2001
         NFxFlg=           0 DoJE=T BraDBF=F KetDBF=T FulRan=T
         wScrn=  0.000000 ICntrl=       500 IOpCl=  0 I1Cent=   200000004 NGrid=           0
         NMat0=    1 NMatS0=      1 NMatT0=    0 NMatD0=    1 NMtDS0=    0 NMtDT0=    0
 Petite list used in FoFCou.
 Initial guess <Sx>= 0.0000 <Sy>= 0.0000 <Sz>= 2.5000 <S**2>= 8.7500 S= 2.5000
 Requested convergence on RMS density matrix=1.00D-08 within 999 cycles.
 Requested convergence on MAX density matrix=1.00D-06.
 Requested convergence on             energy=1.00D-06.
 No special actions if energy rises.
 EnCoef did   100 forward-backward iterations
 EnCoef did   100 forward-backward iterations
 EnCoef did   100 forward-backward iterations
 EnCoef did   100 forward-backward iterations
 EnCoef did     4 forward-backward iterations
 EnCoef did     8 forward-backward iterations
 Restarting incremental Fock formation.
 SCF Done:  E(UAPFD) =  -3423.99048136     A.U. after   30 cycles
            NFock= 30  Conv=0.98D-08     -V/T= 2.0032
 <Sx>= 0.0000 <Sy>= 0.0000 <Sz>= 2.5000 <S**2>= 8.7595 S= 2.5016
 <L.S>=  0.00000000000    
 Annihilation of the first spin contaminant:
 S**2 before annihilation     8.7595,   after     8.7500

 **********************************************************************

            Population analysis using the SCF Density.

 **********************************************************************

 Orbital symmetries:
 Alpha Orbitals:
       Occupied  (A) (A) (A) (A) (A) (A) (A) (A) (A) (A) (A) (A)
                 (A) (A) (A) (A) (A) (A) (A) (A) (A) (A) (A) (A)
                 (A) (A) (A) (A) (A) (A) (A) (A) (A) (A) (A) (A)
                 (A) (A) (A) (A) (A) (A) (A) (A) (A) (A) (A) (A)
                 (A) (A) (A) (A) (A) (A) (A) (A) (A) (A) (A) (A)
                 (A) (A) (A) (A) (A) (A) (A) (A) (A) (A) (A) (A)
                 (A) (A) (A) (A) (A) (A) (A) (A) (A) (A) (A) (A)
                 (A) (A) (A) (A) (A) (A) (A) (A) (A) (A) (A) (A)
                 (A) (A) (A) (A) (A) (A) (A) (A) (A) (A) (A) (A)
                 (A) (A) (A) (A) (A) (A) (A) (A) (A) (A) (A) (A)
                 (A) (A) (A) (A) (A) (A) (A) (A) (A) (A) (A) (A)
                 (A) (A) (A) (A) (A) (A) (A) (A) (A) (A) (A) (A)
                 (A) (A) (A) (A) (A) (A) (A) (A) (A) (A) (A) (A)
                 (A) (A) (A) (A) (A) (A) (A) (A) (A) (A) (A) (A)
                 (A) (A) (A) (A) (A) (A) (A) (A)
       Virtual   (A) (A) (A) (A) (A) (A) (A) (A) (A) (A) (A) (A)
                 (A) (A) (A) (A) (A) (A) (A) (A) (A) (A) (A) (A)
                 (A) (A) (A) (A) (A) (A) (A) (A) (A) (A) (A) (A)
                 (A) (A) (A) (A) (A) (A) (A) (A) (A) (A) (A) (A)
                 (A) (A) (A) (A) (A) (A) (A) (A) (A) (A) (A) (A)
                 (A) (A) (A) (A) (A) (A) (A) (A) (A) (A) (A) (A)
                 (A) (A) (A) (A) (A) (A) (A) (A) (A) (A) (A) (A)
                 (A) (A) (A) (A) (A) (A) (A) (A) (A) (A) (A) (A)
                 (A) (A) (A) (A) (A) (A) (A) (A) (A) (A) (A) (A)
                 (A) (A) (A) (A) (A) (A) (A) (A) (A) (A) (A) (A)
                 (A) (A) (A) (A) (A) (A) (A) (A) (A) (A) (A) (A)
                 (A) (A) (A) (A) (A) (A) (A) (A) (A) (A) (A) (A)
                 (A) (A) (A) (A) (A) (A) (A) (A) (A) (A) (A) (A)
                 (A) (A) (A) (A) (A) (A) (A) (A) (A) (A) (A) (A)
                 (A) (A) (A) (A) (A) (A) (A) (A) (A) (A) (A) (A)
                 (A) (A) (A) (A) (A) (A) (A) (A) (A) (A) (A) (A)
                 (A) (A) (A) (A) (A) (A) (A) (A) (A) (A) (A) (A)
                 (A) (A) (A) (A) (A) (A) (A) (A) (A) (A) (A) (A)
                 (A) (A) (A) (A) (A) (A) (A) (A) (A) (A) (A) (A)
                 (A) (A) (A) (A) (A) (A) (A) (A) (A) (A) (A) (A)
                 (A) (A) (A) (A) (A) (A) (A) (A) (A) (A) (A) (A)
                 (A) (A) (A) (A) (A) (A) (A) (A) (A) (A) (A) (A)
                 (A) (A) (A) (A) (A) (A) (A) (A) (A) (A) (A) (A)
                 (A) (A) (A) (A) (A) (A) (A) (A) (A) (A) (A) (A)
                 (A) (A) (A) (A) (A) (A) (A) (A) (A) (A) (A) (A)
                 (A) (A) (A) (A) (A) (A) (A) (A) (A) (A) (A) (A)
                 (A) (A) (A) (A) (A) (A) (A) (A) (A) (A) (A) (A)
                 (A) (A) (A) (A) (A) (A) (A) (A) (A) (A) (A) (A)
                 (A) (A) (A) (A) (A) (A) (A) (A) (A) (A) (A) (A)
                 (A) (A) (A) (A) (A) (A) (A) (A) (A) (A) (A) (A)
                 (A) (A) (A) (A) (A) (A) (A) (A) (A) (A) (A) (A)
                 (A) (A) (A) (A) (A) (A) (A) (A) (A) (A) (A) (A)
                 (A) (A) (A) (A) (A) (A) (A) (A) (A) (A) (A) (A)
                 (A) (A) (A) (A) (A) (A) (A) (A) (A) (A) (A) (A)
                 (A) (A) (A) (A) (A) (A) (A) (A) (A) (A) (A) (A)
                 (A) (A) (A) (A) (A) (A) (A) (A) (A) (A) (A) (A)
                 (A) (A) (A) (A) (A) (A) (A) (A) (A) (A) (A) (A)
                 (A) (A) (A) (A) (A) (A) (A) (A) (A) (A) (A) (A)
                 (A) (A) (A) (A) (A) (A) (A) (A) (A) (A) (A) (A)
                 (A) (A) (A) (A) (A) (A) (A) (A) (A) (A) (A) (A)
                 (A) (A) (A) (A) (A) (A) (A) (A) (A) (A) (A) (A)
                 (A) (A) (A) (A) (A) (A) (A) (A) (A) (A) (A) (A)
                 (A) (A) (A) (A) (A) (A) (A) (A) (A) (A) (A) (A)
                 (A) (A) (A) (A) (A) (A) (A) (A) (A) (A) (A) (A)
                 (A) (A) (A) (A) (A) (A) (A) (A) (A) (A) (A) (A)
                 (A) (A) (A) (A) (A) (A) (A) (A) (A) (A) (A) (A)
                 (A) (A) (A) (A) (A) (A) (A) (A) (A)
 Beta  Orbitals:
       Occupied  (A) (A) (A) (A) (A) (A) (A) (A) (A) (A) (A) (A)
                 (A) (A) (A) (A) (A) (A) (A) (A) (A) (A) (A) (A)
                 (A) (A) (A) (A) (A) (A) (A) (A) (A) (A) (A) (A)
                 (A) (A) (A) (A) (A) (A) (A) (A) (A) (A) (A) (A)
                 (A) (A) (A) (A) (A) (A) (A) (A) (A) (A) (A) (A)
                 (A) (A) (A) (A) (A) (A) (A) (A) (A) (A) (A) (A)
                 (A) (A) (A) (A) (A) (A) (A) (A) (A) (A) (A) (A)
                 (A) (A) (A) (A) (A) (A) (A) (A) (A) (A) (A) (A)
                 (A) (A) (A) (A) (A) (A) (A) (A) (A) (A) (A) (A)
                 (A) (A) (A) (A) (A) (A) (A) (A) (A) (A) (A) (A)
                 (A) (A) (A) (A) (A) (A) (A) (A) (A) (A) (A) (A)
                 (A) (A) (A) (A) (A) (A) (A) (A) (A) (A) (A) (A)
                 (A) (A) (A) (A) (A) (A) (A) (A) (A) (A) (A) (A)
                 (A) (A) (A) (A) (A) (A) (A) (A) (A) (A) (A) (A)
                 (A) (A) (A)
       Virtual   (A) (A) (A) (A) (A) (A) (A) (A) (A) (A) (A) (A)
                 (A) (A) (A) (A) (A) (A) (A) (A) (A) (A) (A) (A)
                 (A) (A) (A) (A) (A) (A) (A) (A) (A) (A) (A) (A)
                 (A) (A) (A) (A) (A) (A) (A) (A) (A) (A) (A) (A)
                 (A) (A) (A) (A) (A) (A) (A) (A) (A) (A) (A) (A)
                 (A) (A) (A) (A) (A) (A) (A) (A) (A) (A) (A) (A)
                 (A) (A) (A) (A) (A) (A) (A) (A) (A) (A) (A) (A)
                 (A) (A) (A) (A) (A) (A) (A) (A) (A) (A) (A) (A)
                 (A) (A) (A) (A) (A) (A) (A) (A) (A) (A) (A) (A)
                 (A) (A) (A) (A) (A) (A) (A) (A) (A) (A) (A) (A)
                 (A) (A) (A) (A) (A) (A) (A) (A) (A) (A) (A) (A)
                 (A) (A) (A) (A) (A) (A) (A) (A) (A) (A) (A) (A)
                 (A) (A) (A) (A) (A) (A) (A) (A) (A) (A) (A) (A)
                 (A) (A) (A) (A) (A) (A) (A) (A) (A) (A) (A) (A)
                 (A) (A) (A) (A) (A) (A) (A) (A) (A) (A) (A) (A)
                 (A) (A) (A) (A) (A) (A) (A) (A) (A) (A) (A) (A)
                 (A) (A) (A) (A) (A) (A) (A) (A) (A) (A) (A) (A)
                 (A) (A) (A) (A) (A) (A) (A) (A) (A) (A) (A) (A)
                 (A) (A) (A) (A) (A) (A) (A) (A) (A) (A) (A) (A)
                 (A) (A) (A) (A) (A) (A) (A) (A) (A) (A) (A) (A)
                 (A) (A) (A) (A) (A) (A) (A) (A) (A) (A) (A) (A)
                 (A) (A) (A) (A) (A) (A) (A) (A) (A) (A) (A) (A)
                 (A) (A) (A) (A) (A) (A) (A) (A) (A) (A) (A) (A)
                 (A) (A) (A) (A) (A) (A) (A) (A) (A) (A) (A) (A)
                 (A) (A) (A) (A) (A) (A) (A) (A) (A) (A) (A) (A)
                 (A) (A) (A) (A) (A) (A) (A) (A) (A) (A) (A) (A)
                 (A) (A) (A) (A) (A) (A) (A) (A) (A) (A) (A) (A)
                 (A) (A) (A) (A) (A) (A) (A) (A) (A) (A) (A) (A)
                 (A) (A) (A) (A) (A) (A) (A) (A) (A) (A) (A) (A)
                 (A) (A) (A) (A) (A) (A) (A) (A) (A) (A) (A) (A)
                 (A) (A) (A) (A) (A) (A) (A) (A) (A) (A) (A) (A)
                 (A) (A) (A) (A) (A) (A) (A) (A) (A) (A) (A) (A)
                 (A) (A) (A) (A) (A) (A) (A) (A) (A) (A) (A) (A)
                 (A) (A) (A) (A) (A) (A) (A) (A) (A) (A) (A) (A)
                 (A) (A) (A) (A) (A) (A) (A) (A) (A) (A) (A) (A)
                 (A) (A) (A) (A) (A) (A) (A) (A) (A) (A) (A) (A)
                 (A) (A) (A) (A) (A) (A) (A) (A) (A) (A) (A) (A)
                 (A) (A) (A) (A) (A) (A) (A) (A) (A) (A) (A) (A)
                 (A) (A) (A) (A) (A) (A) (A) (A) (A) (A) (A) (A)
                 (A) (A) (A) (A) (A) (A) (A) (A) (A) (A) (A) (A)
                 (A) (A) (A) (A) (A) (A) (A) (A) (A) (A) (A) (A)
                 (A) (A) (A) (A) (A) (A) (A) (A) (A) (A) (A) (A)
                 (A) (A) (A) (A) (A) (A) (A) (A) (A) (A) (A) (A)
                 (A) (A) (A) (A) (A) (A) (A) (A) (A) (A) (A) (A)
                 (A) (A) (A) (A) (A) (A) (A) (A) (A) (A) (A) (A)
                 (A) (A) (A) (A) (A) (A) (A) (A) (A) (A) (A) (A)
                 (A) (A) (A) (A) (A) (A) (A) (A) (A) (A) (A) (A)
                 (A) (A)
 The electronic state is 6-A.
 Alpha  occ. eigenvalues -- -256.39795 -89.04676 -30.30927 -26.13854 -26.13845
 Alpha  occ. eigenvalues --  -26.13806 -14.53298 -14.48081 -14.45684 -14.45649
 Alpha  occ. eigenvalues --  -14.45628 -14.45550 -10.37276 -10.34527 -10.33173
 Alpha  occ. eigenvalues --  -10.33136 -10.33112 -10.33086 -10.33015 -10.32980
 Alpha  occ. eigenvalues --  -10.32976 -10.32893 -10.31885 -10.31715 -10.31030
 Alpha  occ. eigenvalues --  -10.30160 -10.30156 -10.30071 -10.30071 -10.30023
 Alpha  occ. eigenvalues --  -10.29975 -10.29958 -10.29937 -10.29932 -10.29868
 Alpha  occ. eigenvalues --  -10.29857 -10.29836 -10.29816 -10.29229 -10.29206
 Alpha  occ. eigenvalues --  -10.28249 -10.28226 -10.28038 -10.27993 -10.27934
 Alpha  occ. eigenvalues --  -10.27925 -10.27859 -10.27828 -10.27218  -8.07711
 Alpha  occ. eigenvalues --   -6.02303  -6.02027  -6.01515  -3.76558  -2.53236
 Alpha  occ. eigenvalues --   -2.53204  -2.53033  -1.16014  -1.08793  -1.07752
 Alpha  occ. eigenvalues --   -1.07690  -1.06730  -1.01863  -0.93232  -0.92447
 Alpha  occ. eigenvalues --   -0.91878  -0.91668  -0.91295  -0.90890  -0.90418
 Alpha  occ. eigenvalues --   -0.90352  -0.89921  -0.86464  -0.85276  -0.84938
 Alpha  occ. eigenvalues --   -0.84791  -0.84010  -0.82702  -0.81529  -0.80974
 Alpha  occ. eigenvalues --   -0.80006  -0.78475  -0.78170  -0.78023  -0.75469
 Alpha  occ. eigenvalues --   -0.75196  -0.74857  -0.74796  -0.71617  -0.70487
 Alpha  occ. eigenvalues --   -0.69882  -0.69223  -0.68471  -0.68094  -0.66324
 Alpha  occ. eigenvalues --   -0.64970  -0.64232  -0.63602  -0.63449  -0.61677
 Alpha  occ. eigenvalues --   -0.61583  -0.61347  -0.61102  -0.59158  -0.58276
 Alpha  occ. eigenvalues --   -0.58157  -0.58036  -0.57615  -0.56865  -0.55909
 Alpha  occ. eigenvalues --   -0.55556  -0.55411  -0.55179  -0.54574  -0.53925
 Alpha  occ. eigenvalues --   -0.53790  -0.53739  -0.53590  -0.53348  -0.53207
 Alpha  occ. eigenvalues --   -0.53034  -0.52995  -0.52766  -0.52592  -0.52287
 Alpha  occ. eigenvalues --   -0.52187  -0.51902  -0.51759  -0.51445  -0.51392
 Alpha  occ. eigenvalues --   -0.51080  -0.50777  -0.50298  -0.50178  -0.50088
 Alpha  occ. eigenvalues --   -0.49883  -0.49466  -0.49355  -0.49175  -0.48894
 Alpha  occ. eigenvalues --   -0.48653  -0.48404  -0.48330  -0.48169  -0.47904
 Alpha  occ. eigenvalues --   -0.47499  -0.47006  -0.46664  -0.46512  -0.46006
 Alpha  occ. eigenvalues --   -0.45712  -0.45363  -0.44880  -0.44685  -0.43944
 Alpha  occ. eigenvalues --   -0.43476  -0.43263  -0.43038  -0.42483  -0.42136
 Alpha  occ. eigenvalues --   -0.41986  -0.40455  -0.39275  -0.38889  -0.38229
 Alpha  occ. eigenvalues --   -0.36906  -0.36888  -0.34007  -0.33295  -0.32865
 Alpha  occ. eigenvalues --   -0.32048  -0.31891  -0.31505  -0.31377  -0.28786
 Alpha  occ. eigenvalues --   -0.28417
 Alpha virt. eigenvalues --   -0.17212  -0.16973  -0.11400  -0.08227  -0.07717
 Alpha virt. eigenvalues --   -0.06529  -0.05636  -0.04341  -0.03779  -0.01688
 Alpha virt. eigenvalues --   -0.01426  -0.01109  -0.00391   0.00301   0.00946
 Alpha virt. eigenvalues --    0.01446   0.01988   0.02509   0.03243   0.03631
 Alpha virt. eigenvalues --    0.03891   0.04045   0.04362   0.04627   0.04921
 Alpha virt. eigenvalues --    0.05124   0.05601   0.05976   0.06344   0.06577
 Alpha virt. eigenvalues --    0.06638   0.06815   0.07245   0.07381   0.07671
 Alpha virt. eigenvalues --    0.07821   0.08138   0.08511   0.08732   0.08922
 Alpha virt. eigenvalues --    0.09151   0.09259   0.09376   0.09673   0.09957
 Alpha virt. eigenvalues --    0.10025   0.10364   0.10450   0.10792   0.11084
 Alpha virt. eigenvalues --    0.11442   0.11600   0.11814   0.11996   0.12361
 Alpha virt. eigenvalues --    0.12585   0.12890   0.13586   0.13621   0.13927
 Alpha virt. eigenvalues --    0.14312   0.14377   0.15124   0.15383   0.15749
 Alpha virt. eigenvalues --    0.16069   0.16224   0.16414   0.16949   0.17441
 Alpha virt. eigenvalues --    0.17738   0.17864   0.18069   0.18426   0.19184
 Alpha virt. eigenvalues --    0.20372   0.20956   0.21949   0.22434   0.22881
 Alpha virt. eigenvalues --    0.23823   0.24304   0.24946   0.25350   0.26086
 Alpha virt. eigenvalues --    0.26450   0.26889   0.27572   0.27995   0.29047
 Alpha virt. eigenvalues --    0.29601   0.30158   0.31102   0.31646   0.32620
 Alpha virt. eigenvalues --    0.32685   0.33474   0.33768   0.33946   0.35084
 Alpha virt. eigenvalues --    0.35329   0.35783   0.36692   0.37656   0.38031
 Alpha virt. eigenvalues --    0.38574   0.38735   0.39353   0.39459   0.39893
 Alpha virt. eigenvalues --    0.40601   0.40829   0.41748   0.42266   0.42678
 Alpha virt. eigenvalues --    0.42878   0.43284   0.43441   0.43693   0.43977
 Alpha virt. eigenvalues --    0.44428   0.44791   0.45312   0.45445   0.46102
 Alpha virt. eigenvalues --    0.46238   0.46575   0.47059   0.47810   0.48080
 Alpha virt. eigenvalues --    0.48509   0.48710   0.49099   0.49153   0.50336
 Alpha virt. eigenvalues --    0.50548   0.50601   0.51000   0.51233   0.51386
 Alpha virt. eigenvalues --    0.51891   0.52103   0.52648   0.53003   0.53046
 Alpha virt. eigenvalues --    0.53595   0.54429   0.54705   0.55212   0.55777
 Alpha virt. eigenvalues --    0.56195   0.56209   0.56625   0.56759   0.57107
 Alpha virt. eigenvalues --    0.57647   0.57812   0.58006   0.58553   0.58692
 Alpha virt. eigenvalues --    0.59787   0.59914   0.60258   0.60671   0.60865
 Alpha virt. eigenvalues --    0.61930   0.62300   0.62664   0.63009   0.63432
 Alpha virt. eigenvalues --    0.63791   0.64162   0.64250   0.64620   0.64888
 Alpha virt. eigenvalues --    0.66020   0.66128   0.66667   0.67020   0.67489
 Alpha virt. eigenvalues --    0.67856   0.68382   0.68618   0.68765   0.69352
 Alpha virt. eigenvalues --    0.69537   0.69969   0.70118   0.70695   0.70728
 Alpha virt. eigenvalues --    0.71186   0.71401   0.71948   0.72124   0.72641
 Alpha virt. eigenvalues --    0.72747   0.73607   0.73966   0.74900   0.75494
 Alpha virt. eigenvalues --    0.75994   0.76233   0.76686   0.77184   0.77550
 Alpha virt. eigenvalues --    0.78129   0.78287   0.78768   0.78852   0.79075
 Alpha virt. eigenvalues --    0.79293   0.79892   0.79972   0.80337   0.80645
 Alpha virt. eigenvalues --    0.81100   0.81199   0.81920   0.82476   0.82647
 Alpha virt. eigenvalues --    0.82900   0.83111   0.83419   0.83694   0.83851
 Alpha virt. eigenvalues --    0.84121   0.84280   0.84778   0.85047   0.85528
 Alpha virt. eigenvalues --    0.86158   0.86453   0.86789   0.87089   0.87582
 Alpha virt. eigenvalues --    0.87729   0.88229   0.88518   0.88683   0.89363
 Alpha virt. eigenvalues --    0.89534   0.89886   0.90290   0.90526   0.90788
 Alpha virt. eigenvalues --    0.91285   0.91372   0.91955   0.92155   0.92515
 Alpha virt. eigenvalues --    0.92656   0.92925   0.93392   0.94024   0.94078
 Alpha virt. eigenvalues --    0.94524   0.95209   0.95384   0.95974   0.96929
 Alpha virt. eigenvalues --    0.97077   0.97658   0.98165   0.98962   0.99745
 Alpha virt. eigenvalues --    1.00132   1.01256   1.01649   1.01941   1.03308
 Alpha virt. eigenvalues --    1.03541   1.04748   1.05060   1.05314   1.05856
 Alpha virt. eigenvalues --    1.07263   1.07485   1.07688   1.08112   1.09316
 Alpha virt. eigenvalues --    1.09480   1.09911   1.10786   1.11048   1.11387
 Alpha virt. eigenvalues --    1.12472   1.12724   1.13127   1.13496   1.14132
 Alpha virt. eigenvalues --    1.14887   1.15602   1.16044   1.16699   1.18270
 Alpha virt. eigenvalues --    1.18955   1.19009   1.19440   1.21219   1.21441
 Alpha virt. eigenvalues --    1.21682   1.22285   1.23452   1.23671   1.24087
 Alpha virt. eigenvalues --    1.24806   1.25673   1.26354   1.26505   1.26949
 Alpha virt. eigenvalues --    1.27500   1.27943   1.28073   1.28602   1.28924
 Alpha virt. eigenvalues --    1.29648   1.30343   1.30983   1.31815   1.32239
 Alpha virt. eigenvalues --    1.32841   1.33851   1.34152   1.34690   1.35223
 Alpha virt. eigenvalues --    1.35608   1.37000   1.37394   1.38137   1.39146
 Alpha virt. eigenvalues --    1.39520   1.40081   1.40920   1.41885   1.43127
 Alpha virt. eigenvalues --    1.43711   1.44547   1.44683   1.45198   1.45860
 Alpha virt. eigenvalues --    1.46087   1.47525   1.48201   1.49062   1.50036
 Alpha virt. eigenvalues --    1.50350   1.51230   1.51538   1.52565   1.52980
 Alpha virt. eigenvalues --    1.53258   1.54616   1.55797   1.56341   1.56534
 Alpha virt. eigenvalues --    1.58898   1.59333   1.60644   1.61369   1.62783
 Alpha virt. eigenvalues --    1.63020   1.64738   1.65269   1.66248   1.66594
 Alpha virt. eigenvalues --    1.69363   1.70048   1.70509   1.70694   1.71210
 Alpha virt. eigenvalues --    1.71778   1.72335   1.72973   1.73636   1.74438
 Alpha virt. eigenvalues --    1.74747   1.74972   1.75649   1.75884   1.76503
 Alpha virt. eigenvalues --    1.76649   1.77302   1.77539   1.78579   1.79055
 Alpha virt. eigenvalues --    1.79255   1.80282   1.80318   1.80953   1.81350
 Alpha virt. eigenvalues --    1.81900   1.82783   1.83157   1.84091   1.85058
 Alpha virt. eigenvalues --    1.85624   1.85836   1.86674   1.87235   1.87880
 Alpha virt. eigenvalues --    1.87952   1.89769   1.90624   1.90965   1.91571
 Alpha virt. eigenvalues --    1.91924   1.92136   1.92500   1.93052   1.93539
 Alpha virt. eigenvalues --    1.94281   1.94805   1.95554   1.96089   1.96377
 Alpha virt. eigenvalues --    1.96897   1.98181   1.99036   1.99160   2.00114
 Alpha virt. eigenvalues --    2.00623   2.01902   2.03040   2.03297   2.03823
 Alpha virt. eigenvalues --    2.04219   2.05402   2.05798   2.06113   2.06690
 Alpha virt. eigenvalues --    2.07196   2.07466   2.08695   2.09143   2.09846
 Alpha virt. eigenvalues --    2.10814   2.12009   2.12394   2.12600   2.13272
 Alpha virt. eigenvalues --    2.14126   2.14457   2.15191   2.15731   2.16044
 Alpha virt. eigenvalues --    2.16761   2.17021   2.17643   2.17945   2.18106
 Alpha virt. eigenvalues --    2.18253   2.18661   2.19299   2.19720   2.20031
 Alpha virt. eigenvalues --    2.20308   2.20734   2.21055   2.21554   2.21872
 Alpha virt. eigenvalues --    2.22879   2.22919   2.23426   2.23665   2.24389
 Alpha virt. eigenvalues --    2.24701   2.25246   2.25423   2.26246   2.27319
 Alpha virt. eigenvalues --    2.27544   2.27896   2.28712   2.29446   2.29806
 Alpha virt. eigenvalues --    2.30096   2.31010   2.31458   2.32073   2.32337
 Alpha virt. eigenvalues --    2.33752   2.33799   2.34747   2.35292   2.35372
 Alpha virt. eigenvalues --    2.35762   2.35872   2.37147   2.39001   2.39958
 Alpha virt. eigenvalues --    2.40244   2.42705   2.43084   2.43676   2.44031
 Alpha virt. eigenvalues --    2.44551   2.45218   2.45558   2.47261   2.47745
 Alpha virt. eigenvalues --    2.47976   2.48812   2.50464   2.50680   2.51367
 Alpha virt. eigenvalues --    2.53477   2.54242   2.55278   2.56944   2.57427
 Alpha virt. eigenvalues --    2.59077   2.59969   2.60511   2.60790   2.62474
 Alpha virt. eigenvalues --    2.63611   2.66044   2.66628   2.67161   2.68918
 Alpha virt. eigenvalues --    2.70493   2.71266   2.72018   2.73323   2.77647
 Alpha virt. eigenvalues --    2.78353   2.78918   2.81195   2.81668   2.82980
 Alpha virt. eigenvalues --    2.84584   2.86092   2.86727   2.87979   2.88911
 Alpha virt. eigenvalues --    2.89625   2.91012   2.91315   2.93932   2.95690
 Alpha virt. eigenvalues --    2.96199   2.98157   3.03112   3.04532   3.05896
 Alpha virt. eigenvalues --    3.10657   3.13517   3.15516   3.20188   3.20638
 Alpha virt. eigenvalues --    3.28632   3.29140   3.30610   3.36110   3.36844
 Alpha virt. eigenvalues --    3.43200   3.48092   3.60395   3.71283   3.97265
 Alpha virt. eigenvalues --    4.07479
  Beta  occ. eigenvalues -- -256.39638 -89.04586 -30.21360 -26.05892 -26.05819
  Beta  occ. eigenvalues --  -26.05808 -14.53282 -14.47783 -14.45372 -14.45350
  Beta  occ. eigenvalues --  -14.45339 -14.45244 -10.37256 -10.34515 -10.33149
  Beta  occ. eigenvalues --  -10.33119 -10.33092 -10.33067 -10.32997 -10.32957
  Beta  occ. eigenvalues --  -10.32953 -10.32867 -10.31882 -10.31718 -10.31033
  Beta  occ. eigenvalues --  -10.30134 -10.30126 -10.30077 -10.30034 -10.30022
  Beta  occ. eigenvalues --  -10.29975 -10.29956 -10.29904 -10.29898 -10.29832
  Beta  occ. eigenvalues --  -10.29824 -10.29823 -10.29807 -10.29236 -10.29211
  Beta  occ. eigenvalues --  -10.28248 -10.28225 -10.28038 -10.27993 -10.27917
  Beta  occ. eigenvalues --  -10.27913 -10.27859 -10.27828 -10.27216  -8.07613
  Beta  occ. eigenvalues --   -6.02238  -6.01918  -6.01304  -3.54081  -2.29361
  Beta  occ. eigenvalues --   -2.29084  -2.29059  -1.15840  -1.08416  -1.07384
  Beta  occ. eigenvalues --   -1.07326  -1.06345  -1.01544  -0.93170  -0.92214
  Beta  occ. eigenvalues --   -0.91706  -0.91521  -0.91111  -0.90696  -0.90319
  Beta  occ. eigenvalues --   -0.90245  -0.89873  -0.86404  -0.85207  -0.84878
  Beta  occ. eigenvalues --   -0.84724  -0.83955  -0.82669  -0.81441  -0.80873
  Beta  occ. eigenvalues --   -0.79873  -0.78296  -0.78045  -0.77808  -0.75174
  Beta  occ. eigenvalues --   -0.74991  -0.74756  -0.74704  -0.71509  -0.70330
  Beta  occ. eigenvalues --   -0.69742  -0.68974  -0.68329  -0.67711  -0.66138
  Beta  occ. eigenvalues --   -0.64825  -0.64030  -0.63276  -0.62941  -0.61454
  Beta  occ. eigenvalues --   -0.61372  -0.60917  -0.58804  -0.58265  -0.57976
  Beta  occ. eigenvalues --   -0.57771  -0.57237  -0.57026  -0.55449  -0.54927
  Beta  occ. eigenvalues --   -0.54432  -0.54332  -0.53921  -0.53840  -0.53384
  Beta  occ. eigenvalues --   -0.53195  -0.53001  -0.52920  -0.52823  -0.52650
  Beta  occ. eigenvalues --   -0.52569  -0.52200  -0.51773  -0.51617  -0.51450
  Beta  occ. eigenvalues --   -0.51390  -0.50878  -0.50284  -0.50197  -0.50082
  Beta  occ. eigenvalues --   -0.49860  -0.49775  -0.49511  -0.49173  -0.49079
  Beta  occ. eigenvalues --   -0.49018  -0.48548  -0.48407  -0.48152  -0.47753
  Beta  occ. eigenvalues --   -0.47415  -0.47152  -0.47017  -0.46643  -0.46593
  Beta  occ. eigenvalues --   -0.46155  -0.45639  -0.45539  -0.45204  -0.44689
  Beta  occ. eigenvalues --   -0.43929  -0.43822  -0.43330  -0.42607  -0.42343
  Beta  occ. eigenvalues --   -0.42230  -0.41956  -0.41095  -0.40156  -0.39177
  Beta  occ. eigenvalues --   -0.38693  -0.37046  -0.36939  -0.35715  -0.34119
  Beta  occ. eigenvalues --   -0.33409  -0.32773  -0.31814  -0.31617  -0.28639
  Beta  occ. eigenvalues --   -0.28302
  Beta virt. eigenvalues --   -0.19941  -0.19853  -0.18322  -0.15678  -0.15592
  Beta virt. eigenvalues --   -0.11952  -0.11281  -0.09725  -0.07698  -0.07572
  Beta virt. eigenvalues --   -0.06308  -0.05123  -0.03972  -0.03336  -0.01344
  Beta virt. eigenvalues --   -0.01246  -0.00551  -0.00196   0.00488   0.01122
  Beta virt. eigenvalues --    0.01498   0.02010   0.02539   0.03272   0.03714
  Beta virt. eigenvalues --    0.03978   0.04201   0.04449   0.04873   0.05052
  Beta virt. eigenvalues --    0.05300   0.05732   0.06061   0.06413   0.06661
  Beta virt. eigenvalues --    0.06729   0.06898   0.07313   0.07434   0.07722
  Beta virt. eigenvalues --    0.07923   0.08218   0.08622   0.08800   0.08983
  Beta virt. eigenvalues --    0.09206   0.09304   0.09442   0.09735   0.09967
  Beta virt. eigenvalues --    0.10087   0.10484   0.10510   0.10853   0.11152
  Beta virt. eigenvalues --    0.11619   0.11889   0.12006   0.12135   0.12455
  Beta virt. eigenvalues --    0.12731   0.12950   0.13767   0.13866   0.14127
  Beta virt. eigenvalues --    0.14384   0.14490   0.15313   0.15488   0.15953
  Beta virt. eigenvalues --    0.16335   0.16528   0.16736   0.17339   0.17604
  Beta virt. eigenvalues --    0.17979   0.18134   0.18524   0.19150   0.20023
  Beta virt. eigenvalues --    0.20449   0.21087   0.22232   0.22965   0.23202
  Beta virt. eigenvalues --    0.24014   0.24900   0.25380   0.25937   0.26339
  Beta virt. eigenvalues --    0.26691   0.27410   0.27781   0.28220   0.29315
  Beta virt. eigenvalues --    0.30004   0.30379   0.31446   0.31865   0.32983
  Beta virt. eigenvalues --    0.33199   0.33629   0.33899   0.34158   0.35245
  Beta virt. eigenvalues --    0.35977   0.36764   0.37620   0.37914   0.38423
  Beta virt. eigenvalues --    0.38777   0.39038   0.39528   0.39794   0.40387
  Beta virt. eigenvalues --    0.40808   0.41037   0.42031   0.42453   0.42831
  Beta virt. eigenvalues --    0.43135   0.43562   0.43689   0.43808   0.44058
  Beta virt. eigenvalues --    0.44588   0.44962   0.45529   0.45654   0.46215
  Beta virt. eigenvalues --    0.46483   0.46755   0.47136   0.48064   0.48183
  Beta virt. eigenvalues --    0.48607   0.48801   0.49218   0.49273   0.50449
  Beta virt. eigenvalues --    0.50650   0.50711   0.51164   0.51339   0.51627
  Beta virt. eigenvalues --    0.51997   0.52211   0.52813   0.53139   0.53184
  Beta virt. eigenvalues --    0.53741   0.54592   0.54794   0.55308   0.55866
  Beta virt. eigenvalues --    0.56308   0.56392   0.56817   0.57030   0.57252
  Beta virt. eigenvalues --    0.57727   0.58011   0.58177   0.58634   0.58764
  Beta virt. eigenvalues --    0.59932   0.60314   0.60425   0.61030   0.61387
  Beta virt. eigenvalues --    0.62121   0.62439   0.62803   0.63124   0.63816
  Beta virt. eigenvalues --    0.63964   0.64374   0.64552   0.64831   0.65075
  Beta virt. eigenvalues --    0.66186   0.66317   0.66875   0.67293   0.67680
  Beta virt. eigenvalues --    0.68060   0.68540   0.68867   0.68974   0.69500
  Beta virt. eigenvalues --    0.69834   0.70055   0.70476   0.70882   0.71246
  Beta virt. eigenvalues --    0.71332   0.71836   0.72191   0.72391   0.72860
  Beta virt. eigenvalues --    0.72969   0.73981   0.74143   0.75203   0.75841
  Beta virt. eigenvalues --    0.76165   0.76542   0.76812   0.77290   0.77737
  Beta virt. eigenvalues --    0.78295   0.78428   0.78923   0.79070   0.79382
  Beta virt. eigenvalues --    0.79593   0.80089   0.80338   0.80716   0.80844
  Beta virt. eigenvalues --    0.81248   0.81637   0.82056   0.82614   0.82800
  Beta virt. eigenvalues --    0.82977   0.83193   0.83529   0.83793   0.83981
  Beta virt. eigenvalues --    0.84242   0.84425   0.85049   0.85224   0.85686
  Beta virt. eigenvalues --    0.86367   0.86562   0.86929   0.87587   0.87784
  Beta virt. eigenvalues --    0.88123   0.88438   0.88714   0.88842   0.89598
  Beta virt. eigenvalues --    0.89857   0.90081   0.90402   0.90742   0.90932
  Beta virt. eigenvalues --    0.91479   0.91742   0.92067   0.92355   0.92606
  Beta virt. eigenvalues --    0.92871   0.93027   0.93540   0.94139   0.94624
  Beta virt. eigenvalues --    0.94796   0.95379   0.95438   0.96124   0.97107
  Beta virt. eigenvalues --    0.97327   0.97748   0.98498   0.99247   1.00208
  Beta virt. eigenvalues --    1.00548   1.01488   1.01831   1.02618   1.03544
  Beta virt. eigenvalues --    1.04351   1.04922   1.05307   1.05535   1.06100
  Beta virt. eigenvalues --    1.07441   1.07700   1.07980   1.08273   1.09438
  Beta virt. eigenvalues --    1.09680   1.10043   1.11036   1.11211   1.11531
  Beta virt. eigenvalues --    1.12670   1.13076   1.13500   1.14035   1.15023
  Beta virt. eigenvalues --    1.15564   1.15768   1.16484   1.17010   1.18691
  Beta virt. eigenvalues --    1.19111   1.19547   1.20465   1.21381   1.21661
  Beta virt. eigenvalues --    1.22001   1.22534   1.23624   1.23817   1.24212
  Beta virt. eigenvalues --    1.25017   1.25986   1.26693   1.26995   1.27118
  Beta virt. eigenvalues --    1.27667   1.28090   1.28256   1.28721   1.29178
  Beta virt. eigenvalues --    1.29784   1.30689   1.31213   1.32094   1.32880
  Beta virt. eigenvalues --    1.33005   1.34235   1.34406   1.34927   1.35418
  Beta virt. eigenvalues --    1.36085   1.37164   1.37889   1.38373   1.39248
  Beta virt. eigenvalues --    1.39781   1.40340   1.41463   1.41982   1.43329
  Beta virt. eigenvalues --    1.43777   1.44795   1.44945   1.45420   1.45959
  Beta virt. eigenvalues --    1.46253   1.47716   1.48451   1.49328   1.50422
  Beta virt. eigenvalues --    1.50605   1.51536   1.51918   1.52866   1.53198
  Beta virt. eigenvalues --    1.53413   1.54923   1.56275   1.56538   1.56741
  Beta virt. eigenvalues --    1.59120   1.59545   1.60739   1.61561   1.62936
  Beta virt. eigenvalues --    1.63184   1.64906   1.65469   1.66549   1.66867
  Beta virt. eigenvalues --    1.69589   1.70132   1.70591   1.70783   1.71358
  Beta virt. eigenvalues --    1.71906   1.72529   1.73205   1.73834   1.74535
  Beta virt. eigenvalues --    1.74859   1.75208   1.75845   1.76008   1.76693
  Beta virt. eigenvalues --    1.76845   1.77443   1.77677   1.78700   1.79248
  Beta virt. eigenvalues --    1.79481   1.80408   1.80555   1.81130   1.81560
  Beta virt. eigenvalues --    1.82042   1.82989   1.83332   1.84331   1.85384
  Beta virt. eigenvalues --    1.85972   1.86137   1.86923   1.87417   1.88135
  Beta virt. eigenvalues --    1.88548   1.90312   1.90790   1.91242   1.91700
  Beta virt. eigenvalues --    1.92304   1.92375   1.92684   1.93242   1.94081
  Beta virt. eigenvalues --    1.94549   1.95198   1.95685   1.96604   1.96755
  Beta virt. eigenvalues --    1.97277   1.98366   1.99175   1.99511   2.00419
  Beta virt. eigenvalues --    2.01077   2.02257   2.03260   2.03490   2.03959
  Beta virt. eigenvalues --    2.04507   2.05491   2.05893   2.06348   2.06883
  Beta virt. eigenvalues --    2.07641   2.07674   2.09014   2.09391   2.10101
  Beta virt. eigenvalues --    2.11187   2.12137   2.12858   2.13370   2.13623
  Beta virt. eigenvalues --    2.14650   2.14929   2.15831   2.16130   2.16730
  Beta virt. eigenvalues --    2.17051   2.17297   2.17813   2.18056   2.18427
  Beta virt. eigenvalues --    2.18513   2.19091   2.19756   2.19902   2.20687
  Beta virt. eigenvalues --    2.20930   2.21308   2.21693   2.22067   2.22614
  Beta virt. eigenvalues --    2.23180   2.23613   2.23822   2.24494   2.25056
  Beta virt. eigenvalues --    2.25229   2.25995   2.26207   2.27301   2.27618
  Beta virt. eigenvalues --    2.27860   2.28270   2.29218   2.29643   2.30024
  Beta virt. eigenvalues --    2.30332   2.31226   2.31847   2.32275   2.32676
  Beta virt. eigenvalues --    2.33946   2.34046   2.34933   2.35414   2.35702
  Beta virt. eigenvalues --    2.36030   2.36685   2.37613   2.39113   2.40459
  Beta virt. eigenvalues --    2.40824   2.43004   2.43317   2.44332   2.44447
  Beta virt. eigenvalues --    2.44900   2.45722   2.45880   2.47393   2.47889
  Beta virt. eigenvalues --    2.48130   2.49142   2.50626   2.51409   2.51607
  Beta virt. eigenvalues --    2.53573   2.54311   2.55374   2.57167   2.57588
  Beta virt. eigenvalues --    2.59412   2.60335   2.60864   2.61040   2.62608
  Beta virt. eigenvalues --    2.63808   2.66364   2.66938   2.67360   2.69045
  Beta virt. eigenvalues --    2.70579   2.71344   2.72186   2.73711   2.77848
  Beta virt. eigenvalues --    2.78598   2.79141   2.81446   2.81970   2.83279
  Beta virt. eigenvalues --    2.84914   2.86322   2.86888   2.88167   2.89063
  Beta virt. eigenvalues --    2.89766   2.91163   2.91844   2.94439   2.95921
  Beta virt. eigenvalues --    2.96419   2.98830   3.03355   3.04764   3.05979
  Beta virt. eigenvalues --    3.10788   3.13710   3.16241   3.20294   3.20707
  Beta virt. eigenvalues --    3.28815   3.29231   3.31554   3.36611   3.37062
  Beta virt. eigenvalues --    3.55983   3.60723   3.70595   3.83230   4.07287
  Beta virt. eigenvalues --    4.17846
          Condensed to atoms (all electrons):
          Atomic-Atomic Spin Densities.
 Mulliken charges and spin densities:
               1          2
     1  Fe   0.960914   4.255048
     2  N   -0.711945   0.085387
     3  N   -0.700191   0.087259
     4  N   -0.688240   0.077851
     5  N   -0.692716   0.080793
     6  C    0.324031   0.008141
     7  C    0.038814   0.017820
     8  C    0.044446   0.019277
     9  C    0.308341   0.007666
    10  C    0.285922   0.008265
    11  C    0.040447   0.018210
    12  C    0.038015   0.021968
    13  C    0.311676   0.003519
    14  C    0.303807   0.004693
    15  C    0.009772   0.015946
    16  C    0.041423   0.017142
    17  C    0.298532   0.004304
    18  C    0.298725   0.003318
    19  C    0.013201   0.021326
    20  C    0.040548   0.013406
    21  C    0.311622   0.008023
    22  C   -0.296903  -0.005561
    23  H    0.189315   0.000392
    24  C   -0.297489  -0.004939
    25  H    0.188077   0.000406
    26  C   -0.296234   0.000496
    27  H    0.189600   0.000138
    28  C   -0.318496  -0.000451
    29  H    0.191661   0.000223
    30  C   -0.611775  -0.000635
    31  H    0.201158   0.000748
    32  H    0.206691   0.000784
    33  H    0.202814   0.000451
    34  C   -0.611853  -0.000722
    35  H    0.207364   0.000784
    36  H    0.199070   0.000829
    37  H    0.203636   0.000441
    38  C   -0.615719  -0.000392
    39  H    0.205847   0.000726
    40  H    0.195786   0.000455
    41  H    0.211448   0.000443
    42  C   -0.155757  -0.006386
    43  H    0.175571   0.000571
    44  C   -0.388136   0.011413
    45  H    0.188709  -0.000559
    46  H    0.193304  -0.000409
    47  C   -0.613040  -0.000596
    48  H    0.205816   0.000808
    49  H    0.192006   0.000517
    50  H    0.210935   0.000513
    51  C   -0.156419  -0.004724
    52  H    0.179476   0.000423
    53  C   -0.389404   0.008691
    54  H    0.188591  -0.000421
    55  H    0.193071  -0.000281
    56  C   -0.608580  -0.000637
    57  H    0.209564   0.001100
    58  H    0.196647   0.000041
    59  H    0.207915   0.000884
    60  C   -0.605657  -0.000494
    61  H    0.204805   0.000536
    62  H    0.206186   0.001054
    63  H    0.198567   0.000286
    64  C   -0.602571   0.000736
    65  H    0.211483   0.000238
    66  H    0.211413   0.000225
    67  H    0.219583   0.000043
    68  N   -0.628763   0.005033
    69  H    0.382753   0.001485
    70  C    0.282340   0.005767
    71  C    0.251638   0.007659
    72  H    0.230854   0.000629
    73  N   -0.472102   0.082484
    74  C   -0.047882  -0.002379
    75  H    0.208410   0.001425
    76  C   -0.536210   0.000084
    77  H    0.200533   0.000097
    78  H    0.196860   0.000473
    79  H    0.203357  -0.000030
    80  C   -0.501418  -0.001224
    81  H    0.236535   0.003126
    82  H    0.217124   0.001824
    83  S    0.282951   0.103294
    84  C   -0.694855  -0.001732
    85  H    0.235990   0.000088
    86  H    0.229835   0.001784
    87  H    0.226827   0.002562
 Sum of Mulliken charges =   1.00000   5.00000
 Mulliken charges and spin densities with hydrogens summed into heavy atoms:
               1          2
     1  Fe   0.960914   4.255048
     2  N   -0.711945   0.085387
     3  N   -0.700191   0.087259
     4  N   -0.688240   0.077851
     5  N   -0.692716   0.080793
     6  C    0.324031   0.008141
     7  C    0.038814   0.017820
     8  C    0.044446   0.019277
     9  C    0.308341   0.007666
    10  C    0.285922   0.008265
    11  C    0.040447   0.018210
    12  C    0.038015   0.021968
    13  C    0.311676   0.003519
    14  C    0.303807   0.004693
    15  C    0.009772   0.015946
    16  C    0.041423   0.017142
    17  C    0.298532   0.004304
    18  C    0.298725   0.003318
    19  C    0.013201   0.021326
    20  C    0.040548   0.013406
    21  C    0.311622   0.008023
    22  C   -0.107588  -0.005169
    24  C   -0.109413  -0.004534
    26  C   -0.106633   0.000634
    28  C   -0.126836  -0.000228
    30  C   -0.001113   0.001348
    34  C   -0.001782   0.001333
    38  C   -0.002637   0.001232
    42  C    0.019814  -0.005815
    44  C   -0.006123   0.010446
    47  C   -0.004282   0.001242
    51  C    0.023057  -0.004301
    53  C   -0.007742   0.007989
    56  C    0.005546   0.001388
    60  C    0.003902   0.001381
    64  C    0.039908   0.001242
    68  N   -0.246010   0.006518
    70  C    0.282340   0.005767
    71  C    0.482492   0.008289
    73  N   -0.472102   0.082484
    74  C    0.160528  -0.000954
    76  C    0.064540   0.000624
    80  C   -0.047759   0.003726
    83  S    0.282951   0.103294
    84  C   -0.002203   0.002702
 Electronic spatial extent (au):  <R**2>=          21535.3682
 Charge=              1.0000 electrons
 Dipole moment (field-independent basis, Debye):
    X=             -0.6074    Y=             -0.8422    Z=              3.9116  Tot=              4.0471
 Quadrupole moment (field-independent basis, Debye-Ang):
   XX=           -211.0736   YY=           -214.3576   ZZ=           -225.5296
   XY=              1.9038   XZ=             -4.9805   YZ=             -8.0504
 Traceless Quadrupole moment (field-independent basis, Debye-Ang):
   XX=              5.9134   YY=              2.6293   ZZ=             -8.5427
   XY=              1.9038   XZ=             -4.9805   YZ=             -8.0504
 Octapole moment (field-independent basis, Debye-Ang**2):
  XXX=              0.8030  YYY=            -14.9893  ZZZ=            158.9899  XYY=            -11.0100
  XXY=             -5.2860  XXZ=            -13.3156  XZZ=             -2.6185  YZZ=            -12.5995
  YYZ=             -3.6994  XYZ=              5.3042
 Hexadecapole moment (field-independent basis, Debye-Ang**3):
 XXXX=         -10506.7874 YYYY=          -9955.1771 ZZZZ=          -3779.6820 XXXY=             90.5411
 XXXZ=           -222.6493 YYYX=           -112.5418 YYYZ=            -43.0053 ZZZX=             64.2480
 ZZZY=           -168.6510 XXYY=          -3582.1114 XXZZ=          -2824.2950 YYZZ=          -2776.9917
 XXYZ=             20.0513 YYXZ=            -50.2903 ZZXY=             29.0293
 N-N= 7.153988506431D+03 E-N=-2.232216472333D+04  KE= 3.413040525468D+03
                          Isotropic Fermi Contact Couplings
        Atom                 a.u.       MegaHertz       Gauss      10(-4) cm-1
     1  Fe(57)             0.48533      14.07838       5.02352       4.69604
     2  N(14)              0.14228       9.19419       3.28071       3.06685
     3  N(14)              0.14404       9.30787       3.32128       3.10477
     4  N(14)              0.13876       8.96693       3.19963       2.99105
     5  N(14)              0.14171       9.15761       3.26766       3.05465
     6  C(13)              0.00652       1.46573       0.52301       0.48892
     7  C(13)              0.00610       1.37077       0.48912       0.45724
     8  C(13)              0.00627       1.40937       0.50290       0.47011
     9  C(13)              0.00597       1.34128       0.47860       0.44740
    10  C(13)              0.00590       1.32624       0.47323       0.44239
    11  C(13)              0.00620       1.39332       0.49717       0.46476
    12  C(13)              0.00688       1.54753       0.55220       0.51620
    13  C(13)              0.00611       1.37373       0.49018       0.45823
    14  C(13)              0.00528       1.18630       0.42330       0.39571
    15  C(13)              0.00562       1.26249       0.45049       0.42112
    16  C(13)              0.00590       1.32683       0.47345       0.44258
    17  C(13)              0.00575       1.29214       0.46107       0.43101
    18  C(13)              0.00592       1.33016       0.47464       0.44370
    19  C(13)              0.00660       1.48299       0.52917       0.49467
    20  C(13)              0.00527       1.18581       0.42313       0.39554
    21  C(13)              0.00548       1.23311       0.44000       0.41132
    22  C(13)             -0.00099      -0.22327      -0.07967      -0.07447
    23  H(1)               0.00013       0.11773       0.04201       0.03927
    24  C(13)             -0.00081      -0.18149      -0.06476      -0.06054
    25  H(1)               0.00013       0.11773       0.04201       0.03927
    26  C(13)              0.00002       0.00450       0.00161       0.00150
    27  H(1)               0.00004       0.04018       0.01434       0.01340
    28  C(13)              0.00028       0.06198       0.02212       0.02067
    29  H(1)               0.00007       0.06070       0.02166       0.02025
    30  C(13)              0.00007       0.01491       0.00532       0.00497
    31  H(1)               0.00038       0.34138       0.12181       0.11387
    32  H(1)               0.00040       0.35479       0.12660       0.11834
    33  H(1)               0.00017       0.14898       0.05316       0.04969
    34  C(13)              0.00001       0.00246       0.00088       0.00082
    35  H(1)               0.00040       0.35838       0.12788       0.11954
    36  H(1)               0.00042       0.37602       0.13417       0.12543
    37  H(1)               0.00017       0.14877       0.05308       0.04962
    38  C(13)              0.00008       0.01859       0.00663       0.00620
    39  H(1)               0.00038       0.33887       0.12092       0.11303
    40  H(1)               0.00021       0.18375       0.06557       0.06129
    41  H(1)               0.00015       0.13756       0.04909       0.04589
    42  C(13)             -0.00079      -0.17690      -0.06312      -0.05901
    43  H(1)               0.00021       0.18931       0.06755       0.06315
    44  C(13)              0.00190       0.42687       0.15232       0.14239
    45  H(1)              -0.00017      -0.15174      -0.05415      -0.05062
    46  H(1)              -0.00012      -0.10394      -0.03709      -0.03467
    47  C(13)              0.00013       0.02833       0.01011       0.00945
    48  H(1)               0.00043       0.38236       0.13644       0.12754
    49  H(1)               0.00023       0.20571       0.07340       0.06862
    50  H(1)               0.00018       0.16140       0.05759       0.05384
    51  C(13)             -0.00053      -0.11912      -0.04250      -0.03973
    52  H(1)               0.00015       0.13570       0.04842       0.04526
    53  C(13)              0.00145       0.32583       0.11626       0.10868
    54  H(1)              -0.00012      -0.11165      -0.03984      -0.03724
    55  H(1)              -0.00008      -0.06768      -0.02415      -0.02258
    56  C(13)              0.00007       0.01473       0.00525       0.00491
    57  H(1)               0.00057       0.50763       0.18114       0.16933
    58  H(1)               0.00004       0.03904       0.01393       0.01302
    59  H(1)               0.00048       0.43095       0.15377       0.14375
    60  C(13)              0.00007       0.01562       0.00557       0.00521
    61  H(1)               0.00025       0.22178       0.07914       0.07398
    62  H(1)               0.00054       0.48106       0.17166       0.16047
    63  H(1)               0.00015       0.13632       0.04864       0.04547
    64  C(13)              0.00051       0.11408       0.04071       0.03805
    65  H(1)               0.00014       0.12197       0.04352       0.04069
    66  H(1)               0.00013       0.11555       0.04123       0.03854
    67  H(1)               0.00004       0.03506       0.01251       0.01169
    68  N(14)              0.00835       0.53951       0.19251       0.17996
    69  H(1)               0.00056       0.49981       0.17834       0.16672
    70  C(13)              0.00429       0.96438       0.34412       0.32168
    71  C(13)              0.00529       1.18950       0.42444       0.39677
    72  H(1)               0.00018       0.16057       0.05729       0.05356
    73  N(14)              0.15740      10.17139       3.62941       3.39281
    74  C(13)              0.00079       0.17735       0.06328       0.05916
    75  H(1)               0.00046       0.40732       0.14534       0.13587
    76  C(13)              0.00094       0.21186       0.07560       0.07067
    77  H(1)              -0.00001      -0.01320      -0.00471      -0.00440
    78  H(1)               0.00020       0.18031       0.06434       0.06014
    79  H(1)               0.00001       0.00925       0.00330       0.00309
    80  C(13)             -0.00205      -0.46190      -0.16482      -0.15407
    81  H(1)               0.00123       1.09538       0.39086       0.36538
    82  H(1)               0.00102       0.91327       0.32588       0.30463
    83  S(33)              0.14039       9.64408       3.44125       3.21692
    84  C(13)             -0.00206      -0.46282      -0.16515      -0.15438
    85  H(1)               0.00004       0.03510       0.01253       0.01171
    86  H(1)               0.00081       0.72048       0.25709       0.24033
    87  H(1)               0.00176       1.56927       0.55996       0.52345
 --------------------------------------------------------
       Center         ----  Spin Dipole Couplings  ----
                      3XX-RR        3YY-RR        3ZZ-RR
 --------------------------------------------------------
     1   Atom        0.087155      0.101256     -0.188411
     2   Atom       -0.178405      0.292763     -0.114358
     3   Atom        0.282901     -0.177895     -0.105006
     4   Atom       -0.162340      0.277902     -0.115563
     5   Atom        0.275695     -0.168902     -0.106793
     6   Atom       -0.008883      0.034415     -0.025532
     7   Atom       -0.017997      0.014635      0.003363
     8   Atom       -0.018908      0.014785      0.004123
     9   Atom       -0.013325      0.040249     -0.026924
    10   Atom        0.036018     -0.010590     -0.025428
    11   Atom        0.014025     -0.017673      0.003648
    12   Atom        0.012695     -0.019445      0.006751
    13   Atom        0.037819     -0.010925     -0.026894
    14   Atom       -0.010534      0.035355     -0.024821
    15   Atom       -0.015076      0.015073      0.000004
    16   Atom       -0.016320      0.014174      0.002146
    17   Atom       -0.011071      0.037910     -0.026839
    18   Atom        0.033728     -0.006857     -0.026871
    19   Atom        0.012666     -0.018451      0.005785
    20   Atom        0.015978     -0.015786     -0.000192
    21   Atom        0.037825     -0.014301     -0.023524
    22   Atom        0.014972      0.010491     -0.025462
    23   Atom        0.005098      0.003360     -0.008458
    24   Atom        0.011555      0.013615     -0.025169
    25   Atom        0.003737      0.004886     -0.008623
    26   Atom        0.008985      0.009378     -0.018363
    27   Atom        0.004030      0.003849     -0.007878
    28   Atom        0.007660      0.010711     -0.018371
    29   Atom        0.003131      0.004512     -0.007643
    30   Atom       -0.002822      0.007448     -0.004626
    31   Atom       -0.001434      0.004993     -0.003559
    32   Atom       -0.001373      0.004914     -0.003541
    33   Atom       -0.002501      0.005676     -0.003175
    34   Atom       -0.003470      0.008065     -0.004595
    35   Atom       -0.002068      0.005445     -0.003377
    36   Atom       -0.001851      0.005567     -0.003716
    37   Atom       -0.002737      0.005906     -0.003169
    38   Atom        0.007941     -0.003385     -0.004556
    39   Atom        0.005268     -0.002085     -0.003183
    40   Atom        0.005659     -0.001885     -0.003774
    41   Atom        0.005805     -0.002695     -0.003110
    42   Atom        0.009017     -0.001137     -0.007880
    43   Atom        0.005024     -0.000996     -0.004028
    44   Atom        0.002222     -0.005926      0.003704
    45   Atom        0.003823     -0.001776     -0.002047
    46   Atom        0.002910     -0.001106     -0.001805
    47   Atom       -0.003237      0.007779     -0.004542
    48   Atom       -0.002536      0.005307     -0.002771
    49   Atom       -0.001248      0.005265     -0.004017
    50   Atom       -0.002556      0.005656     -0.003101
    51   Atom       -0.003321      0.008875     -0.005554
    52   Atom       -0.001737      0.005125     -0.003388
    53   Atom       -0.001344      0.002468     -0.001124
    54   Atom       -0.002027      0.004114     -0.002088
    55   Atom       -0.001044      0.002959     -0.001915
    56   Atom        0.007724     -0.003525     -0.004199
    57   Atom        0.005883     -0.002666     -0.003218
    58   Atom        0.004984     -0.001149     -0.003834
    59   Atom        0.005409     -0.002877     -0.002532
    60   Atom        0.007709     -0.003077     -0.004632
    61   Atom        0.005910     -0.002674     -0.003237
    62   Atom        0.005002     -0.002035     -0.002967
    63   Atom        0.005168     -0.001168     -0.003999
    64   Atom       -0.003674     -0.004325      0.007999
    65   Atom       -0.002066     -0.003113      0.005179
    66   Atom       -0.002945     -0.002600      0.005545
    67   Atom       -0.002013     -0.002601      0.004614
    68   Atom       -0.010400     -0.010722      0.021122
    69   Atom       -0.005778     -0.005169      0.010947
    70   Atom       -0.009260     -0.010022      0.019282
    71   Atom       -0.021487     -0.016618      0.038105
    72   Atom       -0.011349     -0.006748      0.018097
    73   Atom       -0.152457     -0.157848      0.310306
    74   Atom       -0.015945     -0.019822      0.035767
    75   Atom       -0.003904     -0.006231      0.010135
    76   Atom        0.003925     -0.008926      0.005001
    77   Atom        0.000711     -0.006584      0.005873
    78   Atom        0.002112     -0.004122      0.002010
    79   Atom        0.011101     -0.011947      0.000846
    80   Atom       -0.008625     -0.008903      0.017528
    81   Atom       -0.008231      0.001640      0.006592
    82   Atom       -0.007482     -0.004353      0.011835
    83   Atom       -0.280223     -0.238440      0.518664
    84   Atom       -0.008223     -0.017612      0.025835
    85   Atom        0.000962     -0.016106      0.015143
    86   Atom       -0.007290     -0.007122      0.014413
    87   Atom       -0.005799     -0.008535      0.014334
 --------------------------------------------------------
                        XY            XZ            YZ
 --------------------------------------------------------
     1   Atom       -0.001153     -0.009560      0.011506
     2   Atom       -0.014351     -0.009226      0.009674
     3   Atom        0.007889     -0.034798     -0.017172
     4   Atom       -0.009811      0.016658      0.001025
     5   Atom        0.017052     -0.023336      0.012606
     6   Atom       -0.037566     -0.000555      0.000047
     7   Atom       -0.003861     -0.000873      0.000766
     8   Atom        0.001773     -0.001530     -0.000125
     9   Atom        0.034563      0.001476      0.002318
    10   Atom        0.036183      0.000066     -0.000249
    11   Atom        0.003359     -0.001397     -0.003593
    12   Atom       -0.002688      0.000677     -0.003559
    13   Atom       -0.033861     -0.010742      0.005928
    14   Atom       -0.032797     -0.004109      0.007935
    15   Atom       -0.003406      0.004968      0.000676
    16   Atom        0.002258      0.004425     -0.000208
    17   Atom        0.031540     -0.002560     -0.005560
    18   Atom        0.034497     -0.007411     -0.004235
    19   Atom        0.003574     -0.002492      0.002777
    20   Atom       -0.001962     -0.001669      0.002471
    21   Atom       -0.031372     -0.001768      0.001503
    22   Atom       -0.023939      0.001252     -0.002064
    23   Atom       -0.011212      0.000360     -0.000399
    24   Atom        0.024555      0.001823      0.002633
    25   Atom        0.011502      0.000491      0.000651
    26   Atom       -0.023452     -0.006371      0.005653
    27   Atom       -0.011315     -0.002581      0.002477
    28   Atom        0.022500     -0.005610     -0.006076
    29   Atom        0.010899     -0.002288     -0.002375
    30   Atom       -0.005129     -0.000082      0.000135
    31   Atom       -0.004344      0.000973     -0.001519
    32   Atom       -0.004406     -0.001078      0.001682
    33   Atom       -0.001945     -0.000030      0.000152
    34   Atom        0.004440      0.000274      0.000731
    35   Atom        0.003903      0.001171      0.002208
    36   Atom        0.004000     -0.000685     -0.001135
    37   Atom        0.001405      0.000088      0.000468
    38   Atom       -0.004050      0.000282     -0.000228
    39   Atom       -0.003203     -0.001476      0.000670
    40   Atom       -0.004178      0.001588     -0.000903
    41   Atom       -0.001248      0.000621     -0.000177
    42   Atom        0.005614     -0.003953      0.001393
    43   Atom        0.004831     -0.000164     -0.000026
    44   Atom       -0.000353      0.004501     -0.004565
    45   Atom        0.000245     -0.001532      0.000143
    46   Atom        0.002090     -0.000495     -0.000438
    47   Atom        0.004153     -0.000103     -0.000664
    48   Atom        0.002731     -0.000813     -0.002165
    49   Atom        0.004514      0.000264      0.000429
    50   Atom        0.001562      0.000049      0.000480
    51   Atom       -0.005850     -0.002975     -0.000163
    52   Atom       -0.004254     -0.001248      0.002297
    53   Atom        0.000895      0.005179      0.002992
    54   Atom       -0.000761     -0.000155     -0.001018
    55   Atom       -0.001901     -0.000043      0.000497
    56   Atom       -0.004299     -0.001673      0.000458
    57   Atom       -0.002418      0.000540     -0.000099
    58   Atom       -0.004631     -0.001616      0.000915
    59   Atom       -0.001717     -0.002553      0.000442
    60   Atom        0.004842     -0.000240     -0.000153
    61   Atom        0.001796      0.000466      0.000081
    62   Atom        0.003450     -0.001962     -0.000913
    63   Atom        0.004752      0.000952      0.000693
    64   Atom        0.000872      0.003970      0.002748
    65   Atom        0.000082      0.003115      0.000341
    66   Atom        0.000260      0.001114      0.002296
    67   Atom        0.001610      0.003878      0.003164
    68   Atom       -0.005005      0.000230     -0.002504
    69   Atom        0.000569     -0.001846     -0.003684
    70   Atom       -0.001021      0.005424      0.002719
    71   Atom        0.005071     -0.017595     -0.023900
    72   Atom        0.012010     -0.018809     -0.023058
    73   Atom       -0.014126      0.044229      0.002593
    74   Atom        0.015833      0.028623      0.023064
    75   Atom        0.016382      0.022814      0.021209
    76   Atom       -0.002964      0.012300     -0.002837
    77   Atom        0.000329      0.009066      0.000576
    78   Atom       -0.003041      0.007140     -0.003001
    79   Atom       -0.001274      0.015461     -0.000969
    80   Atom       -0.008856      0.017577     -0.014954
    81   Atom       -0.015519      0.017190     -0.022220
    82   Atom       -0.002897      0.005382     -0.009283
    83   Atom        0.028032      0.118082      0.170323
    84   Atom        0.003881     -0.018184     -0.006487
    85   Atom       -0.001395     -0.020984      0.002072
    86   Atom        0.009067     -0.015686     -0.016012
    87   Atom        0.001391     -0.006410     -0.002808
 --------------------------------------------------------


 ---------------------------------------------------------------------------------
              Anisotropic Spin Dipole Couplings in Principal Axis System
 ---------------------------------------------------------------------------------

       Atom             a.u.   MegaHertz   Gauss  10(-4) cm-1        Axes

              Baa    -0.1892    -3.275    -1.169    -1.093  0.0344 -0.0394  0.9986
     1 Fe(57) Bbb     0.0873     1.512     0.539     0.504  0.9938  0.1070 -0.0300
              Bcc     0.1019     1.764     0.629     0.588 -0.1056  0.9935  0.0429
 
              Baa    -0.1801    -6.944    -2.478    -2.316  0.9905  0.0273  0.1351
     2 N(14)  Bbb    -0.1134    -4.373    -1.560    -1.459 -0.1343 -0.0283  0.9905
              Bcc     0.2934    11.317     4.038     3.775 -0.0309  0.9992  0.0244
 
              Baa    -0.1817    -7.009    -2.501    -2.338 -0.0002  0.9759  0.2183
     3 N(14)  Bbb    -0.1044    -4.028    -1.437    -1.344  0.0917 -0.2174  0.9718
              Bcc     0.2862    11.038     3.938     3.682  0.9958  0.0202 -0.0895
 
              Baa    -0.1679    -6.475    -2.310    -2.160  0.9525  0.0217 -0.3037
     4 N(14)  Bbb    -0.1102    -4.252    -1.517    -1.418  0.3037  0.0052  0.9528
              Bcc     0.2781    10.727     3.828     3.578 -0.0222  0.9998  0.0017
 
              Baa    -0.1724    -6.648    -2.372    -2.218 -0.0479  0.9776 -0.2049
     5 N(14)  Bbb    -0.1053    -4.062    -1.449    -1.355  0.0506  0.2073  0.9770
              Bcc     0.2777    10.710     3.822     3.573  0.9976  0.0364 -0.0594
 
              Baa    -0.0306    -4.111    -1.467    -1.371  0.8625  0.4981  0.0893
     6 C(13)  Bbb    -0.0255    -3.421    -1.221    -1.141 -0.0754 -0.0480  0.9960
              Bcc     0.0561     7.531     2.687     2.512 -0.5004  0.8658  0.0039
 
              Baa    -0.0185    -2.479    -0.885    -0.827  0.9927  0.1149  0.0357
     7 C(13)  Bbb     0.0033     0.447     0.159     0.149 -0.0269 -0.0767  0.9967
              Bcc     0.0151     2.033     0.725     0.678 -0.1173  0.9904  0.0730
 
              Baa    -0.0191    -2.563    -0.915    -0.855  0.9965 -0.0519  0.0654
     8 C(13)  Bbb     0.0042     0.566     0.202     0.189 -0.0643  0.0226  0.9977
              Bcc     0.0149     1.997     0.713     0.666  0.0533  0.9984 -0.0192
 
              Baa    -0.0303    -4.065    -1.451    -1.356  0.8954 -0.4356 -0.0925
     9 C(13)  Bbb    -0.0270    -3.621    -1.292    -1.208  0.0688 -0.0697  0.9952
              Bcc     0.0573     7.686     2.743     2.564  0.4400  0.8974  0.0324
 
              Baa    -0.0303    -4.071    -1.453    -1.358 -0.4782  0.8768  0.0509
    10 C(13)  Bbb    -0.0254    -3.411    -1.217    -1.138  0.0250 -0.0443  0.9987
              Bcc     0.0558     7.481     2.670     2.496  0.8779  0.4788 -0.0008
 
              Baa    -0.0186    -2.490    -0.889    -0.831 -0.0948  0.9836  0.1532
[...]
    28 C(13)  Bbb    -0.0134    -1.794    -0.640    -0.598  0.7316 -0.6817  0.0076
              Bcc     0.0331     4.437     1.583     1.480  0.6740  0.7215 -0.1587
 
              Baa    -0.0081    -4.333    -1.546    -1.445  0.1281  0.0754  0.9889
    29 H(1)   Bbb    -0.0071    -3.787    -1.351    -1.263  0.7242 -0.6883 -0.0414
              Bcc     0.0152     8.120     2.897     2.708  0.6776  0.7215 -0.1428
 
              Baa    -0.0049    -0.664    -0.237    -0.221  0.9216  0.3806  0.0761
    30 C(13)  Bbb    -0.0046    -0.621    -0.222    -0.207 -0.0661 -0.0392  0.9970
              Bcc     0.0096     1.285     0.458     0.428 -0.3824  0.9239  0.0110
 
              Baa    -0.0040    -2.109    -0.752    -0.703 -0.4966 -0.0946  0.8628
    31 H(1)   Bbb    -0.0035    -1.880    -0.671    -0.627  0.7442  0.4652  0.4793
              Bcc     0.0075     3.988     1.423     1.330 -0.4467  0.8801 -0.1606
 
              Baa    -0.0040    -2.132    -0.761    -0.711  0.4836  0.0745  0.8721
    32 H(1)   Bbb    -0.0035    -1.891    -0.675    -0.631  0.7488  0.4807 -0.4563
              Bcc     0.0075     4.023     1.435     1.342 -0.4533  0.8737  0.1767
 
              Baa    -0.0032    -1.695    -0.605    -0.565 -0.0152 -0.0205  0.9997
    33 H(1)   Bbb    -0.0029    -1.569    -0.560    -0.523  0.9754  0.2198  0.0193
              Bcc     0.0061     3.264     1.165     1.089 -0.2201  0.9753  0.0167
 
              Baa    -0.0050    -0.669    -0.239    -0.223  0.9456 -0.3179 -0.0694
    34 C(13)  Bbb    -0.0046    -0.622    -0.222    -0.208  0.0482 -0.0742  0.9961
              Bcc     0.0096     1.291     0.461     0.431  0.3218  0.9452  0.0548
 
              Baa    -0.0041    -2.170    -0.774    -0.724 -0.5551  0.0349  0.8311
    35 H(1)   Bbb    -0.0036    -1.921    -0.686    -0.641  0.7370 -0.4427  0.5108
              Bcc     0.0077     4.091     1.460     1.365  0.3857  0.8960  0.2200
 
              Baa    -0.0040    -2.110    -0.753    -0.704  0.4402 -0.0784  0.8945
    36 H(1)   Bbb    -0.0035    -1.875    -0.669    -0.625  0.8043 -0.4083 -0.4317
              Bcc     0.0075     3.984     1.422     1.329  0.3990  0.9095 -0.1167
 
              Baa    -0.0032    -1.704    -0.608    -0.568 -0.0676 -0.0408  0.9969
    37 H(1)   Bbb    -0.0030    -1.579    -0.563    -0.527  0.9854 -0.1594  0.0603
              Bcc     0.0062     3.283     1.172     1.095  0.1564  0.9864  0.0510
 
              Baa    -0.0048    -0.640    -0.228    -0.213  0.2447  0.8054  0.5399
    38 C(13)  Bbb    -0.0045    -0.601    -0.215    -0.201 -0.1847 -0.5079  0.8414
              Bcc     0.0092     1.241     0.443     0.414  0.9518 -0.3056  0.0245
 
              Baa    -0.0035    -1.868    -0.667    -0.623 -0.0234 -0.4705  0.8821
    39 H(1)   Bbb    -0.0032    -1.724    -0.615    -0.575  0.3825  0.8110  0.4427
              Bcc     0.0067     3.591     1.282     1.198  0.9236 -0.3478 -0.1610
 
              Baa    -0.0041    -2.209    -0.788    -0.737  0.0379  0.4314  0.9014
    40 H(1)   Bbb    -0.0037    -1.954    -0.697    -0.652  0.4306  0.8069 -0.4043
              Bcc     0.0078     4.163     1.485     1.388  0.9017 -0.4035  0.1552
 
              Baa    -0.0032    -1.697    -0.605    -0.566 -0.0276  0.2791  0.9599
    41 H(1)   Bbb    -0.0028    -1.520    -0.543    -0.507  0.1564  0.9496 -0.2717
              Bcc     0.0060     3.217     1.148     1.073  0.9873 -0.1426  0.0698
 
              Baa    -0.0097    -1.300    -0.464    -0.433  0.2904 -0.3366  0.8958
    42 C(13)  Bbb    -0.0023    -0.309    -0.110    -0.103 -0.2830  0.8640  0.4164
              Bcc     0.0120     1.609     0.574     0.537  0.9141  0.3744 -0.1556
 
              Baa    -0.0040    -2.155    -0.769    -0.719  0.0873 -0.1302  0.9876
    43 H(1)   Bbb    -0.0037    -1.958    -0.699    -0.653 -0.4775  0.8646  0.1562
              Bcc     0.0077     4.113     1.468     1.372  0.8743  0.4853 -0.0133
 
              Baa    -0.0080    -1.067    -0.381    -0.356 -0.1504  0.8994  0.4104
    44 C(13)  Bbb    -0.0006    -0.077    -0.028    -0.026  0.8073  0.3514 -0.4742
              Bcc     0.0085     1.144     0.408     0.382  0.5707 -0.2600  0.7789
 
              Baa    -0.0025    -1.322    -0.472    -0.441  0.2372 -0.2730  0.9323
    45 H(1)   Bbb    -0.0017    -0.921    -0.329    -0.307  0.0329  0.9614  0.2731
              Bcc     0.0042     2.244     0.801     0.748  0.9709  0.0341 -0.2371
 
              Baa    -0.0022    -1.148    -0.410    -0.383 -0.2561  0.7613  0.5957
    46 H(1)   Bbb    -0.0017    -0.917    -0.327    -0.306  0.3180 -0.5156  0.7957
              Bcc     0.0039     2.065     0.737     0.689  0.9129  0.3932 -0.1100
 
              Baa    -0.0047    -0.633    -0.226    -0.211  0.7342 -0.2769 -0.6199
    47 C(13)  Bbb    -0.0045    -0.602    -0.215    -0.201  0.6006 -0.1610  0.7832
              Bcc     0.0092     1.235     0.441     0.412  0.3167  0.9473 -0.0482
 
              Baa    -0.0035    -1.862    -0.665    -0.621  0.7936 -0.0986  0.6004
    48 H(1)   Bbb    -0.0032    -1.726    -0.616    -0.576 -0.5328  0.3639  0.7640
              Bcc     0.0067     3.589     1.280     1.197  0.2938  0.9262 -0.2363
 
              Baa    -0.0040    -2.157    -0.770    -0.719 -0.0921 -0.0012  0.9957
    49 H(1)   Bbb    -0.0036    -1.897    -0.677    -0.633  0.8856 -0.4572  0.0814
              Bcc     0.0076     4.053     1.446     1.352  0.4552  0.8893  0.0432
 
              Baa    -0.0031    -1.671    -0.596    -0.557  0.1221 -0.0757  0.9896
    50 H(1)   Bbb    -0.0028    -1.514    -0.540    -0.505  0.9760 -0.1719 -0.1336
              Bcc     0.0060     3.185     1.136     1.062  0.1803  0.9822  0.0529
 
              Baa    -0.0085    -1.135    -0.405    -0.379  0.6727  0.2336  0.7021
    51 C(13)  Bbb    -0.0028    -0.379    -0.135    -0.126 -0.6340 -0.3072  0.7097
              Bcc     0.0113     1.514     0.540     0.505 -0.3815  0.9225  0.0585
 
              Baa    -0.0041    -2.166    -0.773    -0.722  0.4639 -0.0067  0.8859
    52 H(1)   Bbb    -0.0037    -1.980    -0.706    -0.660  0.7787  0.4800 -0.4042
              Bcc     0.0078     4.146     1.479     1.383 -0.4225  0.8773  0.2279
 
              Baa    -0.0067    -0.894    -0.319    -0.298 -0.6725 -0.1700  0.7203
    53 C(13)  Bbb     0.0005     0.072     0.026     0.024 -0.5492  0.7670 -0.3317
              Bcc     0.0061     0.823     0.294     0.274  0.4961  0.6187  0.6092
 
              Baa    -0.0025    -1.313    -0.469    -0.438  0.6084  0.1897  0.7706
    54 H(1)   Bbb    -0.0019    -1.013    -0.362    -0.338  0.7855 -0.0053 -0.6188
              Bcc     0.0044     2.326     0.830     0.776 -0.1133  0.9818 -0.1522
 
              Baa    -0.0020    -1.090    -0.389    -0.364 -0.4529 -0.2571  0.8537
    55 H(1)   Bbb    -0.0017    -0.916    -0.327    -0.305  0.8123  0.2757  0.5139
              Bcc     0.0038     2.005     0.716     0.669 -0.3675  0.9262  0.0840
 
              Baa    -0.0050    -0.671    -0.239    -0.224  0.3356  0.9262  0.1718
    56 C(13)  Bbb    -0.0044    -0.591    -0.211    -0.197  0.0625 -0.2039  0.9770
              Bcc     0.0094     1.261     0.450     0.421  0.9399 -0.3172 -0.1263
 
              Baa    -0.0033    -1.774    -0.633    -0.592  0.2492  0.8420 -0.4784
    57 H(1)   Bbb    -0.0032    -1.721    -0.614    -0.574  0.0744  0.4759  0.8763
              Bcc     0.0066     3.495     1.247     1.166  0.9656 -0.2540  0.0559
 
              Baa    -0.0041    -2.206    -0.787    -0.736  0.1004 -0.1458  0.9842
    58 H(1)   Bbb    -0.0036    -1.939    -0.692    -0.647  0.4834  0.8717  0.0799
              Bcc     0.0078     4.145     1.479     1.383  0.8696 -0.4678 -0.1580
 
              Baa    -0.0033    -1.769    -0.631    -0.590  0.3322  0.4860  0.8084
    59 H(1)   Bbb    -0.0032    -1.696    -0.605    -0.566  0.0161  0.8540 -0.5200
              Bcc     0.0065     3.465     1.236     1.156  0.9431 -0.1858 -0.2759
 
              Baa    -0.0049    -0.663    -0.237    -0.221 -0.3482  0.9189  0.1853
    60 C(13)  Bbb    -0.0046    -0.621    -0.222    -0.207  0.0843 -0.1662  0.9825
              Bcc     0.0096     1.284     0.458     0.428  0.9336  0.3577 -0.0196
 
              Baa    -0.0033    -1.740    -0.621    -0.580 -0.0589  0.0419  0.9974
    61 H(1)   Bbb    -0.0030    -1.619    -0.578    -0.540 -0.1939  0.9796 -0.0526
              Bcc     0.0063     3.358     1.198     1.120  0.9792  0.1965  0.0496
 
              Baa    -0.0035    -1.891    -0.675    -0.631 -0.1320  0.7165  0.6850
    62 H(1)   Bbb    -0.0033    -1.783    -0.636    -0.595  0.4079 -0.5905  0.6964
              Bcc     0.0069     3.674     1.311     1.226  0.9034  0.3713 -0.2143
 
              Baa    -0.0042    -2.225    -0.794    -0.742  0.0747 -0.3349  0.9393
    63 H(1)   Bbb    -0.0037    -1.950    -0.696    -0.650 -0.4751  0.8162  0.3288
              Bcc     0.0078     4.175     1.490     1.393  0.8768  0.4708  0.0982
 
              Baa    -0.0049    -0.662    -0.236    -0.221 -0.6035  0.7972  0.0159
    64 C(13)  Bbb    -0.0049    -0.655    -0.234    -0.218  0.7433  0.5697 -0.3507
              Bcc     0.0098     1.316     0.470     0.439  0.2886  0.1999  0.9363
 
              Baa    -0.0032    -1.727    -0.616    -0.576  0.8728  0.3528 -0.3373
    65 H(1)   Bbb    -0.0031    -1.660    -0.592    -0.554 -0.3430  0.9350  0.0905
              Bcc     0.0063     3.387     1.208     1.130  0.3473  0.0367  0.9370
 
              Baa    -0.0032    -1.713    -0.611    -0.571  0.2431  0.9302 -0.2748
    66 H(1)   Bbb    -0.0031    -1.643    -0.586    -0.548  0.9622 -0.2672 -0.0531
              Bcc     0.0063     3.356     1.197     1.119  0.1229  0.2515  0.9600
 
              Baa    -0.0039    -2.106    -0.751    -0.703 -0.7055  0.7063  0.0585
    67 H(1)   Bbb    -0.0037    -1.966    -0.701    -0.656  0.5857  0.6276 -0.5130
              Bcc     0.0076     4.072     1.453     1.358  0.3990  0.3276  0.8564
 
              Baa    -0.0156    -0.603    -0.215    -0.201  0.6888  0.7235  0.0450
    68 N(14)  Bbb    -0.0057    -0.219    -0.078    -0.073  0.7247 -0.6855 -0.0703
              Bcc     0.0213     0.823     0.294     0.274  0.0200 -0.0810  0.9965
 
              Baa    -0.0061    -3.277    -1.169    -1.093  0.7200 -0.6903 -0.0710
    69 H(1)   Bbb    -0.0058    -3.103    -1.107    -1.035  0.6855  0.6916  0.2275
              Bcc     0.0120     6.380     2.277     2.128 -0.1079 -0.2125  0.9712
 
              Baa    -0.0117    -1.574    -0.562    -0.525  0.6893  0.7013 -0.1820
    70 C(13)  Bbb    -0.0088    -1.174    -0.419    -0.392 -0.7028  0.7082  0.0673
              Bcc     0.0205     2.748     0.981     0.917  0.1761  0.0815  0.9810
 
              Baa    -0.0272    -3.653    -1.304    -1.219  0.7401  0.5422  0.3977
    71 C(13)  Bbb    -0.0244    -3.275    -1.169    -1.092 -0.6273  0.7698  0.1178
              Bcc     0.0516     6.929     2.472     2.311 -0.2423 -0.3366  0.9099
 
              Baa    -0.0213   -11.359    -4.053    -3.789  0.7206 -0.6908 -0.0603
    72 H(1)   Bbb    -0.0200   -10.685    -3.813    -3.564  0.5733  0.5446  0.6122
              Bcc     0.0413    22.044     7.866     7.353 -0.3901 -0.4757  0.7884
 
              Baa    -0.1716    -6.617    -2.361    -2.207  0.6888  0.7218 -0.0671
    73 N(14)  Bbb    -0.1429    -5.512    -1.967    -1.839  0.7188 -0.6921 -0.0662
              Bcc     0.3145    12.130     4.328     4.046  0.0942  0.0026  0.9955
 
              Baa    -0.0339    -4.554    -1.625    -1.519  0.7125 -0.6990 -0.0613
    74 C(13)  Bbb    -0.0243    -3.258    -1.162    -1.087  0.5761  0.6326 -0.5176
              Bcc     0.0582     7.812     2.788     2.606  0.4006  0.3335  0.8534
 
              Baa    -0.0215   -11.467    -4.092    -3.825 -0.6919  0.7219  0.0150
    75 H(1)   Bbb    -0.0204   -10.890    -3.886    -3.632 -0.4981 -0.4922  0.7138
              Bcc     0.0419    22.356     7.977     7.457  0.5227  0.4864  0.7001
 
              Baa    -0.0096    -1.286    -0.459    -0.429  0.1791  0.9830  0.0401
    76 C(13)  Bbb    -0.0078    -1.051    -0.375    -0.350  0.7071 -0.1003 -0.7000
              Bcc     0.0174     2.337     0.834     0.779  0.6841 -0.1538  0.7130
 
              Baa    -0.0066    -3.532    -1.260    -1.178  0.1168  0.9846 -0.1302
    77 H(1)   Bbb    -0.0061    -3.265    -1.165    -1.089  0.7898 -0.1716 -0.5888
              Bcc     0.0127     6.798     2.426     2.267  0.6021  0.0340  0.7977
 
              Baa    -0.0054    -2.868    -1.023    -0.957  0.2287  0.9588  0.1685
    78 H(1)   Bbb    -0.0051    -2.710    -0.967    -0.904 -0.6955  0.0398  0.7174
              Bcc     0.0105     5.578     1.990     1.860  0.6811 -0.2813  0.6760
 
              Baa    -0.0120    -6.415    -2.289    -2.140  0.0243  0.9986  0.0460
    79 H(1)   Bbb    -0.0103    -5.504    -1.964    -1.836 -0.5861 -0.0231  0.8099
              Bcc     0.0223    11.918     4.253     3.975  0.8099 -0.0466  0.5847
 
              Baa    -0.0181    -2.423    -0.865    -0.808  0.8640  0.4422 -0.2409
    80 C(13)  Bbb    -0.0154    -2.067    -0.737    -0.689 -0.2725  0.8129  0.5147
              Bcc     0.0335     4.490     1.602     1.498  0.4234 -0.3790  0.8229
 
              Baa    -0.0198   -10.577    -3.774    -3.528  0.8928  0.3412 -0.2940
    81 H(1)   Bbb    -0.0182    -9.730    -3.472    -3.246 -0.0518  0.7261  0.6856
              Bcc     0.0381    20.306     7.246     6.773  0.4474 -0.5969  0.6659
 
              Baa    -0.0092    -4.917    -1.754    -1.640  0.8261  0.5624  0.0368
    82 H(1)   Bbb    -0.0083    -4.444    -1.586    -1.482 -0.5114  0.7206  0.4682
              Bcc     0.0175     9.361     3.340     3.122  0.2368 -0.4056  0.8828
 
              Baa    -0.2978   -12.209    -4.356    -4.072  0.9836 -0.1404 -0.1130
    83 S(33)  Bbb    -0.2747   -11.262    -4.019    -3.757  0.1123  0.9680 -0.2245
              Bcc     0.5725    23.471     8.375     7.829  0.1409  0.2082  0.9679
 
              Baa    -0.0190    -2.551    -0.910    -0.851 -0.3441  0.9389 -0.0037
    84 C(13)  Bbb    -0.0158    -2.118    -0.756    -0.706  0.8512  0.3136  0.4208
              Bcc     0.0348     4.669     1.666     1.557 -0.3963 -0.1416  0.9071
 
              Baa    -0.0162    -8.666    -3.092    -2.891  0.0031  0.9980 -0.0638
    85 H(1)   Bbb    -0.0141    -7.520    -2.683    -2.508  0.8131  0.0347  0.5811
              Bcc     0.0303    16.186     5.776     5.399 -0.5821  0.0537  0.8113
 
              Baa    -0.0163    -8.686    -3.099    -2.897 -0.6721  0.7393  0.0422
    86 H(1)   Bbb    -0.0151    -8.075    -2.882    -2.694  0.6072  0.5176  0.6028
              Bcc     0.0314    16.761     5.981     5.591 -0.4238 -0.4308  0.7968
 
              Baa    -0.0091    -4.866    -1.736    -1.623 -0.3694  0.9292  0.0103
    87 H(1)   Bbb    -0.0075    -3.981    -1.421    -1.328  0.8860  0.3489  0.3055
              Bcc     0.0166     8.847     3.157     2.951 -0.2803 -0.1220  0.9521
 

 ---------------------------------------------------------------------------------

 Unable to Open any file for archive entry.
 1\1\GINC-BGN1031\SP\UAPFD\Gen\C37H42Fe1N6S1(1+,6)\BECSLEIP\13-Nov-2024
 \0\\# apfd/gen scf=maxcycle=999 geom=check\\6k9i_III_H\\1,6\Fe,0,1.164
 9878783,15.4366065426,-0.0359813979\N,0,2.7714116259,15.6704813211,1.0
 750574278\N,0,0.1307785603,14.7579562869,1.5078493743\N,0,-0.449215122
 1,15.204008142,-1.2232910778\N,0,2.1578032414,16.1361010809,-1.6435967
 752\C,0,3.9509764113,16.232433235,0.7141014643\C,0,4.9078543144,16.142
 9330679,1.795619087\C,0,4.2779705655,15.4940577923,2.8105254863\C,0,2.
 9333980725,15.2253876939,2.3475568847\C,0,0.6393550249,14.4340764897,2
 .7264553061\C,0,-0.4048765048,13.9468237961,3.5930904919\C,0,-1.561525
 2958,14.0043465069,2.8741913607\C,0,-1.2026486518,14.5027418357,1.5677
 211804\C,0,-1.7081536511,14.9258402071,-0.7956582522\C,0,-2.6391791896
 ,14.9318804519,-1.906900046\C,0,-1.8897296784,15.1759792101,-3.0268866
 098\C,0,-0.5393638324,15.3808530081,-2.5694380741\C,0,1.7426722244,16.
 1835516809,-2.9348735221\C,0,2.7233127444,16.8526198606,-3.7668251295\
 C,0,3.7698317493,17.1607541094,-2.9384787928\C,0,3.4042628849,16.68289
 66247,-1.6298284837\C,0,4.2272004219,16.7822528681,-0.5211473998\H,0,5
 .1978183904,17.2323584615,-0.6616147606\C,0,1.9572945941,14.6152323571
 ,3.1122932972\H,0,2.2321230843,14.3027978187,4.1090273975\C,0,-2.07549
 2269,14.62170757,0.5017594791\H,0,-3.1173936224,14.4005065529,0.676313
 5551\C,0,0.504199083,15.7699876352,-3.3905006538\H,0,0.3111265219,15.8
 345280175,-4.4503817963\C,0,6.3052425006,16.6558303124,1.7217154913\H,
 0,6.3120326867,17.7236597037,1.502592906\H,0,6.8564369135,16.145582943
 4,0.9307884598\H,0,6.8288279897,16.4946795129,2.6609738832\C,0,4.79903
 29604,15.1078869548,4.1520013202\H,0,4.7300196549,14.0288926676,4.2899
 925437\H,0,4.2221659901,15.5870022407,4.9440553794\H,0,5.8403500694,15
 .4009560093,4.2619643569\C,0,5.0116567968,17.9142223276,-3.2633997671\
 H,0,5.8498726906,17.2340668081,-3.424418049\H,0,5.2770356858,18.589662
 2691,-2.4514775821\H,0,4.8661115414,18.4991190696,-4.169405709\C,0,2.5
 658628426,17.1136309095,-5.1805436807\H,0,1.5527511441,17.3145457586,-
 5.5116612831\C,0,3.5469702227,17.1190512955,-6.0772407633\H,0,4.563445
 1733,16.8808024898,-5.8169748334\H,0,3.3600447564,17.338410329,-7.1153
 086966\C,0,-2.350696727,15.3331052171,-4.4344375293\H,0,-2.1465326059,
 14.4307760629,-5.0141257872\H,0,-1.8407140639,16.1654308455,-4.9175047
 874\H,0,-3.4220636866,15.5218539311,-4.4574925322\C,0,-4.063594481,14.
 7076504968,-1.7918369476\H,0,-4.5264113209,15.1011804817,-0.8939359056
 \C,0,-4.8183067104,14.0723801952,-2.6819503294\H,0,-4.4033125435,13.62
 13131415,-3.5664233123\H,0,-5.8800120923,13.9571071207,-2.5408043131\C
 ,0,-2.9204480793,13.6114260849,3.3458649165\H,0,-2.9424527612,12.54925
 61335,3.5959713725\H,0,-3.6764505786,13.7977283299,2.5887054957\H,0,-3
 .186674191,14.1702181699,4.2437207284\C,0,-0.2433945134,13.4836822942,
 5.0003862007\H,0,-0.9830560942,12.717474886,5.2301239881\H,0,-0.388267
 0721,14.3120730782,5.698223141\H,0,0.7484091466,13.0680458803,5.165729
 2125\C,0,-0.6137892441,20.7059090689,-0.2501006993\H,0,0.1138946155,21
 .4865480955,-0.0282965423\H,0,-1.5504135298,20.9621720338,0.2448960086
 \H,0,-0.7818895685,20.6819416888,-1.3223301541\N,0,0.1806527177,19.114
 5438234,1.5142522175\H,0,0.1004862954,19.7626771042,2.2804790661\C,0,-
 0.1194845004,19.3814926634,0.203941021\C,0,0.6083296571,17.8334341385,
 1.5839287714\H,0,0.9115931309,17.3487035685,2.4888063327\N,0,0.5961712
 476,17.2749679423,0.3985971187\C,0,0.145512473,18.2238862697,-0.469841
 8746\H,0,0.0422460923,18.0094205971,-1.5129168075\C,0,0.2987728576,11.
 3084669438,0.7863645943\H,0,1.1803813177,10.7064886141,0.9939814329\H,
 0,-0.5690787412,10.6540932714,0.7277013965\H,0,0.1538528568,12.0025064
 21,1.6086667951\C,0,0.4668365529,12.060545855,-0.5198301816\H,0,-0.408
 9781401,12.6690996729,-0.7373422169\H,0,0.6505620631,11.3691228998,-1.
 3416802939\S,0,1.9270157026,13.1781590213,-0.4348309221\C,0,2.44275267
 91,13.0725681734,-2.1757594698\H,0,3.2879892942,13.7421763741,-2.29271
 472\H,0,1.6304137691,13.3922109553,-2.8206712503\H,0,2.7424895814,12.0
 514606278,-2.3973262312\\Version=ES64L-G16RevC.02\State=6-A\HF=-3423.9
 904814\S2=8.759545\S2-1=0.\S2A=8.750027\RMSD=9.816e-09\Dipole=-0.35777
 12,1.3138384,0.825261\Quadrupole=-1.356803,-6.2204856,7.5772886,5.3592
 466,-0.9167484,2.1783591\PG=C01 [X(C37H42Fe1N6S1)]\\@
 The archive entry for this job was punched.


 AND ALL THIS SCIENCE I DON'T UNDERSTAND
 IT'S JUST MY JOB FIVE DAYS A WEEK

                           -- ELTON JOHN, "ROCKET MAN"
 Job cpu time:       0 days  2 hours 18 minutes 54.8 seconds.
 Elapsed time:       0 days  0 hours  2 minutes 22.7 seconds.
 File lengths (MBytes):  RWF=    505 Int=      0 D2E=      0 Chk=    236 Scr=      1
 Normal termination of Gaussian 16 at Wed Nov 13 01:50:27 2024.
