 Entering Gaussian System, Link 0=g16
 Input=6k9i12.com
 Output=6k9i12.log
 Initial command:
 /sw/chem/gaussian/g16_C02/a100/g16/l1.exe "/local/becsleip_8078395/Gau-1253912.inp" -scrdir="/local/becsleip_8078395/"
 Entering Link 1 = /sw/chem/gaussian/g16_C02/a100/g16/l1.exe PID=   1253913.
  
 Copyright (c) 1988-2021, Gaussian, Inc.  All Rights Reserved.
  
 This is part of the Gaussian(R) 16 program.  It is based on
 the Gaussian(R) 09 system (copyright 2009, Gaussian, Inc.),
 the Gaussian(R) 03 system (copyright 2003, Gaussian, Inc.),
 the Gaussian(R) 98 system (copyright 1998, Gaussian, Inc.),
 the Gaussian(R) 94 system (copyright 1995, Gaussian, Inc.),
 the Gaussian 92(TM) system (copyright 1992, Gaussian, Inc.),
 the Gaussian 90(TM) system (copyright 1990, Gaussian, Inc.),
 the Gaussian 88(TM) system (copyright 1988, Gaussian, Inc.),
 the Gaussian 86(TM) system (copyright 1986, Carnegie Mellon
 University), and the Gaussian 82(TM) system (copyright 1983,
 Carnegie Mellon University). Gaussian is a federally registered
 trademark of Gaussian, Inc.
  
 This software contains proprietary and confidential information,
 including trade secrets, belonging to Gaussian, Inc.
  
 This software is provided under written license and may be
 used, copied, transmitted, or stored only in accord with that
 written license.
  
 The following legend is applicable only to US Government
 contracts under FAR:
  
                    RESTRICTED RIGHTS LEGEND
  
 Use, reproduction and disclosure by the US Government is
 subject to restrictions as set forth in subparagraphs (a)
 and (c) of the Commercial Computer Software - Restricted
 Rights clause in FAR 52.227-19.
  
 Gaussian, Inc.
 340 Quinnipiac St., Bldg. 40, Wallingford CT 06492
  
  
 ---------------------------------------------------------------
 Warning -- This program may not be used in any manner that
 competes with the business of Gaussian, Inc. or will provide
 assistance to any competitor of Gaussian, Inc.  The licensee
 of this program is prohibited from giving any competitor of
 Gaussian, Inc. access to this program.  By using this program,
 the user acknowledges that Gaussian, Inc. is engaged in the
 business of creating and licensing software in the field of
 computational chemistry and represents and warrants to the
 licensee that it is not a competitor of Gaussian, Inc. and that
 it will not use this program in any manner prohibited above.
 ---------------------------------------------------------------
  

 Cite this work as:
 Gaussian 16, Revision C.02,
 M. J. Frisch, G. W. Trucks, H. B. Schlegel, G. E. Scuseria, 
 M. A. Robb, J. R. Cheeseman, G. Scalmani, V. Barone, 
 G. A. Petersson, H. Nakatsuji, X. Li, M. Caricato, A. V. Marenich, 
 J. Bloino, B. G. Janesko, R. Gomperts, B. Mennucci, H. P. Hratchian, 
 J. V. Ortiz, A. F. Izmaylov, J. L. Sonnenberg, D. Williams-Young, 
 F. Ding, F. Lipparini, F. Egidi, J. Goings, B. Peng, A. Petrone, 
 T. Henderson, D. Ranasinghe, V. G. Zakrzewski, J. Gao, N. Rega, 
 G. Zheng, W. Liang, M. Hada, M. Ehara, K. Toyota, R. Fukuda, 
 J. Hasegawa, M. Ishida, T. Nakajima, Y. Honda, O. Kitao, H. Nakai, 
 T. Vreven, K. Throssell, J. A. Montgomery, Jr., J. E. Peralta, 
 F. Ogliaro, M. J. Bearpark, J. J. Heyd, E. N. Brothers, K. N. Kudin, 
 V. N. Staroverov, T. A. Keith, R. Kobayashi, J. Normand, 
 K. Raghavachari, A. P. Rendell, J. C. Burant, S. S. Iyengar, 
 J. Tomasi, M. Cossi, J. M. Millam, M. Klene, C. Adamo, R. Cammi, 
 J. W. Ochterski, R. L. Martin, K. Morokuma, O. Farkas, 
 J. B. Foresman, and D. J. Fox, Gaussian, Inc., Wallingford CT, 2019.
 
 ******************************************
 Gaussian 16:  ES64L-G16RevC.02  7-Dec-2021
                12-Nov-2024 
 ******************************************
 %mem=16GB
 %CPU=0-71
 SetSPE:  set environment variable "OMP_PROC_BIND" = "true"
 SetSPE:  set environment variable "OMP_PLACES" = "{0},{1},{2},{3},{4},{5},{6},{7},{8},{9},{10},{11},{12},{13},{14},{15},{16},{17},{18},{19},{20},{21},{22},{23},{24},{25},{26},{27},{28},{29},{30},{31},{32},{33},{34},{35},{36},{37},{38},{39},{40},{41},{42},{43},{44},{45},{46},{47},{48},{49},{50},{51},{52},{53},{54},{55},{56},{57},{58},{59},{60},{61},{62},{63},{64},{65},{66},{67},{68},{69},{70},{71}"
 Will use up to   72 processors via shared memory.
 %gpucpu=0,1,2,3=0,1,2,3
 Will use    4 GPUs:
 Thread  CPU   GPU
      0    0     0
      1    1     1
      2    2     2
      3    3     3
      4    4    -1
      5    5    -1
      6    6    -1
      7    7    -1
      8    8    -1
      9    9    -1
     10   10    -1
     11   11    -1
     12   12    -1
     13   13    -1
     14   14    -1
     15   15    -1
     16   16    -1
     17   17    -1
     18   18    -1
     19   19    -1
     20   20    -1
     21   21    -1
     22   22    -1
     23   23    -1
     24   24    -1
     25   25    -1
     26   26    -1
     27   27    -1
     28   28    -1
     29   29    -1
     30   30    -1
     31   31    -1
     32   32    -1
     33   33    -1
     34   34    -1
     35   35    -1
     36   36    -1
     37   37    -1
     38   38    -1
     39   39    -1
     40   40    -1
     41   41    -1
     42   42    -1
     43   43    -1
     44   44    -1
     45   45    -1
     46   46    -1
     47   47    -1
     48   48    -1
     49   49    -1
     50   50    -1
     51   51    -1
     52   52    -1
     53   53    -1
     54   54    -1
     55   55    -1
     56   56    -1
     57   57    -1
     58   58    -1
     59   59    -1
     60   60    -1
     61   61    -1
     62   62    -1
     63   63    -1
     64   64    -1
     65   65    -1
     66   66    -1
     67   67    -1
     68   68    -1
     69   69    -1
     70   70    -1
     71   71    -1
 SetGPE:  set environment variable "OMP_PROC_BIND" = "true"
 SetGPE:  set environment variable "OMP_PLACES" = "{0},{1},{2},{3},{4},{5},{6},{7},{8},{9},{10},{11},{12},{13},{14},{15},{16},{17},{18},{19},{20},{21},{22},{23},{24},{25},{26},{27},{28},{29},{30},{31},{32},{33},{34},{35},{36},{37},{38},{39},{40},{41},{42},{43},{44},{45},{46},{47},{48},{49},{50},{51},{52},{53},{54},{55},{56},{57},{58},{59},{60},{61},{62},{63},{64},{65},{66},{67},{68},{69},{70},{71}"
 %oldchk=6k9i_II_Sre.chk
 %chk=6k9i_III_Dn.chk
 Properties for Device   0
 Minimum vector length:                              32
 Maximum vector length:                            1024
 Number of SMPs:                                    108
 Maximum number of threads per SMP:                2048
 Number of ASync Engines:                             5
 Memory:                                           9207742464
 Properties for Device   1
 Minimum vector length:                              32
 Maximum vector length:                            1024
 Number of SMPs:                                    108
 Maximum number of threads per SMP:                2048
 Number of ASync Engines:                             5
 Memory:                                           9207742464
 Properties for Device   2
 Minimum vector length:                              32
 Maximum vector length:                            1024
 Number of SMPs:                                    108
 Maximum number of threads per SMP:                2048
 Number of ASync Engines:                             5
 Memory:                                           9207742464
 Properties for Device   3
 Minimum vector length:                              32
 Maximum vector length:                            1024
 Number of SMPs:                                    108
 Maximum number of threads per SMP:                2048
 Number of ASync Engines:                             5
 Memory:                                           9207742464
   8286968217 words of memory will be used on each GPU.
 Copying data from "6k9i_II_Sre.chk" to current chk file "6k9i_III_Dn.chk"
 IOpt=  2 FromEx=T IUOpen= 4 IOptOp= 5 NList=   0 IFRang= 0 IUIn= 4 IUOut= 2.
 --------------------------------------------------------------
 # apfd/def2TZVP guess=read scf=maxcycle=999 geom=check pop=nbo
 --------------------------------------------------------------
 1/29=2,38=1,172=1/1;
 2/12=2,40=1/2;
 3/5=44,7=101,11=2,14=-4,25=1,30=1,74=-44,116=-2/1,2,3;
 4/5=1/1;
 5/5=2,7=999,38=6/2;
 6/7=2,8=2,9=2,10=2,28=1,40=1/1,7;
 99/5=1,9=1/99;
 ----------
 6k9i_III_D
 ----------
 Structure from the checkpoint file:  "6k9i_III_Dn.chk"
 Charge =  1 Multiplicity = 2
 Z-Matrix found in chk file.
 Fe,0,1.1649878783,15.4366065426,-0.0359813979
 N,0,2.7714116259,15.6704813211,1.0750574278
 N,0,0.1307785603,14.7579562869,1.5078493743
 N,0,-0.4492151221,15.204008142,-1.2232910778
 N,0,2.1578032414,16.1361010809,-1.6435967752
 C,0,3.9509764113,16.232433235,0.7141014643
 C,0,4.9078543144,16.1429330679,1.795619087
 C,0,4.2779705655,15.4940577923,2.8105254863
 C,0,2.9333980725,15.2253876939,2.3475568847
 C,0,0.6393550249,14.4340764897,2.7264553061
 C,0,-0.4048765048,13.9468237961,3.5930904919
 C,0,-1.5615252958,14.0043465069,2.8741913607
 C,0,-1.2026486518,14.5027418357,1.5677211804
 C,0,-1.7081536511,14.9258402071,-0.7956582522
 C,0,-2.6391791896,14.9318804519,-1.906900046
 C,0,-1.8897296784,15.1759792101,-3.0268866098
 C,0,-0.5393638324,15.3808530081,-2.5694380741
 C,0,1.7426722244,16.1835516809,-2.9348735221
 C,0,2.7233127444,16.8526198606,-3.7668251295
 C,0,3.7698317493,17.1607541094,-2.9384787928
 C,0,3.4042628849,16.6828966247,-1.6298284837
 C,0,4.2272004219,16.7822528681,-0.5211473998
 H,0,5.1978183904,17.2323584615,-0.6616147606
 C,0,1.9572945941,14.6152323571,3.1122932972
 H,0,2.2321230843,14.3027978187,4.1090273975
 C,0,-2.075492269,14.62170757,0.5017594791
 H,0,-3.1173936224,14.4005065529,0.6763135551
 C,0,0.504199083,15.7699876352,-3.3905006538
 H,0,0.3111265219,15.8345280175,-4.4503817963
 C,0,6.3052425006,16.6558303124,1.7217154913
 H,0,6.3120326867,17.7236597037,1.502592906
 H,0,6.8564369135,16.1455829434,0.9307884598
 H,0,6.8288279897,16.4946795129,2.6609738832
 C,0,4.7990329604,15.1078869548,4.1520013202
 H,0,4.7300196549,14.0288926676,4.2899925437
 H,0,4.2221659901,15.5870022407,4.9440553794
 H,0,5.8403500694,15.4009560093,4.2619643569
 C,0,5.0116567968,17.9142223276,-3.2633997671
 H,0,5.8498726906,17.2340668081,-3.424418049
 H,0,5.2770356858,18.5896622691,-2.4514775821
 H,0,4.8661115414,18.4991190696,-4.169405709
 C,0,2.5658628426,17.1136309095,-5.1805436807
 H,0,1.5527511441,17.3145457586,-5.5116612831
 C,0,3.5469702227,17.1190512955,-6.0772407633
 H,0,4.5634451733,16.8808024898,-5.8169748334
 H,0,3.3600447564,17.338410329,-7.1153086966
 C,0,-2.350696727,15.3331052171,-4.4344375293
 H,0,-2.1465326059,14.4307760629,-5.0141257872
 H,0,-1.8407140639,16.1654308455,-4.9175047874
 H,0,-3.4220636866,15.5218539311,-4.4574925322
 C,0,-4.063594481,14.7076504968,-1.7918369476
 H,0,-4.5264113209,15.1011804817,-0.8939359056
 C,0,-4.8183067104,14.0723801952,-2.6819503294
 H,0,-4.4033125435,13.6213131415,-3.5664233123
 H,0,-5.8800120923,13.9571071207,-2.5408043131
 C,0,-2.9204480793,13.6114260849,3.3458649165
 H,0,-2.9424527612,12.5492561335,3.5959713725
 H,0,-3.6764505786,13.7977283299,2.5887054957
 H,0,-3.186674191,14.1702181699,4.2437207284
 C,0,-0.2433945134,13.4836822942,5.0003862007
 H,0,-0.9830560942,12.717474886,5.2301239881
 H,0,-0.3882670721,14.3120730782,5.698223141
 H,0,0.7484091466,13.0680458803,5.1657292125
 C,0,-0.6137892441,20.7059090689,-0.2501006993
 H,0,0.1138946155,21.4865480955,-0.0282965423
 H,0,-1.5504135298,20.9621720338,0.2448960086
 H,0,-0.7818895685,20.6819416888,-1.3223301541
 N,0,0.1806527177,19.1145438234,1.5142522175
 H,0,0.1004862954,19.7626771042,2.2804790661
 C,0,-0.1194845004,19.3814926634,0.203941021
 C,0,0.6083296571,17.8334341385,1.5839287714
 H,0,0.9115931309,17.3487035685,2.4888063327
 N,0,0.5961712476,17.2749679423,0.3985971187
 C,0,0.145512473,18.2238862697,-0.4698418746
 H,0,0.0422460923,18.0094205971,-1.5129168075
 C,0,0.2987728576,11.3084669438,0.7863645943
 H,0,1.1803813177,10.7064886141,0.9939814329
 H,0,-0.5690787412,10.6540932714,0.7277013965
 H,0,0.1538528568,12.002506421,1.6086667951
 C,0,0.4668365529,12.060545855,-0.5198301816
 H,0,-0.4089781401,12.6690996729,-0.7373422169
 H,0,0.6505620631,11.3691228998,-1.3416802939
 S,0,1.9270157026,13.1781590213,-0.4348309221
 C,0,2.4427526791,13.0725681734,-2.1757594698
 H,0,3.2879892942,13.7421763741,-2.29271472
 H,0,1.6304137691,13.3922109553,-2.8206712503
 H,0,2.7424895814,12.0514606278,-2.3973262312
 Recover connectivity data from disk.
 Stoichiometry    C37H42FeN6S(1+,2)
 Framework group  C1[X(C37H42FeN6S)]
 Deg. of freedom   255
 Full point group                 C1      NOp   1
 Largest Abelian subgroup         C1      NOp   1
 Largest concise Abelian subgroup C1      NOp   1
                         Standard orientation:                         
 ---------------------------------------------------------------------
 Center     Atomic      Atomic             Coordinates (Angstroms)
 Number     Number       Type             X           Y           Z
 ---------------------------------------------------------------------
      1         26           0       -0.086903   -0.239123   -0.097453
      2          7           0       -0.011573   -2.204808   -0.087002
      3          7           0       -2.057000   -0.260337    0.080974
      4          7           0       -0.108344    1.777844   -0.126495
      5          7           0        1.919120   -0.149059   -0.262261
      6          6           0        1.093859   -2.989189   -0.072264
      7          6           0        0.725916   -4.386334   -0.149132
      8          6           0       -0.630572   -4.420428   -0.230407
      9          6           0       -1.075353   -3.044669   -0.168304
     10          6           0       -2.853882   -1.357281   -0.020228
     11          6           0       -4.238876   -0.988011    0.135722
     12          6           0       -4.257524    0.357182    0.354968
     13          6           0       -2.882966    0.795443    0.304256
     14          6           0       -1.182681    2.558429    0.159262
     15          6           0       -0.815025    3.960677    0.143982
     16          6           0        0.507801    4.001015   -0.208344
     17          6           0        0.932409    2.630136   -0.331301
     18          6           0        2.699640    0.943259   -0.461289
     19          6           0        4.104170    0.586503   -0.422905
     20          6           0        4.141255   -0.771240   -0.245522
     21          6           0        2.770455   -1.207450   -0.173526
     22          6           0        2.395243   -2.532060   -0.028966
     23          1           0        3.182071   -3.269038    0.017830
     24          6           0       -2.401978   -2.657485   -0.174840
     25          1           0       -3.145202   -3.437186   -0.254267
     26          6           0       -2.471768    2.113292    0.384728
     27          1           0       -3.222386    2.864682    0.576934
     28          6           0        2.240960    2.244001   -0.561926
     29          1           0        2.966962    3.019990   -0.750479
     30          6           0        1.704671   -5.510159   -0.165741
     31          1           0        2.328515   -5.490247    0.727983
     32          1           0        2.358453   -5.432429   -1.035373
     33          1           0        1.194563   -6.469531   -0.207150
     34          6           0       -1.540006   -5.594054   -0.355791
     35          1           0       -2.139065   -5.515052   -1.262940
     36          1           0       -2.220865   -5.648878    0.494563
     37          1           0       -0.972614   -6.520567   -0.400092
     38          6           0        5.332779   -1.645493   -0.068412
     39          1           0        5.585745   -2.153838   -1.000473
     40          1           0        5.145318   -2.404800    0.689331
     41          1           0        6.189371   -1.049582    0.240254
     42          6           0        5.197669    1.524410   -0.549819
     43          1           0        5.021440    2.511058   -0.135247
     44          6           0        6.367703    1.270569   -1.127099
     45          1           0        6.582883    0.326859   -1.597026
     46          1           0        7.146526    2.013572   -1.172109
     47          6           0        1.399343    5.188141   -0.327779
     48          1           0        1.552225    5.456590   -1.374909
     49          1           0        2.374420    4.985084    0.112897
     50          1           0        0.957266    6.040056    0.184855
     51          6           0       -1.715058    5.053487    0.440938
     52          1           0       -2.454445    4.853130    1.208046
     53          6           0       -1.698366    6.246485   -0.143817
     54          1           0       -1.017729    6.482759   -0.943117
     55          1           0       -2.388657    7.023141    0.140320
     56          6           0       -5.464313    1.202857    0.583066
     57          1           0       -6.116672    1.176201   -0.291554
     58          1           0       -5.197326    2.237739    0.776136
     59          1           0       -6.034026    0.829152    1.434560
     60          6           0       -5.411820   -1.905561    0.077735
     61          1           0       -6.284228   -1.375228   -0.302534
     62          1           0       -5.655093   -2.284185    1.073555
     63          1           0       -5.213541   -2.755951   -0.571332
     64          6           0        1.427057    0.794598    5.157525
     65          1           0        1.960573    0.004922    5.686571
     66          1           0        0.692763    1.225248    5.838195
     67          1           0        2.137129    1.566593    4.877649
     68          7           0       -0.176642   -0.730252    3.983001
     69          1           0       -0.515609   -1.183499    4.815632
     70          6           0        0.769840    0.259913    3.938203
     71          6           0       -0.560369   -0.988183    2.712084
     72          1           0       -1.293857   -1.719346    2.441657
     73          7           0        0.085013   -0.221588    1.867775
     74          6           0        0.915038    0.560438    2.614246
     75          1           0        1.554565    1.281954    2.150473
     76          6           0       -2.903387    0.370251   -3.285587
     77          1           0       -2.871944   -0.398835   -4.053854
     78          1           0       -3.576125    1.163009   -3.607721
     79          1           0       -3.297493   -0.068929   -2.374172
     80          6           0       -1.516897    0.936113   -3.045884
     81          1           0       -1.535183    1.705784   -2.276487
     82          1           0       -1.102456    1.343737   -3.967480
     83         16           0       -0.367618   -0.391227   -2.492952
     84          6           0        1.154319    0.238082   -3.264732
     85          1           0        1.954017   -0.434040   -2.972818
     86          1           0        1.365566    1.238468   -2.900617
     87          1           0        1.035781    0.229563   -4.345227
 ---------------------------------------------------------------------
 Rotational constants (GHZ):           0.0835867           0.0808516           0.0581058
 Standard basis: def2TZVP (5D, 7F)
 There are  1894 symmetry adapted cartesian basis functions of A   symmetry.
 There are  1667 symmetry adapted basis functions of A   symmetry.
  1667 basis functions,  2700 primitive gaussians,  1894 cartesian basis functions
   174 alpha electrons      173 beta electrons
       nuclear repulsion energy      7154.1723267384 Hartrees.
 NAtoms=   87 NActive=   87 NUniq=   87 SFac= 1.00D+00 NAtFMM=   60 NAOKFM=T Big=T
 Integral buffers will be    131072 words long.
 Raffenetti 2 integral format.
 Two-electron integral symmetry is turned on.
 R6APFD:  NTU= -4 IXU= 1 FactS= 1.050
 Nuclear repulsion after empirical dispersion term =     7153.9885064314 Hartrees.
 One-electron integrals computed using PRISM.
   1 Symmetry operations used in ECPInt.
 ECPInt:  NShTT=  224115 NPrTT=  692067 LenC2=  178274 LenP2D=  363013.
 LDataN:  DoStor=T MaxTD1= 6 Len=  172
 Number of processors reduced to  21 by ecpmxn.
 NBasis=  1667 RedAO= T EigKep=  3.39D-06  NBF=  1667
 NBsUse=  1667 1.00D-06 EigRej= -1.00D+00 NBFU=  1667
 Initial guess from the checkpoint file:  "6k9i_III_Dn.chk"
 B after Tr=     0.000000    0.000000   -0.000000
         Rot=    1.000000    0.000000   -0.000000   -0.000000 Ang=   0.00 deg.
 Initial guess <Sx>= 0.0000 <Sy>= 0.0000 <Sz>= 0.5000 <S**2>= 0.8093 S= 0.5292
 Requested convergence on RMS density matrix=1.00D-08 within 999 cycles.
 Requested convergence on MAX density matrix=1.00D-06.
 Requested convergence on             energy=1.00D-06.
 No special actions if energy rises.
 EnCoef did     8 forward-backward iterations
 Restarting incremental Fock formation.
 Restarting incremental Fock formation.
 SCF Done:  E(UAPFD) =  -3424.66845294     A.U. after   45 cycles
            NFock= 45  Conv=0.21D-08     -V/T= 2.0033
 <Sx>= 0.0000 <Sy>= 0.0000 <Sz>= 0.5000 <S**2>= 0.8167 S= 0.5328
 <L.S>=  0.00000000000    
 Annihilation of the first spin contaminant:
 S**2 before annihilation     0.8167,   after     0.7511

 **********************************************************************

            Population analysis using the SCF Density.

 **********************************************************************

 Orbital symmetries:
 Alpha Orbitals:
       Occupied  (A) (A) (A) (A) (A) (A) (A) (A) (A) (A) (A) (A)
                 (A) (A) (A) (A) (A) (A) (A) (A) (A) (A) (A) (A)
                 (A) (A) (A) (A) (A) (A) (A) (A) (A) (A) (A) (A)
                 (A) (A) (A) (A) (A) (A) (A) (A) (A) (A) (A) (A)
                 (A) (A) (A) (A) (A) (A) (A) (A) (A) (A) (A) (A)
                 (A) (A) (A) (A) (A) (A) (A) (A) (A) (A) (A) (A)
                 (A) (A) (A) (A) (A) (A) (A) (A) (A) (A) (A) (A)
                 (A) (A) (A) (A) (A) (A) (A) (A) (A) (A) (A) (A)
                 (A) (A) (A) (A) (A) (A) (A) (A) (A) (A) (A) (A)
                 (A) (A) (A) (A) (A) (A) (A) (A) (A) (A) (A) (A)
                 (A) (A) (A) (A) (A) (A) (A) (A) (A) (A) (A) (A)
                 (A) (A) (A) (A) (A) (A) (A) (A) (A) (A) (A) (A)
                 (A) (A) (A) (A) (A) (A) (A) (A) (A) (A) (A) (A)
                 (A) (A) (A) (A) (A) (A) (A) (A) (A) (A) (A) (A)
                 (A) (A) (A) (A) (A) (A)
       Virtual   (A) (A) (A) (A) (A) (A) (A) (A) (A) (A) (A) (A)
                 (A) (A) (A) (A) (A) (A) (A) (A) (A) (A) (A) (A)
                 (A) (A) (A) (A) (A) (A) (A) (A) (A) (A) (A) (A)
                 (A) (A) (A) (A) (A) (A) (A) (A) (A) (A) (A) (A)
                 (A) (A) (A) (A) (A) (A) (A) (A) (A) (A) (A) (A)
                 (A) (A) (A) (A) (A) (A) (A) (A) (A) (A) (A) (A)
                 (A) (A) (A) (A) (A) (A) (A) (A) (A) (A) (A) (A)
                 (A) (A) (A) (A) (A) (A) (A) (A) (A) (A) (A) (A)
                 (A) (A) (A) (A) (A) (A) (A) (A) (A) (A) (A) (A)
                 (A) (A) (A) (A) (A) (A) (A) (A) (A) (A) (A) (A)
                 (A) (A) (A) (A) (A) (A) (A) (A) (A) (A) (A) (A)
                 (A) (A) (A) (A) (A) (A) (A) (A) (A) (A) (A) (A)
                 (A) (A) (A) (A) (A) (A) (A) (A) (A) (A) (A) (A)
                 (A) (A) (A) (A) (A) (A) (A) (A) (A) (A) (A) (A)
                 (A) (A) (A) (A) (A) (A) (A) (A) (A) (A) (A) (A)
                 (A) (A) (A) (A) (A) (A) (A) (A) (A) (A) (A) (A)
                 (A) (A) (A) (A) (A) (A) (A) (A) (A) (A) (A) (A)
                 (A) (A) (A) (A) (A) (A) (A) (A) (A) (A) (A) (A)
                 (A) (A) (A) (A) (A) (A) (A) (A) (A) (A) (A) (A)
                 (A) (A) (A) (A) (A) (A) (A) (A) (A) (A) (A) (A)
                 (A) (A) (A) (A) (A) (A) (A) (A) (A) (A) (A) (A)
                 (A) (A) (A) (A) (A) (A) (A) (A) (A) (A) (A) (A)
                 (A) (A) (A) (A) (A) (A) (A) (A) (A) (A) (A) (A)
                 (A) (A) (A) (A) (A) (A) (A) (A) (A) (A) (A) (A)
                 (A) (A) (A) (A) (A) (A) (A) (A) (A) (A) (A) (A)
                 (A) (A) (A) (A) (A) (A) (A) (A) (A) (A) (A) (A)
                 (A) (A) (A) (A) (A) (A) (A) (A) (A) (A) (A) (A)
                 (A) (A) (A) (A) (A) (A) (A) (A) (A) (A) (A) (A)
                 (A) (A) (A) (A) (A) (A) (A) (A) (A) (A) (A) (A)
                 (A) (A) (A) (A) (A) (A) (A) (A) (A) (A) (A) (A)
                 (A) (A) (A) (A) (A) (A) (A) (A) (A) (A) (A) (A)
                 (A) (A) (A) (A) (A) (A) (A) (A) (A) (A) (A) (A)
                 (A) (A) (A) (A) (A) (A) (A) (A) (A) (A) (A) (A)
                 (A) (A) (A) (A) (A) (A) (A) (A) (A) (A) (A) (A)
                 (A) (A) (A) (A) (A) (A) (A) (A) (A) (A) (A) (A)
                 (A) (A) (A) (A) (A) (A) (A) (A) (A) (A) (A) (A)
                 (A) (A) (A) (A) (A) (A) (A) (A) (A) (A) (A) (A)
                 (A) (A) (A) (A) (A) (A) (A) (A) (A) (A) (A) (A)
                 (A) (A) (A) (A) (A) (A) (A) (A) (A) (A) (A) (A)
                 (A) (A) (A) (A) (A) (A) (A) (A) (A) (A) (A) (A)
                 (A) (A) (A) (A) (A) (A) (A) (A) (A) (A) (A) (A)
                 (A) (A) (A) (A) (A) (A) (A) (A) (A) (A) (A) (A)
                 (A) (A) (A) (A) (A) (A) (A) (A) (A) (A) (A) (A)
                 (A) (A) (A) (A) (A) (A) (A) (A) (A) (A) (A) (A)
                 (A) (A) (A) (A) (A) (A) (A) (A) (A) (A) (A) (A)
                 (A) (A) (A) (A) (A) (A) (A) (A) (A) (A) (A) (A)
                 (A) (A) (A) (A) (A) (A) (A) (A) (A) (A) (A) (A)
                 (A) (A) (A) (A) (A) (A) (A) (A) (A) (A) (A) (A)
                 (A) (A) (A) (A) (A) (A) (A) (A) (A) (A) (A) (A)
                 (A) (A) (A) (A) (A) (A) (A) (A) (A) (A) (A) (A)
                 (A) (A) (A) (A) (A) (A) (A) (A) (A) (A) (A) (A)
                 (A) (A) (A) (A) (A) (A) (A) (A) (A) (A) (A) (A)
                 (A) (A) (A) (A) (A) (A) (A) (A) (A) (A) (A) (A)
                 (A) (A) (A) (A) (A) (A) (A) (A) (A) (A) (A) (A)
                 (A) (A) (A) (A) (A) (A) (A) (A) (A) (A) (A) (A)
                 (A) (A) (A) (A) (A) (A) (A) (A) (A) (A) (A) (A)
                 (A) (A) (A) (A) (A) (A) (A) (A) (A) (A) (A) (A)
                 (A) (A) (A) (A) (A) (A) (A) (A) (A) (A) (A) (A)
                 (A) (A) (A) (A) (A) (A) (A) (A) (A) (A) (A) (A)
                 (A) (A) (A) (A) (A) (A) (A) (A) (A) (A) (A) (A)
                 (A) (A) (A) (A) (A) (A) (A) (A) (A) (A) (A) (A)
                 (A) (A) (A) (A) (A) (A) (A) (A) (A) (A) (A) (A)
                 (A) (A) (A) (A) (A) (A) (A) (A) (A) (A) (A) (A)
                 (A) (A) (A) (A) (A) (A) (A) (A) (A) (A) (A) (A)
                 (A) (A) (A) (A) (A) (A) (A) (A) (A) (A) (A) (A)
                 (A) (A) (A) (A) (A) (A) (A) (A) (A) (A) (A) (A)
                 (A) (A) (A) (A) (A) (A) (A) (A) (A) (A) (A) (A)
                 (A) (A) (A) (A) (A) (A) (A) (A) (A) (A) (A) (A)
                 (A) (A) (A) (A) (A) (A) (A) (A) (A) (A) (A) (A)
                 (A) (A) (A) (A) (A) (A) (A) (A) (A) (A) (A) (A)
                 (A) (A) (A) (A) (A) (A) (A) (A) (A) (A) (A) (A)
                 (A) (A) (A) (A) (A) (A) (A) (A) (A) (A) (A) (A)
                 (A) (A) (A) (A) (A) (A) (A) (A) (A) (A) (A) (A)
                 (A) (A) (A) (A) (A) (A) (A) (A) (A) (A) (A) (A)
                 (A) (A) (A) (A) (A) (A) (A) (A) (A) (A) (A) (A)
                 (A) (A) (A) (A) (A) (A) (A) (A) (A) (A) (A) (A)
                 (A) (A) (A) (A) (A) (A) (A) (A) (A) (A) (A) (A)
                 (A) (A) (A) (A) (A) (A) (A) (A) (A) (A) (A) (A)
                 (A) (A) (A) (A) (A) (A) (A) (A) (A) (A) (A) (A)
                 (A) (A) (A) (A) (A) (A) (A) (A) (A) (A) (A) (A)
                 (A) (A) (A) (A) (A) (A) (A) (A) (A) (A) (A) (A)
                 (A) (A) (A) (A) (A) (A) (A) (A) (A) (A) (A) (A)
                 (A) (A) (A) (A) (A) (A) (A) (A) (A) (A) (A) (A)
                 (A) (A) (A) (A) (A) (A) (A) (A) (A) (A) (A) (A)
                 (A) (A) (A) (A) (A) (A) (A) (A) (A) (A) (A) (A)
                 (A) (A) (A) (A) (A) (A) (A) (A) (A) (A) (A) (A)
                 (A) (A) (A) (A) (A) (A) (A) (A) (A) (A) (A) (A)
                 (A) (A) (A) (A) (A) (A) (A) (A) (A) (A) (A) (A)
                 (A) (A) (A) (A) (A) (A) (A) (A) (A) (A) (A) (A)
                 (A) (A) (A) (A) (A) (A) (A) (A) (A) (A) (A) (A)
                 (A) (A) (A) (A) (A) (A) (A) (A) (A) (A) (A) (A)
                 (A) (A) (A) (A) (A) (A) (A) (A) (A) (A) (A) (A)
                 (A) (A) (A) (A) (A) (A) (A) (A) (A) (A) (A) (A)
                 (A) (A) (A) (A) (A) (A) (A) (A) (A) (A) (A) (A)
                 (A) (A) (A) (A) (A) (A) (A) (A) (A) (A) (A) (A)
                 (A) (A) (A) (A) (A) (A) (A) (A) (A) (A) (A) (A)
                 (A) (A) (A) (A) (A) (A) (A) (A) (A) (A) (A) (A)
                 (A) (A) (A) (A) (A) (A) (A) (A) (A) (A) (A) (A)
                 (A) (A) (A) (A) (A) (A) (A) (A) (A) (A) (A) (A)
                 (A) (A) (A) (A) (A) (A) (A) (A) (A) (A) (A) (A)
                 (A) (A) (A) (A) (A) (A) (A) (A) (A) (A) (A) (A)
                 (A) (A) (A) (A) (A) (A) (A) (A) (A) (A) (A) (A)
                 (A) (A) (A) (A) (A) (A) (A) (A) (A) (A) (A) (A)
                 (A) (A) (A) (A) (A) (A) (A) (A) (A) (A) (A) (A)
                 (A) (A) (A) (A) (A) (A) (A) (A) (A) (A) (A) (A)
                 (A) (A) (A) (A) (A) (A) (A) (A) (A) (A) (A) (A)
                 (A) (A) (A) (A) (A) (A) (A) (A) (A) (A) (A) (A)
                 (A) (A) (A) (A) (A) (A) (A) (A) (A) (A) (A) (A)
                 (A) (A) (A) (A) (A) (A) (A) (A) (A) (A) (A) (A)
                 (A) (A) (A) (A) (A) (A) (A) (A) (A) (A) (A) (A)
                 (A) (A) (A) (A) (A) (A) (A) (A) (A) (A) (A) (A)
                 (A) (A) (A) (A) (A) (A) (A) (A) (A) (A) (A) (A)
                 (A) (A) (A) (A) (A) (A) (A) (A) (A) (A) (A) (A)
                 (A) (A) (A) (A) (A) (A) (A) (A) (A) (A) (A) (A)
                 (A) (A) (A) (A) (A) (A) (A) (A) (A) (A) (A) (A)
                 (A) (A) (A) (A) (A) (A) (A) (A) (A) (A) (A) (A)
                 (A) (A) (A) (A) (A) (A) (A) (A) (A) (A) (A) (A)
                 (A) (A) (A) (A) (A) (A) (A) (A) (A) (A) (A) (A)
                 (A) (A) (A) (A) (A) (A) (A) (A) (A) (A) (A) (A)
                 (A) (A) (A) (A) (A) (A) (A) (A) (A) (A) (A) (A)
                 (A) (A) (A) (A) (A) (A) (A) (A) (A) (A) (A) (A)
                 (A) (A) (A) (A) (A) (A) (A) (A) (A) (A) (A) (A)
                 (A) (A) (A) (A) (A) (A) (A) (A) (A) (A) (A) (A)
                 (A) (A) (A) (A) (A) (A) (A) (A) (A) (A) (A) (A)
                 (A) (A) (A) (A) (A)
 Beta  Orbitals:
       Occupied  (A) (A) (A) (A) (A) (A) (A) (A) (A) (A) (A) (A)
                 (A) (A) (A) (A) (A) (A) (A) (A) (A) (A) (A) (A)
                 (A) (A) (A) (A) (A) (A) (A) (A) (A) (A) (A) (A)
                 (A) (A) (A) (A) (A) (A) (A) (A) (A) (A) (A) (A)
                 (A) (A) (A) (A) (A) (A) (A) (A) (A) (A) (A) (A)
                 (A) (A) (A) (A) (A) (A) (A) (A) (A) (A) (A) (A)
                 (A) (A) (A) (A) (A) (A) (A) (A) (A) (A) (A) (A)
                 (A) (A) (A) (A) (A) (A) (A) (A) (A) (A) (A) (A)
                 (A) (A) (A) (A) (A) (A) (A) (A) (A) (A) (A) (A)
                 (A) (A) (A) (A) (A) (A) (A) (A) (A) (A) (A) (A)
                 (A) (A) (A) (A) (A) (A) (A) (A) (A) (A) (A) (A)
                 (A) (A) (A) (A) (A) (A) (A) (A) (A) (A) (A) (A)
                 (A) (A) (A) (A) (A) (A) (A) (A) (A) (A) (A) (A)
                 (A) (A) (A) (A) (A) (A) (A) (A) (A) (A) (A) (A)
                 (A) (A) (A) (A) (A)
       Virtual   (A) (A) (A) (A) (A) (A) (A) (A) (A) (A) (A) (A)
                 (A) (A) (A) (A) (A) (A) (A) (A) (A) (A) (A) (A)
                 (A) (A) (A) (A) (A) (A) (A) (A) (A) (A) (A) (A)
                 (A) (A) (A) (A) (A) (A) (A) (A) (A) (A) (A) (A)
                 (A) (A) (A) (A) (A) (A) (A) (A) (A) (A) (A) (A)
                 (A) (A) (A) (A) (A) (A) (A) (A) (A) (A) (A) (A)
                 (A) (A) (A) (A) (A) (A) (A) (A) (A) (A) (A) (A)
                 (A) (A) (A) (A) (A) (A) (A) (A) (A) (A) (A) (A)
                 (A) (A) (A) (A) (A) (A) (A) (A) (A) (A) (A) (A)
                 (A) (A) (A) (A) (A) (A) (A) (A) (A) (A) (A) (A)
                 (A) (A) (A) (A) (A) (A) (A) (A) (A) (A) (A) (A)
                 (A) (A) (A) (A) (A) (A) (A) (A) (A) (A) (A) (A)
                 (A) (A) (A) (A) (A) (A) (A) (A) (A) (A) (A) (A)
                 (A) (A) (A) (A) (A) (A) (A) (A) (A) (A) (A) (A)
                 (A) (A) (A) (A) (A) (A) (A) (A) (A) (A) (A) (A)
                 (A) (A) (A) (A) (A) (A) (A) (A) (A) (A) (A) (A)
                 (A) (A) (A) (A) (A) (A) (A) (A) (A) (A) (A) (A)
                 (A) (A) (A) (A) (A) (A) (A) (A) (A) (A) (A) (A)
                 (A) (A) (A) (A) (A) (A) (A) (A) (A) (A) (A) (A)
                 (A) (A) (A) (A) (A) (A) (A) (A) (A) (A) (A) (A)
                 (A) (A) (A) (A) (A) (A) (A) (A) (A) (A) (A) (A)
                 (A) (A) (A) (A) (A) (A) (A) (A) (A) (A) (A) (A)
                 (A) (A) (A) (A) (A) (A) (A) (A) (A) (A) (A) (A)
                 (A) (A) (A) (A) (A) (A) (A) (A) (A) (A) (A) (A)
                 (A) (A) (A) (A) (A) (A) (A) (A) (A) (A) (A) (A)
                 (A) (A) (A) (A) (A) (A) (A) (A) (A) (A) (A) (A)
                 (A) (A) (A) (A) (A) (A) (A) (A) (A) (A) (A) (A)
                 (A) (A) (A) (A) (A) (A) (A) (A) (A) (A) (A) (A)
                 (A) (A) (A) (A) (A) (A) (A) (A) (A) (A) (A) (A)
                 (A) (A) (A) (A) (A) (A) (A) (A) (A) (A) (A) (A)
                 (A) (A) (A) (A) (A) (A) (A) (A) (A) (A) (A) (A)
                 (A) (A) (A) (A) (A) (A) (A) (A) (A) (A) (A) (A)
                 (A) (A) (A) (A) (A) (A) (A) (A) (A) (A) (A) (A)
                 (A) (A) (A) (A) (A) (A) (A) (A) (A) (A) (A) (A)
                 (A) (A) (A) (A) (A) (A) (A) (A) (A) (A) (A) (A)
                 (A) (A) (A) (A) (A) (A) (A) (A) (A) (A) (A) (A)
                 (A) (A) (A) (A) (A) (A) (A) (A) (A) (A) (A) (A)
                 (A) (A) (A) (A) (A) (A) (A) (A) (A) (A) (A) (A)
                 (A) (A) (A) (A) (A) (A) (A) (A) (A) (A) (A) (A)
                 (A) (A) (A) (A) (A) (A) (A) (A) (A) (A) (A) (A)
                 (A) (A) (A) (A) (A) (A) (A) (A) (A) (A) (A) (A)
                 (A) (A) (A) (A) (A) (A) (A) (A) (A) (A) (A) (A)
                 (A) (A) (A) (A) (A) (A) (A) (A) (A) (A) (A) (A)
                 (A) (A) (A) (A) (A) (A) (A) (A) (A) (A) (A) (A)
                 (A) (A) (A) (A) (A) (A) (A) (A) (A) (A) (A) (A)
                 (A) (A) (A) (A) (A) (A) (A) (A) (A) (A) (A) (A)
                 (A) (A) (A) (A) (A) (A) (A) (A) (A) (A) (A) (A)
                 (A) (A) (A) (A) (A) (A) (A) (A) (A) (A) (A) (A)
                 (A) (A) (A) (A) (A) (A) (A) (A) (A) (A) (A) (A)
                 (A) (A) (A) (A) (A) (A) (A) (A) (A) (A) (A) (A)
                 (A) (A) (A) (A) (A) (A) (A) (A) (A) (A) (A) (A)
                 (A) (A) (A) (A) (A) (A) (A) (A) (A) (A) (A) (A)
                 (A) (A) (A) (A) (A) (A) (A) (A) (A) (A) (A) (A)
                 (A) (A) (A) (A) (A) (A) (A) (A) (A) (A) (A) (A)
                 (A) (A) (A) (A) (A) (A) (A) (A) (A) (A) (A) (A)
                 (A) (A) (A) (A) (A) (A) (A) (A) (A) (A) (A) (A)
                 (A) (A) (A) (A) (A) (A) (A) (A) (A) (A) (A) (A)
                 (A) (A) (A) (A) (A) (A) (A) (A) (A) (A) (A) (A)
                 (A) (A) (A) (A) (A) (A) (A) (A) (A) (A) (A) (A)
                 (A) (A) (A) (A) (A) (A) (A) (A) (A) (A) (A) (A)
                 (A) (A) (A) (A) (A) (A) (A) (A) (A) (A) (A) (A)
                 (A) (A) (A) (A) (A) (A) (A) (A) (A) (A) (A) (A)
                 (A) (A) (A) (A) (A) (A) (A) (A) (A) (A) (A) (A)
                 (A) (A) (A) (A) (A) (A) (A) (A) (A) (A) (A) (A)
                 (A) (A) (A) (A) (A) (A) (A) (A) (A) (A) (A) (A)
                 (A) (A) (A) (A) (A) (A) (A) (A) (A) (A) (A) (A)
                 (A) (A) (A) (A) (A) (A) (A) (A) (A) (A) (A) (A)
                 (A) (A) (A) (A) (A) (A) (A) (A) (A) (A) (A) (A)
                 (A) (A) (A) (A) (A) (A) (A) (A) (A) (A) (A) (A)
                 (A) (A) (A) (A) (A) (A) (A) (A) (A) (A) (A) (A)
                 (A) (A) (A) (A) (A) (A) (A) (A) (A) (A) (A) (A)
                 (A) (A) (A) (A) (A) (A) (A) (A) (A) (A) (A) (A)
                 (A) (A) (A) (A) (A) (A) (A) (A) (A) (A) (A) (A)
                 (A) (A) (A) (A) (A) (A) (A) (A) (A) (A) (A) (A)
                 (A) (A) (A) (A) (A) (A) (A) (A) (A) (A) (A) (A)
                 (A) (A) (A) (A) (A) (A) (A) (A) (A) (A) (A) (A)
                 (A) (A) (A) (A) (A) (A) (A) (A) (A) (A) (A) (A)
                 (A) (A) (A) (A) (A) (A) (A) (A) (A) (A) (A) (A)
                 (A) (A) (A) (A) (A) (A) (A) (A) (A) (A) (A) (A)
                 (A) (A) (A) (A) (A) (A) (A) (A) (A) (A) (A) (A)
                 (A) (A) (A) (A) (A) (A) (A) (A) (A) (A) (A) (A)
                 (A) (A) (A) (A) (A) (A) (A) (A) (A) (A) (A) (A)
                 (A) (A) (A) (A) (A) (A) (A) (A) (A) (A) (A) (A)
                 (A) (A) (A) (A) (A) (A) (A) (A) (A) (A) (A) (A)
                 (A) (A) (A) (A) (A) (A) (A) (A) (A) (A) (A) (A)
                 (A) (A) (A) (A) (A) (A) (A) (A) (A) (A) (A) (A)
                 (A) (A) (A) (A) (A) (A) (A) (A) (A) (A) (A) (A)
                 (A) (A) (A) (A) (A) (A) (A) (A) (A) (A) (A) (A)
                 (A) (A) (A) (A) (A) (A) (A) (A) (A) (A) (A) (A)
                 (A) (A) (A) (A) (A) (A) (A) (A) (A) (A) (A) (A)
                 (A) (A) (A) (A) (A) (A) (A) (A) (A) (A) (A) (A)
                 (A) (A) (A) (A) (A) (A) (A) (A) (A) (A) (A) (A)
                 (A) (A) (A) (A) (A) (A) (A) (A) (A) (A) (A) (A)
                 (A) (A) (A) (A) (A) (A) (A) (A) (A) (A) (A) (A)
                 (A) (A) (A) (A) (A) (A) (A) (A) (A) (A) (A) (A)
                 (A) (A) (A) (A) (A) (A) (A) (A) (A) (A) (A) (A)
                 (A) (A) (A) (A) (A) (A) (A) (A) (A) (A) (A) (A)
                 (A) (A) (A) (A) (A) (A) (A) (A) (A) (A) (A) (A)
                 (A) (A) (A) (A) (A) (A) (A) (A) (A) (A) (A) (A)
                 (A) (A) (A) (A) (A) (A) (A) (A) (A) (A) (A) (A)
                 (A) (A) (A) (A) (A) (A) (A) (A) (A) (A) (A) (A)
                 (A) (A) (A) (A) (A) (A) (A) (A) (A) (A) (A) (A)
                 (A) (A) (A) (A) (A) (A) (A) (A) (A) (A) (A) (A)
                 (A) (A) (A) (A) (A) (A) (A) (A) (A) (A) (A) (A)
                 (A) (A) (A) (A) (A) (A) (A) (A) (A) (A) (A) (A)
                 (A) (A) (A) (A) (A) (A) (A) (A) (A) (A) (A) (A)
                 (A) (A) (A) (A) (A) (A) (A) (A) (A) (A) (A) (A)
                 (A) (A) (A) (A) (A) (A) (A) (A) (A) (A) (A) (A)
                 (A) (A) (A) (A) (A) (A) (A) (A) (A) (A) (A) (A)
                 (A) (A) (A) (A) (A) (A) (A) (A) (A) (A) (A) (A)
                 (A) (A) (A) (A) (A) (A) (A) (A) (A) (A) (A) (A)
                 (A) (A) (A) (A) (A) (A) (A) (A) (A) (A) (A) (A)
                 (A) (A) (A) (A) (A) (A) (A) (A) (A) (A) (A) (A)
                 (A) (A) (A) (A) (A) (A) (A) (A) (A) (A) (A) (A)
                 (A) (A) (A) (A) (A) (A) (A) (A) (A) (A) (A) (A)
                 (A) (A) (A) (A) (A) (A) (A) (A) (A) (A) (A) (A)
                 (A) (A) (A) (A) (A) (A) (A) (A) (A) (A) (A) (A)
                 (A) (A) (A) (A) (A) (A) (A) (A) (A) (A) (A) (A)
                 (A) (A) (A) (A) (A) (A) (A) (A) (A) (A) (A) (A)
                 (A) (A) (A) (A) (A) (A) (A) (A) (A) (A) (A) (A)
                 (A) (A) (A) (A) (A) (A) (A) (A) (A) (A) (A) (A)
                 (A) (A) (A) (A) (A) (A) (A) (A) (A) (A) (A) (A)
                 (A) (A) (A) (A) (A) (A) (A) (A) (A) (A) (A) (A)
                 (A) (A) (A) (A) (A) (A) (A) (A) (A) (A) (A) (A)
                 (A) (A) (A) (A) (A) (A)
 The electronic state is 2-A.
 Alpha  occ. eigenvalues -- -256.37211 -89.06750 -30.24056 -26.08527 -26.08022
 Alpha  occ. eigenvalues --  -26.06501 -14.52606 -14.48570 -14.45421 -14.45393
 Alpha  occ. eigenvalues --  -14.45388 -14.45357 -10.37126 -10.34364 -10.32529
 Alpha  occ. eigenvalues --  -10.32467 -10.32437 -10.32372 -10.32349 -10.32332
 Alpha  occ. eigenvalues --  -10.32206 -10.32168 -10.32010 -10.31806 -10.31330
 Alpha  occ. eigenvalues --  -10.29944 -10.29574 -10.29566 -10.29471 -10.29390
 Alpha  occ. eigenvalues --  -10.29378 -10.29377 -10.29317 -10.29313 -10.29213
 Alpha  occ. eigenvalues --  -10.29205 -10.29177 -10.29144 -10.28714 -10.28642
 Alpha  occ. eigenvalues --  -10.27840 -10.27825 -10.27676 -10.27675 -10.27541
 Alpha  occ. eigenvalues --  -10.27494 -10.27410 -10.27392 -10.27273  -8.09406
 Alpha  occ. eigenvalues --   -6.03950  -6.03680  -6.03224  -3.62591  -2.40512
 Alpha  occ. eigenvalues --   -2.39363  -2.36179  -1.16561  -1.08719  -1.07696
 Alpha  occ. eigenvalues --   -1.07668  -1.06687  -1.02350  -0.93342  -0.93062
 Alpha  occ. eigenvalues --   -0.92030  -0.91773  -0.91280  -0.90894  -0.90519
 Alpha  occ. eigenvalues --   -0.90449  -0.90427  -0.86596  -0.85472  -0.85428
 Alpha  occ. eigenvalues --   -0.85055  -0.84111  -0.82749  -0.82001  -0.81043
 Alpha  occ. eigenvalues --   -0.80049  -0.78421  -0.78182  -0.77943  -0.75941
 Alpha  occ. eigenvalues --   -0.75616  -0.74985  -0.74927  -0.72185  -0.70548
 Alpha  occ. eigenvalues --   -0.70029  -0.69720  -0.68643  -0.68010  -0.66773
 Alpha  occ. eigenvalues --   -0.65055  -0.64311  -0.63503  -0.63195  -0.61740
 Alpha  occ. eigenvalues --   -0.61671  -0.61272  -0.59150  -0.58908  -0.58438
 Alpha  occ. eigenvalues --   -0.58150  -0.57991  -0.57828  -0.55793  -0.55560
 Alpha  occ. eigenvalues --   -0.55011  -0.54878  -0.54402  -0.54341  -0.53859
 Alpha  occ. eigenvalues --   -0.53818  -0.53490  -0.53376  -0.53254  -0.53055
 Alpha  occ. eigenvalues --   -0.53030  -0.52653  -0.52272  -0.52036  -0.51876
 Alpha  occ. eigenvalues --   -0.51861  -0.51410  -0.50492  -0.50400  -0.50385
 Alpha  occ. eigenvalues --   -0.50139  -0.50054  -0.49944  -0.49786  -0.49548
 Alpha  occ. eigenvalues --   -0.49345  -0.48895  -0.48757  -0.48412  -0.48263
 Alpha  occ. eigenvalues --   -0.47866  -0.47692  -0.47571  -0.47385  -0.47156
 Alpha  occ. eigenvalues --   -0.46685  -0.46444  -0.46071  -0.45618  -0.45523
 Alpha  occ. eigenvalues --   -0.44984  -0.44678  -0.44183  -0.43598  -0.43322
 Alpha  occ. eigenvalues --   -0.42780  -0.42454  -0.42114  -0.41505  -0.40619
 Alpha  occ. eigenvalues --   -0.40448  -0.39437  -0.39101  -0.38775  -0.37362
 Alpha  occ. eigenvalues --   -0.37075  -0.36891  -0.34765  -0.33225  -0.33130
 Alpha  occ. eigenvalues --   -0.32181  -0.31991  -0.29346  -0.28876
 Alpha virt. eigenvalues --   -0.17734  -0.17543  -0.16810  -0.13587  -0.12043
 Alpha virt. eigenvalues --   -0.09645  -0.08898  -0.07649  -0.07498  -0.06421
 Alpha virt. eigenvalues --   -0.05743  -0.05114  -0.04784  -0.04311  -0.03755
 Alpha virt. eigenvalues --   -0.03104  -0.02606  -0.02522  -0.02398  -0.02123
 Alpha virt. eigenvalues --   -0.01783  -0.01235  -0.01033  -0.00572  -0.00369
 Alpha virt. eigenvalues --   -0.00068   0.00347   0.00740   0.01113   0.01412
 Alpha virt. eigenvalues --    0.01427   0.01666   0.02239   0.02499   0.02619
 Alpha virt. eigenvalues --    0.02897   0.03077   0.03235   0.03402   0.03668
 Alpha virt. eigenvalues --    0.03917   0.04035   0.04154   0.04253   0.04298
 Alpha virt. eigenvalues --    0.04476   0.04636   0.04875   0.05195   0.05333
 Alpha virt. eigenvalues --    0.05570   0.05716   0.05796   0.05961   0.06302
 Alpha virt. eigenvalues --    0.06584   0.06722   0.06996   0.07598   0.07688
 Alpha virt. eigenvalues --    0.07837   0.08005   0.08124   0.08373   0.08537
 Alpha virt. eigenvalues --    0.08594   0.08605   0.08812   0.08973   0.09282
 Alpha virt. eigenvalues --    0.09613   0.09723   0.10054   0.10207   0.10743
 Alpha virt. eigenvalues --    0.10913   0.11099   0.11469   0.11776   0.12094
 Alpha virt. eigenvalues --    0.12206   0.12584   0.12815   0.12849   0.13292
 Alpha virt. eigenvalues --    0.13543   0.13746   0.13931   0.14329   0.14546
 Alpha virt. eigenvalues --    0.14760   0.15171   0.15280   0.15363   0.15966
 Alpha virt. eigenvalues --    0.16097   0.16374   0.16659   0.16796   0.16988
 Alpha virt. eigenvalues --    0.17134   0.17372   0.17730   0.17950   0.17966
 Alpha virt. eigenvalues --    0.18219   0.18466   0.18643   0.19127   0.19476
 Alpha virt. eigenvalues --    0.19739   0.19768   0.19914   0.20447   0.20596
 Alpha virt. eigenvalues --    0.20688   0.20751   0.21153   0.21224   0.21440
 Alpha virt. eigenvalues --    0.21794   0.22098   0.22314   0.22626   0.22775
 Alpha virt. eigenvalues --    0.23302   0.23431   0.23641   0.23878   0.24206
 Alpha virt. eigenvalues --    0.24584   0.24668   0.24840   0.25354   0.25399
 Alpha virt. eigenvalues --    0.25783   0.26246   0.26691   0.26931   0.27020
 Alpha virt. eigenvalues --    0.27192   0.27388   0.27724   0.27872   0.28298
 Alpha virt. eigenvalues --    0.28362   0.28565   0.28922   0.29068   0.29226
 Alpha virt. eigenvalues --    0.29606   0.29870   0.30177   0.30461   0.30621
 Alpha virt. eigenvalues --    0.30849   0.30861   0.31042   0.31309   0.31628
 Alpha virt. eigenvalues --    0.31923   0.32028   0.32223   0.32328   0.32680
 Alpha virt. eigenvalues --    0.32860   0.33111   0.33159   0.33548   0.33664
 Alpha virt. eigenvalues --    0.33758   0.33940   0.34244   0.34530   0.34807
 Alpha virt. eigenvalues --    0.34915   0.35134   0.35213   0.35580   0.35826
 Alpha virt. eigenvalues --    0.35969   0.36205   0.36375   0.36610   0.36722
 Alpha virt. eigenvalues --    0.36868   0.37058   0.37313   0.37390   0.37534
 Alpha virt. eigenvalues --    0.37757   0.38035   0.38150   0.38493   0.38610
 Alpha virt. eigenvalues --    0.38859   0.38998   0.39008   0.39324   0.39538
 Alpha virt. eigenvalues --    0.39558   0.39881   0.40194   0.40511   0.40629
 Alpha virt. eigenvalues --    0.40917   0.40996   0.41162   0.41317   0.41420
 Alpha virt. eigenvalues --    0.41647   0.41865   0.42126   0.42220   0.42323
 Alpha virt. eigenvalues --    0.42471   0.42726   0.42894   0.43135   0.43323
 Alpha virt. eigenvalues --    0.43459   0.43703   0.43886   0.44132   0.44417
 Alpha virt. eigenvalues --    0.44778   0.44925   0.45162   0.45213   0.45413
 Alpha virt. eigenvalues --    0.45618   0.45962   0.46188   0.46415   0.46629
 Alpha virt. eigenvalues --    0.47010   0.47103   0.47157   0.47597   0.47734
 Alpha virt. eigenvalues --    0.48000   0.48140   0.48484   0.48811   0.48951
 Alpha virt. eigenvalues --    0.49162   0.49451   0.49846   0.50036   0.50263
 Alpha virt. eigenvalues --    0.50584   0.50781   0.51144   0.51811   0.52197
 Alpha virt. eigenvalues --    0.52264   0.52785   0.52975   0.53466   0.53559
 Alpha virt. eigenvalues --    0.53613   0.54104   0.54397   0.54659   0.54816
 Alpha virt. eigenvalues --    0.54926   0.55317   0.55468   0.55696   0.55782
 Alpha virt. eigenvalues --    0.56225   0.56367   0.56882   0.57137   0.57366
 Alpha virt. eigenvalues --    0.57567   0.57984   0.58248   0.58597   0.58866
 Alpha virt. eigenvalues --    0.59166   0.59583   0.59828   0.60271   0.60741
 Alpha virt. eigenvalues --    0.61223   0.61277   0.61568   0.61724   0.62058
 Alpha virt. eigenvalues --    0.62390   0.62572   0.63001   0.63563   0.63936
 Alpha virt. eigenvalues --    0.64088   0.64241   0.64534   0.64704   0.65175
 Alpha virt. eigenvalues --    0.65501   0.66100   0.66313   0.66712   0.67150
 Alpha virt. eigenvalues --    0.67341   0.67409   0.67668   0.67981   0.68378
 Alpha virt. eigenvalues --    0.68423   0.69040   0.69221   0.69689   0.69758
 Alpha virt. eigenvalues --    0.70098   0.70482   0.70825   0.71037   0.71299
 Alpha virt. eigenvalues --    0.71707   0.71959   0.72181   0.72554   0.72910
 Alpha virt. eigenvalues --    0.73614   0.73743   0.74264   0.74492   0.74758
 Alpha virt. eigenvalues --    0.74998   0.75413   0.75771   0.76598   0.76930
 Alpha virt. eigenvalues --    0.77062   0.77713   0.78200   0.78432   0.78873
 Alpha virt. eigenvalues --    0.79025   0.79444   0.79649   0.79752   0.80199
 Alpha virt. eigenvalues --    0.80294   0.80663   0.81362   0.81773   0.81938
 Alpha virt. eigenvalues --    0.82225   0.82376   0.82921   0.83211   0.83384
 Alpha virt. eigenvalues --    0.83611   0.84037   0.84388   0.84626   0.84728
 Alpha virt. eigenvalues --    0.84910   0.85288   0.85582   0.85942   0.86328
 Alpha virt. eigenvalues --    0.86453   0.86992   0.87325   0.87714   0.87818
 Alpha virt. eigenvalues --    0.88245   0.88439   0.88824   0.89263   0.89618
 Alpha virt. eigenvalues --    0.89983   0.90112   0.90326   0.90999   0.91210
 Alpha virt. eigenvalues --    0.91445   0.91577   0.92007   0.92339   0.92651
 Alpha virt. eigenvalues --    0.92822   0.93031   0.93360   0.93549   0.93841
 Alpha virt. eigenvalues --    0.94068   0.94528   0.94580   0.95129   0.95326
 Alpha virt. eigenvalues --    0.95918   0.95952   0.96447   0.96966   0.97541
 Alpha virt. eigenvalues --    0.97786   0.98200   0.98482   0.98763   0.99141
 Alpha virt. eigenvalues --    0.99320   1.00176   1.00503   1.00786   1.01075
 Alpha virt. eigenvalues --    1.01327   1.01563   1.01869   1.02313   1.02804
 Alpha virt. eigenvalues --    1.03146   1.03329   1.03900   1.04271   1.04679
 Alpha virt. eigenvalues --    1.04932   1.05006   1.05427   1.06018   1.06604
 Alpha virt. eigenvalues --    1.06914   1.07295   1.07497   1.07934   1.08721
 Alpha virt. eigenvalues --    1.08868   1.09417   1.09850   1.10202   1.10260
 Alpha virt. eigenvalues --    1.10387   1.10533   1.10823   1.11050   1.11389
 Alpha virt. eigenvalues --    1.11975   1.12545   1.12840   1.13058   1.13395
 Alpha virt. eigenvalues --    1.13937   1.14273   1.14985   1.15357   1.15596
 Alpha virt. eigenvalues --    1.16284   1.16475   1.17013   1.17181   1.17324
 Alpha virt. eigenvalues --    1.17829   1.18224   1.18580   1.18809   1.19140
 Alpha virt. eigenvalues --    1.19207   1.19690   1.19866   1.20322   1.20722
 Alpha virt. eigenvalues --    1.21177   1.21395   1.21710   1.22462   1.22812
 Alpha virt. eigenvalues --    1.22933   1.23608   1.24299   1.24499   1.25195
 Alpha virt. eigenvalues --    1.25605   1.26011   1.26431   1.26638   1.27128
 Alpha virt. eigenvalues --    1.27883   1.28271   1.28895   1.29571   1.29906
 Alpha virt. eigenvalues --    1.30682   1.31317   1.31743   1.32228   1.32467
 Alpha virt. eigenvalues --    1.33226   1.33321   1.34318   1.34795   1.34962
 Alpha virt. eigenvalues --    1.35431   1.36354   1.36907   1.37076   1.37399
 Alpha virt. eigenvalues --    1.37654   1.37816   1.38026   1.38406   1.38873
 Alpha virt. eigenvalues --    1.39104   1.39525   1.39900   1.40012   1.40610
 Alpha virt. eigenvalues --    1.40858   1.41083   1.41618   1.41950   1.42196
 Alpha virt. eigenvalues --    1.42826   1.43068   1.43113   1.43215   1.43639
 Alpha virt. eigenvalues --    1.43758   1.44122   1.44462   1.44692   1.44949
 Alpha virt. eigenvalues --    1.45462   1.45579   1.46150   1.46236   1.46536
 Alpha virt. eigenvalues --    1.46606   1.46980   1.47232   1.47575   1.47774
 Alpha virt. eigenvalues --    1.47848   1.47951   1.48322   1.48595   1.48959
 Alpha virt. eigenvalues --    1.49103   1.49608   1.49684   1.49927   1.50016
 Alpha virt. eigenvalues --    1.50406   1.50689   1.50911   1.51003   1.51453
 Alpha virt. eigenvalues --    1.51972   1.52131   1.52296   1.52705   1.52855
 Alpha virt. eigenvalues --    1.53210   1.53594   1.53845   1.53933   1.54361
 Alpha virt. eigenvalues --    1.54449   1.54874   1.55128   1.55576   1.55765
 Alpha virt. eigenvalues --    1.55964   1.56159   1.56331   1.56773   1.57050
 Alpha virt. eigenvalues --    1.57308   1.58116   1.58310   1.58482   1.58575
 Alpha virt. eigenvalues --    1.58670   1.58850   1.59226   1.59882   1.59972
 Alpha virt. eigenvalues --    1.60294   1.60543   1.60993   1.61323   1.61640
 Alpha virt. eigenvalues --    1.61813   1.62007   1.62384   1.62558   1.62760
 Alpha virt. eigenvalues --    1.63099   1.63737   1.63913   1.64221   1.64277
 Alpha virt. eigenvalues --    1.64892   1.65167   1.65403   1.65962   1.66581
 Alpha virt. eigenvalues --    1.67061   1.67602   1.67831   1.68127   1.68896
 Alpha virt. eigenvalues --    1.69004   1.69427   1.70006   1.70848   1.71273
 Alpha virt. eigenvalues --    1.71868   1.72013   1.72607   1.72732   1.73381
 Alpha virt. eigenvalues --    1.74092   1.74360   1.75243   1.75838   1.76050
 Alpha virt. eigenvalues --    1.76240   1.76387   1.76771   1.77089   1.77504
 Alpha virt. eigenvalues --    1.77510   1.77735   1.78132   1.78544   1.78868
 Alpha virt. eigenvalues --    1.79194   1.79835   1.80012   1.80217   1.80610
 Alpha virt. eigenvalues --    1.80990   1.81221   1.82432   1.82810   1.83144
 Alpha virt. eigenvalues --    1.83673   1.84084   1.84403   1.84842   1.85287
 Alpha virt. eigenvalues --    1.86221   1.86387   1.86501   1.86943   1.87136
 Alpha virt. eigenvalues --    1.87675   1.88335   1.88522   1.88903   1.89557
 Alpha virt. eigenvalues --    1.89853   1.90416   1.90681   1.90947   1.91493
 Alpha virt. eigenvalues --    1.91674   1.91847   1.91998   1.92858   1.93009
 Alpha virt. eigenvalues --    1.93170   1.93803   1.94484   1.94980   1.95181
 Alpha virt. eigenvalues --    1.96192   1.96361   1.97028   1.97299   1.97549
 Alpha virt. eigenvalues --    1.98405   1.98645   1.98993   1.99163   1.99955
 Alpha virt. eigenvalues --    2.00502   2.00598   2.00839   2.01396   2.01633
 Alpha virt. eigenvalues --    2.02351   2.02423   2.02825   2.03134   2.03480
 Alpha virt. eigenvalues --    2.03739   2.04256   2.04301   2.04873   2.05045
 Alpha virt. eigenvalues --    2.05562   2.06051   2.06479   2.06653   2.06829
 Alpha virt. eigenvalues --    2.07595   2.07683   2.08384   2.09008   2.09322
 Alpha virt. eigenvalues --    2.09716   2.10179   2.10972   2.11064   2.11249
 Alpha virt. eigenvalues --    2.11509   2.11623   2.11845   2.12507   2.13106
 Alpha virt. eigenvalues --    2.13650   2.14229   2.14618   2.15187   2.15683
 Alpha virt. eigenvalues --    2.16243   2.16587   2.17090   2.17155   2.17520
 Alpha virt. eigenvalues --    2.17640   2.18223   2.18635   2.19023   2.19349
 Alpha virt. eigenvalues --    2.19722   2.20170   2.20963   2.21047   2.21670
 Alpha virt. eigenvalues --    2.21979   2.22514   2.22861   2.23281   2.23629
 Alpha virt. eigenvalues --    2.24002   2.24642   2.25133   2.25423   2.25796
 Alpha virt. eigenvalues --    2.25946   2.26484   2.27652   2.27877   2.28177
 Alpha virt. eigenvalues --    2.28281   2.28619   2.28982   2.29254   2.29337
 Alpha virt. eigenvalues --    2.29452   2.30336   2.30459   2.30855   2.31499
 Alpha virt. eigenvalues --    2.32076   2.32553   2.32695   2.33305   2.33361
 Alpha virt. eigenvalues --    2.33880   2.34357   2.34629   2.35029   2.35558
 Alpha virt. eigenvalues --    2.36045   2.36275   2.36618   2.36857   2.37001
 Alpha virt. eigenvalues --    2.37517   2.37803   2.38214   2.38501   2.39140
 Alpha virt. eigenvalues --    2.39770   2.39860   2.40121   2.40301   2.40803
 Alpha virt. eigenvalues --    2.41594   2.41953   2.42154   2.42799   2.43119
 Alpha virt. eigenvalues --    2.43325   2.43667   2.44095   2.44289   2.44676
 Alpha virt. eigenvalues --    2.44873   2.45213   2.45720   2.46188   2.46496
 Alpha virt. eigenvalues --    2.46604   2.47112   2.47364   2.47484   2.47833
 Alpha virt. eigenvalues --    2.48451   2.48583   2.49029   2.49121   2.49836
 Alpha virt. eigenvalues --    2.50005   2.50250   2.50601   2.50676   2.51371
 Alpha virt. eigenvalues --    2.51685   2.51924   2.52102   2.52533   2.52761
 Alpha virt. eigenvalues --    2.52947   2.53721   2.54184   2.54312   2.54707
 Alpha virt. eigenvalues --    2.55378   2.55603   2.55706   2.55877   2.56454
 Alpha virt. eigenvalues --    2.56659   2.56865   2.57198   2.57582   2.57735
 Alpha virt. eigenvalues --    2.57964   2.58804   2.59328   2.59655   2.60088
 Alpha virt. eigenvalues --    2.60430   2.60643   2.60760   2.61006   2.61533
 Alpha virt. eigenvalues --    2.61804   2.62207   2.62738   2.62952   2.63130
 Alpha virt. eigenvalues --    2.63461   2.63932   2.64518   2.64573   2.64702
 Alpha virt. eigenvalues --    2.65573   2.65800   2.66474   2.66883   2.67019
 Alpha virt. eigenvalues --    2.67515   2.68098   2.68678   2.69060   2.69353
 Alpha virt. eigenvalues --    2.69840   2.70013   2.70490   2.70619   2.71480
 Alpha virt. eigenvalues --    2.71782   2.72132   2.72528   2.72755   2.72985
 Alpha virt. eigenvalues --    2.73469   2.73681   2.74190   2.74754   2.74952
 Alpha virt. eigenvalues --    2.75670   2.76061   2.76735   2.77168   2.77373
 Alpha virt. eigenvalues --    2.77416   2.78316   2.78485   2.78751   2.79097
 Alpha virt. eigenvalues --    2.80039   2.80148   2.80687   2.81503   2.81548
 Alpha virt. eigenvalues --    2.82192   2.82248   2.82435   2.82940   2.83185
 Alpha virt. eigenvalues --    2.83629   2.83912   2.83958   2.84390   2.84932
 Alpha virt. eigenvalues --    2.85127   2.85365   2.85593   2.86170   2.86411
 Alpha virt. eigenvalues --    2.86491   2.86937   2.87104   2.87555   2.87872
 Alpha virt. eigenvalues --    2.88427   2.88676   2.89074   2.89247   2.89351
 Alpha virt. eigenvalues --    2.89631   2.90449   2.90593   2.90850   2.90971
 Alpha virt. eigenvalues --    2.91219   2.92284   2.92428   2.92433   2.92918
 Alpha virt. eigenvalues --    2.93344   2.93434   2.93944   2.94222   2.95014
 Alpha virt. eigenvalues --    2.95202   2.95486   2.95846   2.96763   2.97379
 Alpha virt. eigenvalues --    2.97676   2.97726   2.98187   2.98517   2.98545
 Alpha virt. eigenvalues --    2.98969   2.99225   2.99387   2.99999   3.00256
 Alpha virt. eigenvalues --    3.00322   3.00774   3.00972   3.01199   3.01831
 Alpha virt. eigenvalues --    3.01846   3.02161   3.02379   3.02723   3.03096
 Alpha virt. eigenvalues --    3.03296   3.03467   3.03951   3.04526   3.04643
 Alpha virt. eigenvalues --    3.04842   3.05332   3.05499   3.05930   3.06241
 Alpha virt. eigenvalues --    3.06617   3.07129   3.07264   3.07694   3.07894
 Alpha virt. eigenvalues --    3.08012   3.08265   3.08757   3.09180   3.09271
 Alpha virt. eigenvalues --    3.09775   3.09975   3.10253   3.10777   3.10978
 Alpha virt. eigenvalues --    3.11511   3.11857   3.11950   3.12123   3.12424
 Alpha virt. eigenvalues --    3.12698   3.13021   3.13409   3.13576   3.13921
 Alpha virt. eigenvalues --    3.14161   3.14337   3.14765   3.14859   3.14993
 Alpha virt. eigenvalues --    3.15169   3.15565   3.16052   3.16275   3.16434
 Alpha virt. eigenvalues --    3.16760   3.17075   3.17236   3.17450   3.17799
 Alpha virt. eigenvalues --    3.17893   3.18019   3.18572   3.18720   3.19083
 Alpha virt. eigenvalues --    3.19359   3.19801   3.20164   3.20489   3.20862
 Alpha virt. eigenvalues --    3.20957   3.21474   3.21526   3.21808   3.21883
 Alpha virt. eigenvalues --    3.22117   3.22483   3.22751   3.22894   3.23145
 Alpha virt. eigenvalues --    3.23709   3.23974   3.24248   3.24750   3.24912
 Alpha virt. eigenvalues --    3.25036   3.25329   3.25476   3.25588   3.26015
 Alpha virt. eigenvalues --    3.26203   3.26348   3.26611   3.27136   3.27281
 Alpha virt. eigenvalues --    3.27597   3.27811   3.27974   3.28207   3.28476
 Alpha virt. eigenvalues --    3.28904   3.29117   3.29478   3.29566   3.29914
 Alpha virt. eigenvalues --    3.30321   3.30578   3.30689   3.31055   3.31543
 Alpha virt. eigenvalues --    3.31680   3.32309   3.32629   3.32964   3.33235
 Alpha virt. eigenvalues --    3.33688   3.33931   3.34427   3.34646   3.35179
 Alpha virt. eigenvalues --    3.35468   3.35703   3.36217   3.36258   3.36585
 Alpha virt. eigenvalues --    3.37062   3.37189   3.37854   3.38278   3.38596
 Alpha virt. eigenvalues --    3.38905   3.39420   3.39930   3.40660   3.40913
 Alpha virt. eigenvalues --    3.41160   3.41376   3.41812   3.42317   3.42810
 Alpha virt. eigenvalues --    3.43160   3.43929   3.44131   3.44292   3.44607
 Alpha virt. eigenvalues --    3.45135   3.45249   3.45771   3.46034   3.46555
 Alpha virt. eigenvalues --    3.46865   3.47165   3.47305   3.47881   3.48082
 Alpha virt. eigenvalues --    3.48343   3.48620   3.49149   3.49754   3.50022
 Alpha virt. eigenvalues --    3.50250   3.50906   3.51181   3.51928   3.52265
 Alpha virt. eigenvalues --    3.52569   3.52845   3.53158   3.53548   3.54147
 Alpha virt. eigenvalues --    3.54553   3.55395   3.55784   3.56244   3.56690
 Alpha virt. eigenvalues --    3.56881   3.57152   3.57526   3.57988   3.58234
 Alpha virt. eigenvalues --    3.58541   3.58972   3.59333   3.59747   3.60108
 Alpha virt. eigenvalues --    3.60464   3.60798   3.60973   3.61865   3.62008
 Alpha virt. eigenvalues --    3.62502   3.62745   3.63175   3.63888   3.63928
 Alpha virt. eigenvalues --    3.64544   3.64827   3.64885   3.65283   3.65559
 Alpha virt. eigenvalues --    3.66086   3.66953   3.67161   3.67650   3.68573
 Alpha virt. eigenvalues --    3.68890   3.69228   3.69429   3.69881   3.70248
 Alpha virt. eigenvalues --    3.71142   3.71508   3.71622   3.72044   3.72474
 Alpha virt. eigenvalues --    3.73192   3.73289   3.74107   3.74581   3.75143
 Alpha virt. eigenvalues --    3.76004   3.76971   3.77437   3.77734   3.78371
 Alpha virt. eigenvalues --    3.79035   3.79235   3.80182   3.80344   3.81047
 Alpha virt. eigenvalues --    3.81404   3.82007   3.82302   3.82709   3.83281
 Alpha virt. eigenvalues --    3.83732   3.84611   3.85386   3.86137   3.86296
 Alpha virt. eigenvalues --    3.87106   3.87540   3.88423   3.88805   3.89171
 Alpha virt. eigenvalues --    3.89748   3.90069   3.90609   3.91200   3.91726
 Alpha virt. eigenvalues --    3.91785   3.91883   3.92649   3.93034   3.93338
 Alpha virt. eigenvalues --    3.94026   3.95442   3.95749   3.96058   3.96791
 Alpha virt. eigenvalues --    3.97240   3.98191   3.98613   3.98721   3.99763
 Alpha virt. eigenvalues --    4.00505   4.01154   4.01765   4.02674   4.03066
 Alpha virt. eigenvalues --    4.04008   4.04159   4.04909   4.05576   4.06205
 Alpha virt. eigenvalues --    4.06642   4.07337   4.07930   4.08207   4.08655
 Alpha virt. eigenvalues --    4.09385   4.09716   4.10625   4.10884   4.11601
 Alpha virt. eigenvalues --    4.11988   4.12755   4.12969   4.13267   4.14093
 Alpha virt. eigenvalues --    4.14456   4.15015   4.16038   4.16555   4.16934
 Alpha virt. eigenvalues --    4.17168   4.17870   4.18030   4.18635   4.19234
 Alpha virt. eigenvalues --    4.20253   4.20356   4.20968   4.21367   4.21918
 Alpha virt. eigenvalues --    4.22531   4.22660   4.23739   4.23897   4.24078
 Alpha virt. eigenvalues --    4.24767   4.25305   4.25493   4.26508   4.26803
 Alpha virt. eigenvalues --    4.27678   4.28073   4.28701   4.29507   4.30394
 Alpha virt. eigenvalues --    4.30490   4.30934   4.31171   4.31878   4.32406
 Alpha virt. eigenvalues --    4.32561   4.33252   4.33617   4.34826   4.34928
 Alpha virt. eigenvalues --    4.35363   4.35723   4.36097   4.36478   4.36970
 Alpha virt. eigenvalues --    4.37204   4.37562   4.38376   4.39222   4.39341
 Alpha virt. eigenvalues --    4.40047   4.40852   4.41584   4.42345   4.43933
 Alpha virt. eigenvalues --    4.44769   4.45034   4.46165   4.46305   4.47140
 Alpha virt. eigenvalues --    4.47402   4.48134   4.49003   4.49351   4.50000
 Alpha virt. eigenvalues --    4.51056   4.52567   4.53305   4.54330   4.55091
 Alpha virt. eigenvalues --    4.56276   4.56950   4.57775   4.59019   4.59563
 Alpha virt. eigenvalues --    4.59772   4.60132   4.61009   4.61445   4.62585
 Alpha virt. eigenvalues --    4.62933   4.63523   4.63961   4.64502   4.64690
 Alpha virt. eigenvalues --    4.65807   4.66015   4.66924   4.69204   4.70721
 Alpha virt. eigenvalues --    4.71264   4.72551   4.72788   4.73613   4.74101
 Alpha virt. eigenvalues --    4.74685   4.74936   4.75410   4.75756   4.76287
 Alpha virt. eigenvalues --    4.76464   4.77534   4.78541   4.79149   4.79460
 Alpha virt. eigenvalues --    4.80771   4.82232   4.83463   4.84254   4.84820
 Alpha virt. eigenvalues --    4.84961   4.85207   4.86157   4.87148   4.87338
 Alpha virt. eigenvalues --    4.88985   4.90139   4.91289   4.91540   4.92425
 Alpha virt. eigenvalues --    4.93595   4.94226   4.94616   4.95046   4.96331
 Alpha virt. eigenvalues --    4.96971   4.97711   4.98883   4.99911   5.01044
 Alpha virt. eigenvalues --    5.01398   5.03403   5.04584   5.05881   5.07660
 Alpha virt. eigenvalues --    5.09428   5.10405   5.10753   5.11386   5.12073
 Alpha virt. eigenvalues --    5.13263   5.14920   5.15662   5.17369   5.17582
 Alpha virt. eigenvalues --    5.18740   5.19756   5.20305   5.21543   5.24684
 Alpha virt. eigenvalues --    5.25904   5.27279   5.27739   5.28021   5.28507
 Alpha virt. eigenvalues --    5.29501   5.29813   5.31315   5.32035   5.33427
 Alpha virt. eigenvalues --    5.36038   5.37178   5.38233   5.39271   5.40700
 Alpha virt. eigenvalues --    5.41550   5.42932   5.43484   5.46938   5.49976
 Alpha virt. eigenvalues --    5.50066   5.51535   5.52183   5.52844   5.53784
 Alpha virt. eigenvalues --    5.55300   5.55645   5.56989   5.57305   5.58380
 Alpha virt. eigenvalues --    5.61849   5.63224   5.66713   5.67469   5.71788
 Alpha virt. eigenvalues --    5.76165   5.76486   5.83272   5.83874   5.87523
 Alpha virt. eigenvalues --    5.89547   5.90251   5.90891   5.91071   5.93088
 Alpha virt. eigenvalues --    5.98713   6.03278   6.04045   6.04801   6.05544
 Alpha virt. eigenvalues --    6.08324   6.11283   6.16793   6.23855   6.24760
 Alpha virt. eigenvalues --    6.30931   9.16750   9.34035   9.45405  19.91274
 Alpha virt. eigenvalues --   22.26997  22.27501  22.31630  22.35147  22.35296
 Alpha virt. eigenvalues --   22.37291  22.37926  22.41425  22.43630  22.44629
 Alpha virt. eigenvalues --   22.50607  22.53345  22.71652  22.77371  22.78131
 Alpha virt. eigenvalues --   22.83987  22.85747  22.86352  22.87182  22.89588
 Alpha virt. eigenvalues --   22.93475  22.94829  23.00966  23.04042  23.17399
 Alpha virt. eigenvalues --   23.18508  23.20994  23.22191  23.32034  23.32905
 Alpha virt. eigenvalues --   23.40839  23.42287  23.46437  23.63964  23.68600
 Alpha virt. eigenvalues --   23.69486  23.79202  32.31161  32.72122  32.84956
 Alpha virt. eigenvalues --   32.94082  32.96965  33.02855
  Beta  occ. eigenvalues -- -256.37176 -89.06784 -30.21848 -26.06193 -26.06011
  Beta  occ. eigenvalues --  -26.05319 -14.52597 -14.48643 -14.45470 -14.45447
  Beta  occ. eigenvalues --  -14.45443 -14.45405 -10.37099 -10.34366 -10.32521
  Beta  occ. eigenvalues --  -10.32455 -10.32429 -10.32374 -10.32353 -10.32321
  Beta  occ. eigenvalues --  -10.32209 -10.32169 -10.32003 -10.31806 -10.31330
  Beta  occ. eigenvalues --  -10.29945 -10.29571 -10.29556 -10.29477 -10.29381
  Beta  occ. eigenvalues --  -10.29381 -10.29367 -10.29298 -10.29293 -10.29219
  Beta  occ. eigenvalues --  -10.29205 -10.29182 -10.29151 -10.28721 -10.28642
  Beta  occ. eigenvalues --  -10.27841 -10.27825 -10.27677 -10.27676 -10.27542
  Beta  occ. eigenvalues --  -10.27495 -10.27399 -10.27393 -10.27274  -8.09439
  Beta  occ. eigenvalues --   -6.03973  -6.03723  -6.03305  -3.57226  -2.33144
  Beta  occ. eigenvalues --   -2.33109  -2.32594  -1.16561  -1.08739  -1.07717
  Beta  occ. eigenvalues --   -1.07689  -1.06706  -1.02383  -0.93343  -0.93130
  Beta  occ. eigenvalues --   -0.92029  -0.91771  -0.91269  -0.90889  -0.90526
  Beta  occ. eigenvalues --   -0.90447  -0.90427  -0.86594  -0.85489  -0.85428
  Beta  occ. eigenvalues --   -0.85067  -0.84108  -0.82747  -0.81996  -0.81045
  Beta  occ. eigenvalues --   -0.80054  -0.78429  -0.78194  -0.77955  -0.75978
  Beta  occ. eigenvalues --   -0.75639  -0.74983  -0.74926  -0.72183  -0.70549
  Beta  occ. eigenvalues --   -0.70046  -0.69747  -0.68637  -0.68007  -0.66775
  Beta  occ. eigenvalues --   -0.65057  -0.64320  -0.63506  -0.63198  -0.61759
  Beta  occ. eigenvalues --   -0.61690  -0.61287  -0.59125  -0.58913  -0.58359
  Beta  occ. eigenvalues --   -0.58122  -0.57967  -0.57835  -0.55727  -0.55532
  Beta  occ. eigenvalues --   -0.54920  -0.54851  -0.54393  -0.54329  -0.53836
  Beta  occ. eigenvalues --   -0.53810  -0.53485  -0.53376  -0.53250  -0.53050
  Beta  occ. eigenvalues --   -0.53043  -0.52642  -0.52228  -0.51969  -0.51869
  Beta  occ. eigenvalues --   -0.51847  -0.51409  -0.50472  -0.50383  -0.50352
  Beta  occ. eigenvalues --   -0.50102  -0.50026  -0.49916  -0.49522  -0.49448
  Beta  occ. eigenvalues --   -0.49334  -0.48863  -0.48722  -0.48413  -0.48234
  Beta  occ. eigenvalues --   -0.47839  -0.47644  -0.47436  -0.47380  -0.46934
  Beta  occ. eigenvalues --   -0.46601  -0.46367  -0.46090  -0.45553  -0.44982
  Beta  occ. eigenvalues --   -0.44693  -0.44147  -0.43621  -0.43313  -0.43188
  Beta  occ. eigenvalues --   -0.42660  -0.42361  -0.41668  -0.40929  -0.40028
  Beta  occ. eigenvalues --   -0.39314  -0.38531  -0.37659  -0.37112  -0.36547
  Beta  occ. eigenvalues --   -0.35828  -0.34946  -0.33513  -0.32904  -0.32346
  Beta  occ. eigenvalues --   -0.31643  -0.29382  -0.28809
  Beta virt. eigenvalues --   -0.19913  -0.17614  -0.16143  -0.14297  -0.12042
  Beta virt. eigenvalues --   -0.10871  -0.09205  -0.08829  -0.07597  -0.07323
  Beta virt. eigenvalues --   -0.06402  -0.05545  -0.05098  -0.04781  -0.04302
  Beta virt. eigenvalues --   -0.03731  -0.03036  -0.02566  -0.02436  -0.02371
  Beta virt. eigenvalues --   -0.02085  -0.01774  -0.01224  -0.01017  -0.00565
  Beta virt. eigenvalues --   -0.00327  -0.00017   0.00353   0.00749   0.01121
  Beta virt. eigenvalues --    0.01421   0.01436   0.01689   0.02259   0.02538
  Beta virt. eigenvalues --    0.02640   0.02911   0.03099   0.03274   0.03430
  Beta virt. eigenvalues --    0.03683   0.03919   0.04044   0.04157   0.04257
  Beta virt. eigenvalues --    0.04318   0.04497   0.04663   0.04888   0.05198
  Beta virt. eigenvalues --    0.05351   0.05584   0.05717   0.05796   0.05974
  Beta virt. eigenvalues --    0.06318   0.06596   0.06725   0.07034   0.07604
  Beta virt. eigenvalues --    0.07695   0.07843   0.08010   0.08137   0.08381
  Beta virt. eigenvalues --    0.08550   0.08598   0.08619   0.08823   0.09006
  Beta virt. eigenvalues --    0.09292   0.09624   0.09735   0.10053   0.10216
  Beta virt. eigenvalues --    0.10769   0.10923   0.11129   0.11479   0.11783
  Beta virt. eigenvalues --    0.12102   0.12224   0.12603   0.12824   0.12862
  Beta virt. eigenvalues --    0.13321   0.13546   0.13770   0.13951   0.14333
  Beta virt. eigenvalues --    0.14589   0.14795   0.15199   0.15315   0.15373
  Beta virt. eigenvalues --    0.15978   0.16118   0.16392   0.16687   0.16830
  Beta virt. eigenvalues --    0.17000   0.17148   0.17402   0.17736   0.17965
  Beta virt. eigenvalues --    0.18021   0.18231   0.18512   0.18664   0.19155
  Beta virt. eigenvalues --    0.19491   0.19768   0.19806   0.19929   0.20483
  Beta virt. eigenvalues --    0.20621   0.20698   0.20773   0.21164   0.21232
  Beta virt. eigenvalues --    0.21447   0.21859   0.22122   0.22333   0.22643
  Beta virt. eigenvalues --    0.22779   0.23343   0.23458   0.23654   0.23909
  Beta virt. eigenvalues --    0.24222   0.24621   0.24674   0.24860   0.25386
  Beta virt. eigenvalues --    0.25445   0.25795   0.26315   0.26699   0.26956
  Beta virt. eigenvalues --    0.27087   0.27218   0.27422   0.27721   0.27894
  Beta virt. eigenvalues --    0.28335   0.28388   0.28585   0.28979   0.29086
  Beta virt. eigenvalues --    0.29234   0.29636   0.29894   0.30195   0.30495
  Beta virt. eigenvalues --    0.30642   0.30861   0.30882   0.31064   0.31355
  Beta virt. eigenvalues --    0.31640   0.31941   0.32037   0.32233   0.32356
  Beta virt. eigenvalues --    0.32702   0.32905   0.33130   0.33199   0.33563
  Beta virt. eigenvalues --    0.33679   0.33782   0.33990   0.34354   0.34579
  Beta virt. eigenvalues --    0.34845   0.34942   0.35153   0.35225   0.35624
  Beta virt. eigenvalues --    0.35840   0.35977   0.36216   0.36391   0.36674
  Beta virt. eigenvalues --    0.36731   0.36883   0.37075   0.37319   0.37402
  Beta virt. eigenvalues --    0.37553   0.37767   0.38041   0.38193   0.38542
  Beta virt. eigenvalues --    0.38632   0.38874   0.39006   0.39031   0.39341
  Beta virt. eigenvalues --    0.39551   0.39576   0.39894   0.40205   0.40526
  Beta virt. eigenvalues --    0.40634   0.40919   0.41016   0.41172   0.41337
  Beta virt. eigenvalues --    0.41431   0.41658   0.41873   0.42130   0.42224
  Beta virt. eigenvalues --    0.42328   0.42479   0.42754   0.42907   0.43144
  Beta virt. eigenvalues --    0.43319   0.43474   0.43711   0.43896   0.44135
  Beta virt. eigenvalues --    0.44425   0.44789   0.44958   0.45220   0.45221
  Beta virt. eigenvalues --    0.45445   0.45653   0.45984   0.46210   0.46415
  Beta virt. eigenvalues --    0.46637   0.47031   0.47112   0.47217   0.47603
  Beta virt. eigenvalues --    0.47745   0.48020   0.48140   0.48491   0.48820
  Beta virt. eigenvalues --    0.48975   0.49180   0.49467   0.49864   0.50063
  Beta virt. eigenvalues --    0.50280   0.50594   0.50788   0.51157   0.51823
  Beta virt. eigenvalues --    0.52258   0.52272   0.52790   0.52987   0.53474
  Beta virt. eigenvalues --    0.53586   0.53635   0.54183   0.54409   0.54665
  Beta virt. eigenvalues --    0.54832   0.54948   0.55331   0.55497   0.55730
  Beta virt. eigenvalues --    0.55856   0.56247   0.56377   0.56886   0.57150
  Beta virt. eigenvalues --    0.57386   0.57620   0.58026   0.58266   0.58687
  Beta virt. eigenvalues --    0.58866   0.59198   0.59627   0.59930   0.60293
  Beta virt. eigenvalues --    0.60756   0.61252   0.61289   0.61597   0.61747
  Beta virt. eigenvalues --    0.62090   0.62457   0.62641   0.63022   0.63631
  Beta virt. eigenvalues --    0.64017   0.64114   0.64278   0.64555   0.64717
  Beta virt. eigenvalues --    0.65218   0.65540   0.66111   0.66369   0.66735
  Beta virt. eigenvalues --    0.67187   0.67351   0.67442   0.67687   0.68010
  Beta virt. eigenvalues --    0.68430   0.68530   0.69072   0.69227   0.69698
  Beta virt. eigenvalues --    0.69773   0.70120   0.70531   0.70851   0.71047
  Beta virt. eigenvalues --    0.71318   0.71724   0.71973   0.72220   0.72579
  Beta virt. eigenvalues --    0.72957   0.73643   0.73761   0.74301   0.74535
  Beta virt. eigenvalues --    0.74781   0.75065   0.75437   0.75815   0.76634
  Beta virt. eigenvalues --    0.76963   0.77117   0.77732   0.78219   0.78460
  Beta virt. eigenvalues --    0.78885   0.79039   0.79514   0.79675   0.79763
  Beta virt. eigenvalues --    0.80226   0.80322   0.80705   0.81385   0.81793
  Beta virt. eigenvalues --    0.81974   0.82253   0.82403   0.82949   0.83261
  Beta virt. eigenvalues --    0.83399   0.83647   0.84064   0.84407   0.84674
  Beta virt. eigenvalues --    0.84780   0.84956   0.85317   0.85608   0.86066
  Beta virt. eigenvalues --    0.86352   0.86565   0.87000   0.87343   0.87743
  Beta virt. eigenvalues --    0.87858   0.88257   0.88459   0.88841   0.89299
  Beta virt. eigenvalues --    0.89641   0.89998   0.90141   0.90334   0.91010
  Beta virt. eigenvalues --    0.91217   0.91450   0.91597   0.92034   0.92359
  Beta virt. eigenvalues --    0.92672   0.92838   0.93074   0.93382   0.93580
  Beta virt. eigenvalues --    0.93850   0.94106   0.94571   0.94624   0.95146
  Beta virt. eigenvalues --    0.95377   0.95933   0.96007   0.96469   0.97043
  Beta virt. eigenvalues --    0.97617   0.97866   0.98249   0.98533   0.98795
  Beta virt. eigenvalues --    0.99183   0.99429   1.00222   1.00563   1.00856
  Beta virt. eigenvalues --    1.01083   1.01360   1.01573   1.01929   1.02346
  Beta virt. eigenvalues --    1.02896   1.03203   1.03380   1.03910   1.04306
  Beta virt. eigenvalues --    1.04699   1.04949   1.05033   1.05498   1.06058
  Beta virt. eigenvalues --    1.06624   1.06943   1.07329   1.07550   1.07990
  Beta virt. eigenvalues --    1.08763   1.08915   1.09434   1.09863   1.10225
  Beta virt. eigenvalues --    1.10300   1.10400   1.10574   1.10867   1.11082
  Beta virt. eigenvalues --    1.11424   1.12025   1.12570   1.12922   1.13094
  Beta virt. eigenvalues --    1.13446   1.13980   1.14309   1.15047   1.15408
  Beta virt. eigenvalues --    1.15663   1.16329   1.16503   1.17052   1.17233
  Beta virt. eigenvalues --    1.17364   1.17860   1.18270   1.18643   1.18811
  Beta virt. eigenvalues --    1.19182   1.19235   1.19712   1.19917   1.20343
  Beta virt. eigenvalues --    1.20763   1.21272   1.21429   1.21734   1.22494
  Beta virt. eigenvalues --    1.22874   1.23005   1.23667   1.24344   1.24521
  Beta virt. eigenvalues --    1.25278   1.25658   1.26045   1.26478   1.26662
  Beta virt. eigenvalues --    1.27139   1.27931   1.28317   1.28976   1.29615
  Beta virt. eigenvalues --    1.29919   1.30733   1.31385   1.31765   1.32289
  Beta virt. eigenvalues --    1.32539   1.33245   1.33362   1.34446   1.34849
  Beta virt. eigenvalues --    1.35002   1.35460   1.36435   1.36921   1.37110
  Beta virt. eigenvalues --    1.37434   1.37709   1.37838   1.38078   1.38427
  Beta virt. eigenvalues --    1.38900   1.39143   1.39554   1.39970   1.40057
  Beta virt. eigenvalues --    1.40659   1.40887   1.41168   1.41639   1.41992
  Beta virt. eigenvalues --    1.42222   1.42849   1.43118   1.43153   1.43231
  Beta virt. eigenvalues --    1.43658   1.43819   1.44136   1.44480   1.44758
  Beta virt. eigenvalues --    1.44971   1.45519   1.45630   1.46174   1.46275
  Beta virt. eigenvalues --    1.46583   1.46617   1.47033   1.47246   1.47589
  Beta virt. eigenvalues --    1.47805   1.47851   1.47971   1.48347   1.48595
  Beta virt. eigenvalues --    1.48982   1.49120   1.49628   1.49698   1.49939
  Beta virt. eigenvalues --    1.50023   1.50422   1.50717   1.50934   1.51006
  Beta virt. eigenvalues --    1.51458   1.51982   1.52144   1.52306   1.52718
  Beta virt. eigenvalues --    1.52854   1.53234   1.53605   1.53853   1.53933
  Beta virt. eigenvalues --    1.54366   1.54472   1.54884   1.55131   1.55582
  Beta virt. eigenvalues --    1.55765   1.55976   1.56172   1.56335   1.56787
  Beta virt. eigenvalues --    1.57058   1.57312   1.58123   1.58315   1.58489
  Beta virt. eigenvalues --    1.58583   1.58675   1.58858   1.59227   1.59892
  Beta virt. eigenvalues --    1.59976   1.60297   1.60552   1.61014   1.61341
  Beta virt. eigenvalues --    1.61642   1.61822   1.62018   1.62394   1.62559
  Beta virt. eigenvalues --    1.62769   1.63096   1.63742   1.63914   1.64233
  Beta virt. eigenvalues --    1.64270   1.64896   1.65175   1.65415   1.65976
  Beta virt. eigenvalues --    1.66600   1.67076   1.67610   1.67829   1.68125
  Beta virt. eigenvalues --    1.68914   1.69009   1.69475   1.70006   1.70856
  Beta virt. eigenvalues --    1.71303   1.71876   1.72006   1.72611   1.72732
  Beta virt. eigenvalues --    1.73425   1.74095   1.74369   1.75246   1.75837
  Beta virt. eigenvalues --    1.76061   1.76250   1.76394   1.76787   1.77085
  Beta virt. eigenvalues --    1.77510   1.77519   1.77755   1.78149   1.78566
  Beta virt. eigenvalues --    1.78877   1.79212   1.79865   1.80040   1.80228
  Beta virt. eigenvalues --    1.80649   1.81001   1.81225   1.82444   1.82810
  Beta virt. eigenvalues --    1.83160   1.83684   1.84108   1.84428   1.84863
  Beta virt. eigenvalues --    1.85313   1.86235   1.86458   1.86525   1.86977
  Beta virt. eigenvalues --    1.87162   1.87733   1.88350   1.88544   1.88930
  Beta virt. eigenvalues --    1.89599   1.89900   1.90417   1.90697   1.90961
  Beta virt. eigenvalues --    1.91505   1.91691   1.91860   1.92002   1.92862
  Beta virt. eigenvalues --    1.93013   1.93224   1.93827   1.94543   1.94999
  Beta virt. eigenvalues --    1.95201   1.96213   1.96392   1.97044   1.97377
  Beta virt. eigenvalues --    1.97584   1.98430   1.98686   1.99030   1.99211
  Beta virt. eigenvalues --    1.99981   2.00524   2.00622   2.00858   2.01421
  Beta virt. eigenvalues --    2.01657   2.02370   2.02478   2.02846   2.03174
  Beta virt. eigenvalues --    2.03501   2.03773   2.04285   2.04330   2.04930
  Beta virt. eigenvalues --    2.05061   2.05587   2.06070   2.06549   2.06674
  Beta virt. eigenvalues --    2.06844   2.07607   2.07698   2.08404   2.09037
[...]
  1464. RY*(  12) C  80                  0.00000     2.17255   
  1465. RY*(  13) C  80                  0.00000     1.62728   
  1466. RY*(  14) C  80                  0.00000     2.04309   
  1467. RY*(  15) C  80                  0.00001     2.88795   
  1468. RY*(  16) C  80                  0.00001     2.72515   
  1469. RY*(  17) C  80                  0.00001     2.77596   
  1470. RY*(  18) C  80                  0.00000    21.14216   
  1471. RY*(  19) C  80                  0.00000     3.21601   
  1472. RY*(  20) C  80                  0.00000     3.20710   
  1473. RY*(  21) C  80                  0.00000     3.41401   
  1474. RY*(  22) C  80                  0.00000     3.43856   
  1475. RY*(  23) C  80                  0.00000     3.43839   
  1476. RY*(  24) C  80                  0.00000     3.22809   
  1477. RY*(  25) C  80                  0.00000     3.26635   
  1478. RY*(  26) C  80                  0.00000     3.34611   
  1479. RY*(   1) H  81                  0.00072     0.89673   
  1480. RY*(   2) H  81                  0.00016     2.40711   
  1481. RY*(   3) H  81                  0.00006     2.39228   
  1482. RY*(   4) H  81                  0.00002     2.78684   
  1483. RY*(   5) H  81                  0.00002     2.51036   
  1484. RY*(   1) H  82                  0.00040     1.15491   
  1485. RY*(   2) H  82                  0.00012     1.62323   
  1486. RY*(   3) H  82                  0.00007     2.21220   
  1487. RY*(   4) H  82                  0.00004     1.93447   
  1488. RY*(   5) H  82                  0.00001     2.98986   
  1489. RY*(   1) S  83                  0.00335     0.55270   
  1490. RY*(   2) S  83                  0.00157     1.04512   
  1491. RY*(   3) S  83                  0.00131     0.91832   
  1492. RY*(   4) S  83                  0.00084     1.04393   
  1493. RY*(   5) S  83                  0.00044     1.78598   
  1494. RY*(   6) S  83                  0.00042     1.27703   
  1495. RY*(   7) S  83                  0.00033     1.52963   
  1496. RY*(   8) S  83                  0.00022     1.65096   
  1497. RY*(   9) S  83                  0.00015     1.56500   
  1498. RY*(  10) S  83                  0.00011     1.84968   
  1499. RY*(  11) S  83                  0.00008     1.50475   
  1500. RY*(  12) S  83                  0.00008     2.42298   
  1501. RY*(  13) S  83                  0.00005     1.95325   
  1502. RY*(  14) S  83                  0.00003     2.44760   
  1503. RY*(  15) S  83                  0.00002     1.78697   
  1504. RY*(  16) S  83                  0.00001     2.45262   
  1505. RY*(  17) S  83                  0.00001     2.63502   
  1506. RY*(  18) S  83                  0.00001     2.45399   
  1507. RY*(  19) S  83                  0.00000    17.07757   
  1508. RY*(  20) S  83                  0.00000     7.84133   
  1509. RY*(  21) S  83                  0.00000     8.26941   
  1510. RY*(  22) S  83                  0.00000     2.50542   
  1511. RY*(  23) S  83                  0.00000     8.36389   
  1512. RY*(  24) S  83                  0.00000     2.07260   
  1513. RY*(  25) S  83                  0.00000     2.18607   
  1514. RY*(  26) S  83                  0.00000     2.34232   
  1515. RY*(  27) S  83                  0.00000     2.13122   
  1516. RY*(  28) S  83                  0.00000     2.13147   
  1517. RY*(   1) C  84                  0.00085     1.34635   
  1518. RY*(   2) C  84                  0.00052     0.93050   
  1519. RY*(   3) C  84                  0.00035     0.77980   
  1520. RY*(   4) C  84                  0.00028     1.29200   
  1521. RY*(   5) C  84                  0.00016     1.08876   
  1522. RY*(   6) C  84                  0.00015     0.75836   
  1523. RY*(   7) C  84                  0.00009     1.14503   
  1524. RY*(   8) C  84                  0.00003     1.35181   
  1525. RY*(   9) C  84                  0.00003     1.58735   
  1526. RY*(  10) C  84                  0.00002     1.51024   
  1527. RY*(  11) C  84                  0.00000     2.77491   
  1528. RY*(  12) C  84                  0.00001     1.40679   
  1529. RY*(  13) C  84                  0.00000     3.03828   
  1530. RY*(  14) C  84                  0.00000     2.14673   
  1531. RY*(  15) C  84                  0.00000     3.08623   
  1532. RY*(  16) C  84                  0.00001     1.73838   
  1533. RY*(  17) C  84                  0.00000     3.03397   
  1534. RY*(  18) C  84                  0.00000    21.09675   
  1535. RY*(  19) C  84                  0.00001     3.03959   
  1536. RY*(  20) C  84                  0.00000     3.55705   
  1537. RY*(  21) C  84                  0.00000     3.10978   
  1538. RY*(  22) C  84                  0.00000     3.08818   
  1539. RY*(  23) C  84                  0.00000     3.19617   
  1540. RY*(  24) C  84                  0.00000     3.22142   
  1541. RY*(  25) C  84                  0.00000     3.15583   
  1542. RY*(  26) C  84                  0.00000     3.30150   
  1543. RY*(   1) H  85                  0.00023     1.50922   
  1544. RY*(   2) H  85                  0.00009     1.68770   
  1545. RY*(   3) H  85                  0.00005     2.22798   
  1546. RY*(   4) H  85                  0.00002     2.87491   
  1547. RY*(   5) H  85                  0.00002     1.72708   
  1548. RY*(   1) H  86                  0.00057     0.78548   
  1549. RY*(   2) H  86                  0.00015     2.26927   
  1550. RY*(   3) H  86                  0.00005     2.27420   
  1551. RY*(   4) H  86                  0.00004     2.72472   
  1552. RY*(   5) H  86                  0.00002     2.38835   
  1553. RY*(   1) H  87                  0.00035     1.13823   
  1554. RY*(   2) H  87                  0.00008     1.43996   
  1555. RY*(   3) H  87                  0.00005     1.96191   
  1556. RY*(   4) H  87                  0.00003     2.09968   
  1557. RY*(   5) H  87                  0.00000     2.85245   
  1558. BD*(   1)Fe   1 - N   2          0.03595     0.30171   
  1559. BD*(   1)Fe   1 - N   3          0.03364     0.29668   
  1560. BD*(   1)Fe   1 - N   4          0.03313     0.28174   
  1561. BD*(   1)Fe   1 - N   5          0.03239     0.28727   
  1562. BD*(   1)Fe   1 - N  73          0.03573     0.25868   
  1563. BD*(   1)Fe   1 - S  83          0.03381     0.21592   
  1564. BD*(   1) N   2 - C   6          0.01401     0.40922   
  1565. BD*(   2) N   2 - C   6          0.32137    -0.09632  1611(v),1584(v),1579(v)
                                                    308(g),171(v),203(g),722(v)
                                                    307(g),1571(r),1563(v)
  1566. BD*(   1) N   2 - C   9          0.01465     0.40562   
  1567. BD*(   1) N   3 - C  10          0.01478     0.40259   
  1568. BD*(   2) N   3 - C  10          0.33006    -0.10141  1584(v),1588(v),1593(v)
                                                    412(g),171(v),229(g),753(v)
                                                    1574(r),1563(v)
  1569. BD*(   1) N   3 - C  13          0.01412     0.40369   
  1570. BD*(   1) N   4 - C  14          0.01372     0.40421   
  1571. BD*(   2) N   4 - C  14          0.32174    -0.09895  1593(v),1602(v),1597(v)
                                                    516(g),171(v),255(g),1563(v)
                                                    1565(r)
  1572. BD*(   1) N   4 - C  17          0.01431     0.40212   
  1573. BD*(   1) N   5 - C  18          0.01398     0.40647   
  1574. BD*(   2) N   5 - C  18          0.32099    -0.09903  1602(v),1606(v),1611(v)
                                                    620(g),171(v),281(g),1568(r)
                                                    815(v),1563(v)
  1575. BD*(   1) N   5 - C  21          0.01404     0.40144   
  1576. BD*(   1) C   6 - C   7          0.01731     0.38721   
  1577. BD*(   1) C   6 - C  22          0.01030     0.47541   
  1578. BD*(   1) C   7 - C   8          0.01143     0.50942   
  1579. BD*(   2) C   7 - C   8          0.11757    -0.02885  1584(v),1565(v),1617(v)
                                                    1620(v),1619(v),1616(v)
  1580. BD*(   1) C   7 - C  30          0.00808     0.32233   
  1581. BD*(   1) C   8 - C   9          0.01738     0.38715   
  1582. BD*(   1) C   8 - C  34          0.00819     0.32227   
  1583. BD*(   1) C   9 - C  24          0.01032     0.47148   
  1584. BD*(   2) C   9 - C  24          0.19576    -0.05641  1568(v),1579(v),1565(v)
                                                    1611(r),1593(r),753(g)
                                                    388(g)
  1585. BD*(   1) C  10 - C  11          0.01749     0.39429   
  1586. BD*(   1) C  10 - C  24          0.01070     0.46808   
  1587. BD*(   1) C  11 - C  12          0.01143     0.49801   
  1588. BD*(   2) C  11 - C  12          0.12587    -0.03240  1593(v),1568(v),1642(v)
                                                    1638(v),1640(v)
  1589. BD*(   1) C  11 - C  60          0.00827     0.32110   
  1590. BD*(   1) C  12 - C  13          0.01742     0.39249   
  1591. BD*(   1) C  12 - C  56          0.00809     0.32012   
  1592. BD*(   1) C  13 - C  26          0.01082     0.47077   
  1593. BD*(   2) C  13 - C  26          0.20569    -0.05692  1571(v),1588(v),1568(v)
                                                    1584(r),1602(r),785(g)
                                                    1611(r),492(g)
  1594. BD*(   1) C  14 - C  15          0.01732     0.38534   
  1595. BD*(   1) C  14 - C  26          0.01046     0.47019   
  1596. BD*(   1) C  15 - C  16          0.01266     0.49252   
  1597. BD*(   2) C  15 - C  16          0.13783    -0.03395  1635(v),1602(v),1571(v)
                                                    1630(v),1631(v)
  1598. BD*(   1) C  15 - C  51          0.01337     0.40211   
  1599. BD*(   1) C  16 - C  17          0.01725     0.39466   
  1600. BD*(   1) C  16 - C  47          0.00786     0.32261   
  1601. BD*(   1) C  17 - C  28          0.01078     0.46652   
  1602. BD*(   2) C  17 - C  28          0.20762    -0.05884  1574(v),1597(v),1571(v)
                                                    1593(r),1611(r),815(g)
  1603. BD*(   1) C  18 - C  19          0.01738     0.38606   
  1604. BD*(   1) C  18 - C  28          0.01057     0.46748   
  1605. BD*(   1) C  19 - C  20          0.01274     0.49297   
  1606. BD*(   2) C  19 - C  20          0.13724    -0.03357  1627(v),1611(v),1574(v)
                                                    1622(v),1623(v)
  1607. BD*(   1) C  19 - C  42          0.01345     0.40288   
  1608. BD*(   1) C  20 - C  21          0.01708     0.39530   
  1609. BD*(   1) C  20 - C  38          0.00782     0.32460   
  1610. BD*(   1) C  21 - C  22          0.01056     0.46909   
  1611. BD*(   2) C  21 - C  22          0.20616    -0.05671  1565(v),1606(v),1574(v)
                                                    1584(r),722(g),1602(r)
                                                    1593(r),700(g)
  1612. BD*(   1) C  22 - H  23          0.00631     0.33520   
  1613. BD*(   1) C  24 - H  25          0.00657     0.33415   
  1614. BD*(   1) C  26 - H  27          0.00706     0.33664   
  1615. BD*(   1) C  28 - H  29          0.00667     0.33757   
  1616. BD*(   1) C  30 - H  31          0.00444     0.29486   
  1617. BD*(   1) C  30 - H  32          0.00470     0.29503   
  1618. BD*(   1) C  30 - H  33          0.00301     0.30766   
  1619. BD*(   1) C  34 - H  35          0.00464     0.29606   
  1620. BD*(   1) C  34 - H  36          0.00473     0.29347   
  1621. BD*(   1) C  34 - H  37          0.00300     0.30767   
  1622. BD*(   1) C  38 - H  39          0.00540     0.29355   
  1623. BD*(   1) C  38 - H  40          0.00450     0.30010   
  1624. BD*(   1) C  38 - H  41          0.00372     0.30873   
  1625. BD*(   1) C  42 - H  43          0.01049     0.33418   
  1626. BD*(   1) C  42 - C  44          0.00365     0.54546   
  1627. BD*(   2) C  42 - C  44          0.03048    -0.02711   
  1628. BD*(   1) C  44 - H  45          0.00517     0.35214   
  1629. BD*(   1) C  44 - H  46          0.00390     0.35627   
  1630. BD*(   1) C  47 - H  48          0.00543     0.29297   
  1631. BD*(   1) C  47 - H  49          0.00459     0.29865   
  1632. BD*(   1) C  47 - H  50          0.00376     0.30882   
  1633. BD*(   1) C  51 - H  52          0.01042     0.33442   
  1634. BD*(   1) C  51 - C  53          0.00369     0.54429   
  1635. BD*(   2) C  51 - C  53          0.02899    -0.02690   
  1636. BD*(   1) C  53 - H  54          0.00516     0.35095   
  1637. BD*(   1) C  53 - H  55          0.00392     0.35544   
  1638. BD*(   1) C  56 - H  57          0.00474     0.29257   
  1639. BD*(   1) C  56 - H  58          0.00261     0.30596   
  1640. BD*(   1) C  56 - H  59          0.00442     0.29519   
  1641. BD*(   1) C  60 - H  61          0.00341     0.29967   
  1642. BD*(   1) C  60 - H  62          0.00550     0.29021   
  1643. BD*(   1) C  60 - H  63          0.00309     0.29959   
  1644. BD*(   1) C  64 - H  65          0.00506     0.27430   
  1645. BD*(   1) C  64 - H  66          0.00506     0.27455   
  1646. BD*(   1) C  64 - H  67          0.00155     0.28617   
  1647. BD*(   1) C  64 - C  70          0.00627     0.29361   
  1648. BD*(   1) N  68 - H  69          0.00660     0.26952   
  1649. BD*(   1) N  68 - C  70          0.01368     0.32364   
  1650. BD*(   1) N  68 - C  71          0.01051     0.33686   
  1651. BD*(   1) C  70 - C  74          0.01062     0.45869   
  1652. BD*(   1) C  71 - H  72          0.00821     0.27884   
  1653. BD*(   1) C  71 - N  73          0.00915     0.41672   
  1654. BD*(   1) N  73 - C  74          0.00899     0.36602   
  1655. BD*(   2) N  73 - C  74          0.33812    -0.12765  94(v),173(v),171(v),1382(g)
                                                    1357(g),1325(v),1359(g)
  1656. BD*(   1) C  74 - H  75          0.00663     0.32276   
  1657. BD*(   1) C  76 - H  77          0.00389     0.29662   
  1658. BD*(   1) C  76 - H  78          0.00369     0.29594   
  1659. BD*(   1) C  76 - H  79          0.00431     0.31441   
  1660. BD*(   1) C  76 - C  80          0.00342     0.26109   
  1661. BD*(   1) C  80 - H  81          0.01041     0.29192   
  1662. BD*(   1) C  80 - H  82          0.00815     0.26476   
  1663. BD*(   1) C  80 - S  83          0.01701     0.04116   
  1664. BD*(   1) S  83 - C  84          0.00677     0.05399   
  1665. BD*(   1) C  84 - H  85          0.00345     0.28339   
  1666. BD*(   1) C  84 - H  86          0.00710     0.28608   
  1667. BD*(   1) C  84 - H  87          0.00564     0.27552   
       -------------------------------
              Total Lewis  168.28613  ( 97.2752%)
        Valence non-Lewis    4.38009  (  2.5318%)
        Rydberg non-Lewis    0.33378  (  0.1929%)
       -------------------------------
            Total unit  1  173.00000  (100.0000%)
           Charge unit  1    1.00000
 Unable to Open any file for archive entry.
 1\1\GINC-BGN1034\SP\UAPFD\def2TZVP\C37H42Fe1N6S1(1+,2)\BECSLEIP\12-Nov
 -2024\0\\# apfd/def2TZVP guess=read scf=maxcycle=999 geom=check pop=nb
 o\\6k9i_III_D\\1,2\Fe,0,1.1649878783,15.4366065426,-0.0359813979\N,0,2
 .7714116259,15.6704813211,1.0750574278\N,0,0.1307785603,14.7579562869,
 1.5078493743\N,0,-0.4492151221,15.204008142,-1.2232910778\N,0,2.157803
 2414,16.1361010809,-1.6435967752\C,0,3.9509764113,16.232433235,0.71410
 14643\C,0,4.9078543144,16.1429330679,1.795619087\C,0,4.2779705655,15.4
 940577923,2.8105254863\C,0,2.9333980725,15.2253876939,2.3475568847\C,0
 ,0.6393550249,14.4340764897,2.7264553061\C,0,-0.4048765048,13.94682379
 61,3.5930904919\C,0,-1.5615252958,14.0043465069,2.8741913607\C,0,-1.20
 26486518,14.5027418357,1.5677211804\C,0,-1.7081536511,14.9258402071,-0
 .7956582522\C,0,-2.6391791896,14.9318804519,-1.906900046\C,0,-1.889729
 6784,15.1759792101,-3.0268866098\C,0,-0.5393638324,15.3808530081,-2.56
 94380741\C,0,1.7426722244,16.1835516809,-2.9348735221\C,0,2.7233127444
 ,16.8526198606,-3.7668251295\C,0,3.7698317493,17.1607541094,-2.9384787
 928\C,0,3.4042628849,16.6828966247,-1.6298284837\C,0,4.2272004219,16.7
 822528681,-0.5211473998\H,0,5.1978183904,17.2323584615,-0.6616147606\C
 ,0,1.9572945941,14.6152323571,3.1122932972\H,0,2.2321230843,14.3027978
 187,4.1090273975\C,0,-2.075492269,14.62170757,0.5017594791\H,0,-3.1173
 936224,14.4005065529,0.6763135551\C,0,0.504199083,15.7699876352,-3.390
 5006538\H,0,0.3111265219,15.8345280175,-4.4503817963\C,0,6.3052425006,
 16.6558303124,1.7217154913\H,0,6.3120326867,17.7236597037,1.502592906\
 H,0,6.8564369135,16.1455829434,0.9307884598\H,0,6.8288279897,16.494679
 5129,2.6609738832\C,0,4.7990329604,15.1078869548,4.1520013202\H,0,4.73
 00196549,14.0288926676,4.2899925437\H,0,4.2221659901,15.5870022407,4.9
 440553794\H,0,5.8403500694,15.4009560093,4.2619643569\C,0,5.0116567968
 ,17.9142223276,-3.2633997671\H,0,5.8498726906,17.2340668081,-3.4244180
 49\H,0,5.2770356858,18.5896622691,-2.4514775821\H,0,4.8661115414,18.49
 91190696,-4.169405709\C,0,2.5658628426,17.1136309095,-5.1805436807\H,0
 ,1.5527511441,17.3145457586,-5.5116612831\C,0,3.5469702227,17.11905129
 55,-6.0772407633\H,0,4.5634451733,16.8808024898,-5.8169748334\H,0,3.36
 00447564,17.338410329,-7.1153086966\C,0,-2.350696727,15.3331052171,-4.
 4344375293\H,0,-2.1465326059,14.4307760629,-5.0141257872\H,0,-1.840714
 0639,16.1654308455,-4.9175047874\H,0,-3.4220636866,15.5218539311,-4.45
 74925322\C,0,-4.063594481,14.7076504968,-1.7918369476\H,0,-4.526411320
 9,15.1011804817,-0.8939359056\C,0,-4.8183067104,14.0723801952,-2.68195
 03294\H,0,-4.4033125435,13.6213131415,-3.5664233123\H,0,-5.8800120923,
 13.9571071207,-2.5408043131\C,0,-2.9204480793,13.6114260849,3.34586491
 65\H,0,-2.9424527612,12.5492561335,3.5959713725\H,0,-3.6764505786,13.7
 977283299,2.5887054957\H,0,-3.186674191,14.1702181699,4.2437207284\C,0
 ,-0.2433945134,13.4836822942,5.0003862007\H,0,-0.9830560942,12.7174748
 86,5.2301239881\H,0,-0.3882670721,14.3120730782,5.698223141\H,0,0.7484
 091466,13.0680458803,5.1657292125\C,0,-0.6137892441,20.7059090689,-0.2
 501006993\H,0,0.1138946155,21.4865480955,-0.0282965423\H,0,-1.55041352
 98,20.9621720338,0.2448960086\H,0,-0.7818895685,20.6819416888,-1.32233
 01541\N,0,0.1806527177,19.1145438234,1.5142522175\H,0,0.1004862954,19.
 7626771042,2.2804790661\C,0,-0.1194845004,19.3814926634,0.203941021\C,
 0,0.6083296571,17.8334341385,1.5839287714\H,0,0.9115931309,17.34870356
 85,2.4888063327\N,0,0.5961712476,17.2749679423,0.3985971187\C,0,0.1455
 12473,18.2238862697,-0.4698418746\H,0,0.0422460923,18.0094205971,-1.51
 29168075\C,0,0.2987728576,11.3084669438,0.7863645943\H,0,1.1803813177,
 10.7064886141,0.9939814329\H,0,-0.5690787412,10.6540932714,0.727701396
 5\H,0,0.1538528568,12.002506421,1.6086667951\C,0,0.4668365529,12.06054
 5855,-0.5198301816\H,0,-0.4089781401,12.6690996729,-0.7373422169\H,0,0
 .6505620631,11.3691228998,-1.3416802939\S,0,1.9270157026,13.1781590213
 ,-0.4348309221\C,0,2.4427526791,13.0725681734,-2.1757594698\H,0,3.2879
 892942,13.7421763741,-2.29271472\H,0,1.6304137691,13.3922109553,-2.820
 6712503\H,0,2.7424895814,12.0514606278,-2.3973262312\\Version=ES64L-G1
 6RevC.02\State=2-A\HF=-3424.6684529\S2=0.81671\S2-1=0.\S2A=0.751112\RM
 SD=2.094e-09\Dipole=-0.2744836,1.1661741,0.8518894\Quadrupole=-2.36408
 74,-2.7659468,5.1300342,3.8082066,-0.7041216,3.0024923\PG=C01 [X(C37H4
 2Fe1N6S1)]\\@
 The archive entry for this job was punched.


 A true friend is someone who is there for
 you when he'd rather be anywhere else.
                               -- Len Wein
 Job cpu time:       1 days 18 hours 57 minutes 53.3 seconds.
 Elapsed time:       0 days  0 hours 39 minutes 53.9 seconds.
 File lengths (MBytes):  RWF=   2563 Int=      0 D2E=      0 Chk=    233 Scr=      1
 Normal termination of Gaussian 16 at Tue Nov 12 22:14:56 2024.
