 Entering Gaussian System, Link 0=g16
 Input=6krc05.com
 Output=6krc05.log
 Initial command:
 /sw/chem/gaussian/g16_C02/a100/g16/l1.exe "/local/becsleip_8078303/Gau-1955330.inp" -scrdir="/local/becsleip_8078303/"
 Entering Link 1 = /sw/chem/gaussian/g16_C02/a100/g16/l1.exe PID=   1955331.
  
 Copyright (c) 1988-2021, Gaussian, Inc.  All Rights Reserved.
  
 This is part of the Gaussian(R) 16 program.  It is based on
 the Gaussian(R) 09 system (copyright 2009, Gaussian, Inc.),
 the Gaussian(R) 03 system (copyright 2003, Gaussian, Inc.),
 the Gaussian(R) 98 system (copyright 1998, Gaussian, Inc.),
 the Gaussian(R) 94 system (copyright 1995, Gaussian, Inc.),
 the Gaussian 92(TM) system (copyright 1992, Gaussian, Inc.),
 the Gaussian 90(TM) system (copyright 1990, Gaussian, Inc.),
 the Gaussian 88(TM) system (copyright 1988, Gaussian, Inc.),
 the Gaussian 86(TM) system (copyright 1986, Carnegie Mellon
 University), and the Gaussian 82(TM) system (copyright 1983,
 Carnegie Mellon University). Gaussian is a federally registered
 trademark of Gaussian, Inc.
  
 This software contains proprietary and confidential information,
 including trade secrets, belonging to Gaussian, Inc.
  
 This software is provided under written license and may be
 used, copied, transmitted, or stored only in accord with that
 written license.
  
 The following legend is applicable only to US Government
 contracts under FAR:
  
                    RESTRICTED RIGHTS LEGEND
  
 Use, reproduction and disclosure by the US Government is
 subject to restrictions as set forth in subparagraphs (a)
 and (c) of the Commercial Computer Software - Restricted
 Rights clause in FAR 52.227-19.
  
 Gaussian, Inc.
 340 Quinnipiac St., Bldg. 40, Wallingford CT 06492
  
  
 ---------------------------------------------------------------
 Warning -- This program may not be used in any manner that
 competes with the business of Gaussian, Inc. or will provide
 assistance to any competitor of Gaussian, Inc.  The licensee
 of this program is prohibited from giving any competitor of
 Gaussian, Inc. access to this program.  By using this program,
 the user acknowledges that Gaussian, Inc. is engaged in the
 business of creating and licensing software in the field of
 computational chemistry and represents and warrants to the
 licensee that it is not a competitor of Gaussian, Inc. and that
 it will not use this program in any manner prohibited above.
 ---------------------------------------------------------------
  

 Cite this work as:
 Gaussian 16, Revision C.02,
 M. J. Frisch, G. W. Trucks, H. B. Schlegel, G. E. Scuseria, 
 M. A. Robb, J. R. Cheeseman, G. Scalmani, V. Barone, 
 G. A. Petersson, H. Nakatsuji, X. Li, M. Caricato, A. V. Marenich, 
 J. Bloino, B. G. Janesko, R. Gomperts, B. Mennucci, H. P. Hratchian, 
 J. V. Ortiz, A. F. Izmaylov, J. L. Sonnenberg, D. Williams-Young, 
 F. Ding, F. Lipparini, F. Egidi, J. Goings, B. Peng, A. Petrone, 
 T. Henderson, D. Ranasinghe, V. G. Zakrzewski, J. Gao, N. Rega, 
 G. Zheng, W. Liang, M. Hada, M. Ehara, K. Toyota, R. Fukuda, 
 J. Hasegawa, M. Ishida, T. Nakajima, Y. Honda, O. Kitao, H. Nakai, 
 T. Vreven, K. Throssell, J. A. Montgomery, Jr., J. E. Peralta, 
 F. Ogliaro, M. J. Bearpark, J. J. Heyd, E. N. Brothers, K. N. Kudin, 
 V. N. Staroverov, T. A. Keith, R. Kobayashi, J. Normand, 
 K. Raghavachari, A. P. Rendell, J. C. Burant, S. S. Iyengar, 
 J. Tomasi, M. Cossi, J. M. Millam, M. Klene, C. Adamo, R. Cammi, 
 J. W. Ochterski, R. L. Martin, K. Morokuma, O. Farkas, 
 J. B. Foresman, and D. J. Fox, Gaussian, Inc., Wallingford CT, 2019.
 
 ******************************************
 Gaussian 16:  ES64L-G16RevC.02  7-Dec-2021
                12-Nov-2024 
 ******************************************
 %mem=16GB
 %CPU=0-71
 SetSPE:  set environment variable "OMP_PROC_BIND" = "true"
 SetSPE:  set environment variable "OMP_PLACES" = "{0},{1},{2},{3},{4},{5},{6},{7},{8},{9},{10},{11},{12},{13},{14},{15},{16},{17},{18},{19},{20},{21},{22},{23},{24},{25},{26},{27},{28},{29},{30},{31},{32},{33},{34},{35},{36},{37},{38},{39},{40},{41},{42},{43},{44},{45},{46},{47},{48},{49},{50},{51},{52},{53},{54},{55},{56},{57},{58},{59},{60},{61},{62},{63},{64},{65},{66},{67},{68},{69},{70},{71}"
 Will use up to   72 processors via shared memory.
 %gpucpu=0,1,2,3=0,1,2,3
 Will use    4 GPUs:
 Thread  CPU   GPU
      0    0     0
      1    1     1
      2    2     2
      3    3     3
      4    4    -1
      5    5    -1
      6    6    -1
      7    7    -1
      8    8    -1
      9    9    -1
     10   10    -1
     11   11    -1
     12   12    -1
     13   13    -1
     14   14    -1
     15   15    -1
     16   16    -1
     17   17    -1
     18   18    -1
     19   19    -1
     20   20    -1
     21   21    -1
     22   22    -1
     23   23    -1
     24   24    -1
     25   25    -1
     26   26    -1
     27   27    -1
     28   28    -1
     29   29    -1
     30   30    -1
     31   31    -1
     32   32    -1
     33   33    -1
     34   34    -1
     35   35    -1
     36   36    -1
     37   37    -1
     38   38    -1
     39   39    -1
     40   40    -1
     41   41    -1
     42   42    -1
     43   43    -1
     44   44    -1
     45   45    -1
     46   46    -1
     47   47    -1
     48   48    -1
     49   49    -1
     50   50    -1
     51   51    -1
     52   52    -1
     53   53    -1
     54   54    -1
     55   55    -1
     56   56    -1
     57   57    -1
     58   58    -1
     59   59    -1
     60   60    -1
     61   61    -1
     62   62    -1
     63   63    -1
     64   64    -1
     65   65    -1
     66   66    -1
     67   67    -1
     68   68    -1
     69   69    -1
     70   70    -1
     71   71    -1
 SetGPE:  set environment variable "OMP_PROC_BIND" = "true"
 SetGPE:  set environment variable "OMP_PLACES" = "{0},{1},{2},{3},{4},{5},{6},{7},{8},{9},{10},{11},{12},{13},{14},{15},{16},{17},{18},{19},{20},{21},{22},{23},{24},{25},{26},{27},{28},{29},{30},{31},{32},{33},{34},{35},{36},{37},{38},{39},{40},{41},{42},{43},{44},{45},{46},{47},{48},{49},{50},{51},{52},{53},{54},{55},{56},{57},{58},{59},{60},{61},{62},{63},{64},{65},{66},{67},{68},{69},{70},{71}"
 %oldchk=6krc_II_Sre.chk
 %chk=6krc_II_Qn.chk
 Properties for Device   0
 Minimum vector length:                              32
 Maximum vector length:                            1024
 Number of SMPs:                                    108
 Maximum number of threads per SMP:                2048
 Number of ASync Engines:                             5
 Memory:                                           9207742464
 Properties for Device   1
 Minimum vector length:                              32
 Maximum vector length:                            1024
 Number of SMPs:                                    108
 Maximum number of threads per SMP:                2048
 Number of ASync Engines:                             5
 Memory:                                           9207742464
 Properties for Device   2
 Minimum vector length:                              32
 Maximum vector length:                            1024
 Number of SMPs:                                    108
 Maximum number of threads per SMP:                2048
 Number of ASync Engines:                             5
 Memory:                                           9207742464
 Properties for Device   3
 Minimum vector length:                              32
 Maximum vector length:                            1024
 Number of SMPs:                                    108
 Maximum number of threads per SMP:                2048
 Number of ASync Engines:                             5
 Memory:                                           9207742464
   8286968217 words of memory will be used on each GPU.
 Copying data from "6krc_II_Sre.chk" to current chk file "6krc_II_Qn.chk"
 IOpt=  2 FromEx=T IUOpen= 4 IOptOp= 5 NList=   0 IFRang= 0 IUIn= 4 IUOut= 2.
 --------------------------------------------------------------
 # apfd/def2TZVP guess=read scf=maxcycle=999 geom=check pop=nbo
 --------------------------------------------------------------
 1/29=2,38=1,172=1/1;
 2/12=2,40=1/2;
 3/5=44,7=101,11=2,14=-4,25=1,30=1,74=-44,116=-2/1,2,3;
 4/5=1/1;
 5/5=2,7=999,38=6/2;
 6/7=2,8=2,9=2,10=2,28=1,40=1/1,7;
 99/5=1,9=1/99;
 ---------
 6krc_II_Q
 ---------
 Structure from the checkpoint file:  "6krc_II_Qn.chk"
 Charge =  0 Multiplicity = 5
 Z-Matrix found in chk file.
 Fe,0,-5.5141882322,-5.7696641136,8.5914924828
 N,0,-5.2970056479,-7.6075573528,7.7136932106
 N,0,-4.944231573,-4.916687176,6.9179766934
 N,0,-5.46740326,-4.0697139123,9.5918346015
 N,0,-5.9634332067,-6.7725855505,10.2975680459
 C,0,-5.630680613,-8.8271515424,8.2100878865
 C,0,-5.4835161936,-9.8570251034,7.2062236024
 C,0,-5.1205740102,-9.2200640863,6.0616124844
 C,0,-5.0394922816,-7.813233342,6.39048105
 C,0,-4.6395038108,-5.4871606159,5.7255846873
 C,0,-4.3113154302,-4.4859837908,4.7434757424
 C,0,-4.468051892,-3.2761219375,5.3640785461
 C,0,-4.9207114298,-3.5683387599,6.7148497959
 C,0,-5.1965585949,-2.8455853383,9.0544086119
 C,0,-5.1918910803,-1.8347596938,10.0790209017
 C,0,-5.5398002309,-2.4679177289,11.2458299713
 C,0,-5.7410001173,-3.8622580747,10.9027129639
 C,0,-6.2837546027,-6.1871746266,11.485897894
 C,0,-6.523814128,-7.1922285789,12.5011504021
 C,0,-6.4691902481,-8.3927238522,11.8665378957
 C,0,-6.1208512955,-8.1074257675,10.4913450291
 C,0,-5.9700200449,-9.0826611889,9.5252079378
 H,0,-6.1483046454,-10.1079098036,9.8112180537
 C,0,-4.6569064763,-6.8489398544,5.479072691
 H,0,-4.4043668311,-7.1798914979,4.4832258576
 C,0,-4.8873898135,-2.6172758157,7.7215522228
 H,0,-4.6914657859,-1.5965442474,7.4284005458
 C,0,-6.0643912721,-4.8570429629,11.8066459589
 H,0,-6.2438289823,-4.5613366407,12.8290690801
 C,0,-4.844997611,-9.7901586469,4.7123703162
 H,0,-4.9968204179,-10.8668972784,4.7092177549
 H,0,-3.8158688268,-9.5891455817,4.4136585254
 H,0,-5.5058682595,-9.3478754045,3.9666189192
 C,0,-5.720363329,-11.3086655412,7.4488297478
 H,0,-6.7313028542,-11.4779133845,7.8205558082
 H,0,-5.0197356531,-11.6917204894,8.1913331668
 H,0,-5.5926601276,-11.8798422004,6.5324696375
 C,0,-3.9426900924,-4.7608999678,3.3274610821
 H,0,-4.5413716104,-5.5773978751,2.9261916361
 H,0,-2.8916808796,-5.0426489742,3.2461008388
 H,0,-4.1096978211,-3.8746606481,2.7187755964
 C,0,-4.3038352087,-1.9433719271,4.8281646854
 H,0,-4.9889782086,-1.197259991,5.2154434617
 C,0,-3.3938078665,-1.5777179348,3.9307255995
 H,0,-2.6591678931,-2.2645669571,3.5481686851
 H,0,-3.3375077132,-0.5658294017,3.5647983383
 C,0,-4.949706822,-0.3830719601,9.8522541238
 H,0,-5.3659163322,-0.0667338793,8.8970355617
 H,0,-3.8806569299,-0.1635220622,9.8412434695
 H,0,-5.411987258,0.2019039583,10.6448891193
 C,0,-5.7101626592,-1.9162005017,12.5708184859
 H,0,-6.467275168,-2.3944908954,13.1814390816
 C,0,-5.0160884099,-0.9042289664,13.0822241424
 H,0,-5.205338576,-0.5372466471,14.0773729334
 H,0,-4.2205774231,-0.4230130913,12.5406174548
 C,0,-6.8340458163,-6.8941055999,13.928105367
 H,0,-7.6843261654,-6.2162053998,14.0030182413
 H,0,-5.9805051247,-6.4210059295,14.4146863419
 H,0,-7.0728225916,-7.805660287,14.4707807056
 C,0,-6.6611301974,-9.7646915103,12.4171115701
 H,0,-6.8996997512,-9.7260060736,13.4771490887
 H,0,-5.7566512074,-10.3600481394,12.2908668443
 H,0,-7.4754128623,-10.2746058141,11.9011111251
 O,0,-3.313,-5.854,9.183
 H,0,-3.102,-4.982,9.516
 H,0,-2.777,-6.563,9.189
 C,0,-10.5329388332,-3.8566709226,7.127771183
 H,0,-10.192346474,-2.8287313159,7.0488783552
 H,0,-11.3411837748,-3.902901738,7.8574409364
 H,0,-10.9284506243,-4.1676589062,6.1603786618
 N,0,-9.5474964294,-6.0644015057,7.7840780166
 H,0,-10.4072420365,-6.5838767356,7.7174139978
 C,0,-9.4005037576,-4.7244257047,7.5389926281
 C,0,-8.3346069148,-6.5532004688,8.1314372755
 H,0,-8.1473179278,-7.5771477236,8.3813962832
 N,0,-7.4294222266,-5.6042801962,8.1203934579
 C,0,-8.0780469473,-4.4610790061,7.753332149
 H,0,-7.5528546653,-3.5323142654,7.6701752184
 Recover connectivity data from disk.
 Stoichiometry    C34H36FeN6O(5)
 Framework group  C1[X(C34H36FeN6O)]
 Deg. of freedom   228
 Full point group                 C1      NOp   1
 Largest Abelian subgroup         C1      NOp   1
 Largest concise Abelian subgroup C1      NOp   1
                         Standard orientation:                         
 ---------------------------------------------------------------------
 Center     Atomic      Atomic             Coordinates (Angstroms)
 Number     Number       Type             X           Y           Z
 ---------------------------------------------------------------------
      1         26           0        0.174572   -0.015725   -0.303524
      2          7           0        1.780929   -1.263863   -0.542948
      3          7           0       -1.027445   -1.564679   -0.398238
      4          7           0       -1.317823    1.273453   -0.362516
      5          7           0        1.509268    1.512263   -0.350484
      6          6           0        3.103772   -0.964237   -0.469007
      7          6           0        3.913281   -2.161020   -0.518464
      8          6           0        3.043204   -3.204810   -0.550868
      9          6           0        1.717092   -2.625976   -0.534147
     10          6           0       -0.721444   -2.881805   -0.506127
     11          6           0       -1.913080   -3.690827   -0.496672
     12          6           0       -2.961146   -2.825466   -0.334847
     13          6           0       -2.377743   -1.498412   -0.218903
     14          6           0       -2.642258    0.947059   -0.366223
     15          6           0       -3.453318    2.131495   -0.470687
     16          6           0       -2.585522    3.194566   -0.457157
     17          6           0       -1.255306    2.627075   -0.352874
     18          6           0        1.190466    2.831361   -0.224846
     19          6           0        2.377786    3.654934   -0.327305
     20          6           0        3.430238    2.797144   -0.386006
     21          6           0        2.865651    1.464843   -0.396378
     22          6           0        3.627800    0.314453   -0.451020
     23          1           0        4.701734    0.420801   -0.459939
     24          6           0        0.564864   -3.384483   -0.596896
     25          1           0        0.679136   -4.455420   -0.667973
     26          6           0       -3.138126   -0.348391   -0.354364
     27          1           0       -4.211614   -0.465819   -0.361557
     28          6           0       -0.083870    3.361241   -0.349523
     29          1           0       -0.170704    4.437046   -0.359168
     30          6           0        3.326818   -4.667289   -0.596925
     31          1           0        4.397803   -4.854290   -0.575780
     32          1           0        2.920650   -5.108526   -1.507463
     33          1           0        2.872869   -5.173237    0.255399
     34          6           0        5.403950   -2.169577   -0.511514
     35          1           0        5.788734   -1.655242    0.369522
     36          1           0        5.793526   -1.662540   -1.394727
     37          1           0        5.784876   -3.187977   -0.506793
     38          6           0       -1.942510   -5.176787   -0.583948
     39          1           0       -1.122727   -5.611439   -0.013738
     40          1           0       -1.845448   -5.508301   -1.618984
     41          1           0       -2.882100   -5.556100   -0.187585
     42          6           0       -4.374464   -3.108917   -0.222683
     43          1           0       -4.928550   -2.460215    0.446842
     44          6           0       -5.023699   -4.071315   -0.870398
     45          1           0       -4.534185   -4.713084   -1.581957
     46          1           0       -6.079195   -4.234253   -0.727676
     47          6           0       -4.942181    2.154297   -0.486191
     48          1           0       -5.347044    1.375953    0.158797
     49          1           0       -5.323897    1.986018   -1.494738
     50          1           0       -5.305472    3.119294   -0.138382
     51          6           0       -2.871710    4.610299   -0.510115
     52          1           0       -2.185173    5.245757    0.037333
     53          6           0       -3.877921    5.171559   -1.173357
     54          1           0       -4.037215    6.237036   -1.159266
     55          1           0       -4.561592    4.595859   -1.772445
     56          6           0        2.377406    5.145021   -0.296264
     57          1           0        1.862502    5.510776    0.592125
     58          1           0        1.866654    5.546054   -1.172289
     59          1           0        3.393537    5.532128   -0.287979
     60          6           0        4.888515    3.092171   -0.479034
     61          1           0        5.067381    4.164557   -0.469630
     62          1           0        5.305971    2.683129   -1.399298
     63          1           0        5.424014    2.648185    0.360872
     64          8           0        0.014612    0.122835   -2.574523
     65          1           0       -0.810481    0.575655   -2.747643
     66          1           0        0.622332   -0.112114   -3.179079
     67          6           0       -1.154842   -0.102745    5.101563
     68          1           0       -2.221566   -0.039809    4.909139
     69          1           0       -0.860701    0.742143    5.724026
     70          1           0       -0.954448   -1.020509    5.655226
     71          7           0        0.951707   -0.092332    3.745743
     72          1           0        1.579637   -0.097338    4.532597
     73          6           0       -0.416738   -0.091304    3.813316
     74          6           0        1.297683   -0.082667    2.437732
     75          1           0        2.307421   -0.079488    2.082142
     76          7           0        0.231586   -0.076211    1.673974
     77          6           0       -0.842324   -0.081773    2.516022
     78          1           0       -1.841944   -0.077224    2.133811
 ---------------------------------------------------------------------
 Rotational constants (GHZ):           0.0925961           0.0913689           0.0594291
 Standard basis: def2TZVP (5D, 7F)
 There are  1744 symmetry adapted cartesian basis functions of A   symmetry.
 There are  1532 symmetry adapted basis functions of A   symmetry.
  1532 basis functions,  2481 primitive gaussians,  1744 cartesian basis functions
   160 alpha electrons      156 beta electrons
       nuclear repulsion energy      5965.5479946322 Hartrees.
 NAtoms=   78 NActive=   78 NUniq=   78 SFac= 1.00D+00 NAtFMM=   60 NAOKFM=T Big=T
 Integral buffers will be    131072 words long.
 Raffenetti 2 integral format.
 Two-electron integral symmetry is turned on.
 R6APFD:  NTU= -4 IXU= 1 FactS= 1.050
 Nuclear repulsion after empirical dispersion term =     5965.3938818155 Hartrees.
 One-electron integrals computed using PRISM.
   1 Symmetry operations used in ECPInt.
 ECPInt:  NShTT=  186355 NPrTT=  576197 LenC2=  147146 LenP2D=  301052.
 LDataN:  DoStor=T MaxTD1= 6 Len=  172
 Number of processors reduced to  23 by ecpmxn.
 NBasis=  1532 RedAO= T EigKep=  3.72D-06  NBF=  1532
 NBsUse=  1532 1.00D-06 EigRej= -1.00D+00 NBFU=  1532
 Initial guess from the checkpoint file:  "6krc_II_Qn.chk"
 B after Tr=    -0.000000   -0.000000    0.000000
         Rot=    1.000000   -0.000000   -0.000000    0.000000 Ang=   0.00 deg.
 Initial guess <Sx>= 0.0000 <Sy>= 0.0000 <Sz>= 2.0000 <S**2>= 6.1623 S= 2.0322
 Requested convergence on RMS density matrix=1.00D-08 within 999 cycles.
 Requested convergence on MAX density matrix=1.00D-06.
 Requested convergence on             energy=1.00D-06.
 No special actions if energy rises.
 Restarting incremental Fock formation.
 SCF Done:  E(UAPFD) =  -2984.00475531     A.U. after   36 cycles
            NFock= 36  Conv=0.12D-08     -V/T= 2.0031
 <Sx>= 0.0000 <Sy>= 0.0000 <Sz>= 2.0000 <S**2>= 6.1666 S= 2.0331
 <L.S>=  0.00000000000    
 Annihilation of the first spin contaminant:
 S**2 before annihilation     6.1666,   after     6.0011

 **********************************************************************

            Population analysis using the SCF Density.

 **********************************************************************

 Orbital symmetries:
 Alpha Orbitals:
       Occupied  (A) (A) (A) (A) (A) (A) (A) (A) (A) (A) (A) (A)
                 (A) (A) (A) (A) (A) (A) (A) (A) (A) (A) (A) (A)
                 (A) (A) (A) (A) (A) (A) (A) (A) (A) (A) (A) (A)
                 (A) (A) (A) (A) (A) (A) (A) (A) (A) (A) (A) (A)
                 (A) (A) (A) (A) (A) (A) (A) (A) (A) (A) (A) (A)
                 (A) (A) (A) (A) (A) (A) (A) (A) (A) (A) (A) (A)
                 (A) (A) (A) (A) (A) (A) (A) (A) (A) (A) (A) (A)
                 (A) (A) (A) (A) (A) (A) (A) (A) (A) (A) (A) (A)
                 (A) (A) (A) (A) (A) (A) (A) (A) (A) (A) (A) (A)
                 (A) (A) (A) (A) (A) (A) (A) (A) (A) (A) (A) (A)
                 (A) (A) (A) (A) (A) (A) (A) (A) (A) (A) (A) (A)
                 (A) (A) (A) (A) (A) (A) (A) (A) (A) (A) (A) (A)
                 (A) (A) (A) (A) (A) (A) (A) (A) (A) (A) (A) (A)
                 (A) (A) (A) (A)
       Virtual   (A) (A) (A) (A) (A) (A) (A) (A) (A) (A) (A) (A)
                 (A) (A) (A) (A) (A) (A) (A) (A) (A) (A) (A) (A)
                 (A) (A) (A) (A) (A) (A) (A) (A) (A) (A) (A) (A)
                 (A) (A) (A) (A) (A) (A) (A) (A) (A) (A) (A) (A)
                 (A) (A) (A) (A) (A) (A) (A) (A) (A) (A) (A) (A)
                 (A) (A) (A) (A) (A) (A) (A) (A) (A) (A) (A) (A)
                 (A) (A) (A) (A) (A) (A) (A) (A) (A) (A) (A) (A)
                 (A) (A) (A) (A) (A) (A) (A) (A) (A) (A) (A) (A)
                 (A) (A) (A) (A) (A) (A) (A) (A) (A) (A) (A) (A)
                 (A) (A) (A) (A) (A) (A) (A) (A) (A) (A) (A) (A)
                 (A) (A) (A) (A) (A) (A) (A) (A) (A) (A) (A) (A)
                 (A) (A) (A) (A) (A) (A) (A) (A) (A) (A) (A) (A)
                 (A) (A) (A) (A) (A) (A) (A) (A) (A) (A) (A) (A)
                 (A) (A) (A) (A) (A) (A) (A) (A) (A) (A) (A) (A)
                 (A) (A) (A) (A) (A) (A) (A) (A) (A) (A) (A) (A)
                 (A) (A) (A) (A) (A) (A) (A) (A) (A) (A) (A) (A)
                 (A) (A) (A) (A) (A) (A) (A) (A) (A) (A) (A) (A)
                 (A) (A) (A) (A) (A) (A) (A) (A) (A) (A) (A) (A)
                 (A) (A) (A) (A) (A) (A) (A) (A) (A) (A) (A) (A)
                 (A) (A) (A) (A) (A) (A) (A) (A) (A) (A) (A) (A)
                 (A) (A) (A) (A) (A) (A) (A) (A) (A) (A) (A) (A)
                 (A) (A) (A) (A) (A) (A) (A) (A) (A) (A) (A) (A)
                 (A) (A) (A) (A) (A) (A) (A) (A) (A) (A) (A) (A)
                 (A) (A) (A) (A) (A) (A) (A) (A) (A) (A) (A) (A)
                 (A) (A) (A) (A) (A) (A) (A) (A) (A) (A) (A) (A)
                 (A) (A) (A) (A) (A) (A) (A) (A) (A) (A) (A) (A)
                 (A) (A) (A) (A) (A) (A) (A) (A) (A) (A) (A) (A)
                 (A) (A) (A) (A) (A) (A) (A) (A) (A) (A) (A) (A)
                 (A) (A) (A) (A) (A) (A) (A) (A) (A) (A) (A) (A)
                 (A) (A) (A) (A) (A) (A) (A) (A) (A) (A) (A) (A)
                 (A) (A) (A) (A) (A) (A) (A) (A) (A) (A) (A) (A)
                 (A) (A) (A) (A) (A) (A) (A) (A) (A) (A) (A) (A)
                 (A) (A) (A) (A) (A) (A) (A) (A) (A) (A) (A) (A)
                 (A) (A) (A) (A) (A) (A) (A) (A) (A) (A) (A) (A)
                 (A) (A) (A) (A) (A) (A) (A) (A) (A) (A) (A) (A)
                 (A) (A) (A) (A) (A) (A) (A) (A) (A) (A) (A) (A)
                 (A) (A) (A) (A) (A) (A) (A) (A) (A) (A) (A) (A)
                 (A) (A) (A) (A) (A) (A) (A) (A) (A) (A) (A) (A)
                 (A) (A) (A) (A) (A) (A) (A) (A) (A) (A) (A) (A)
                 (A) (A) (A) (A) (A) (A) (A) (A) (A) (A) (A) (A)
                 (A) (A) (A) (A) (A) (A) (A) (A) (A) (A) (A) (A)
                 (A) (A) (A) (A) (A) (A) (A) (A) (A) (A) (A) (A)
                 (A) (A) (A) (A) (A) (A) (A) (A) (A) (A) (A) (A)
                 (A) (A) (A) (A) (A) (A) (A) (A) (A) (A) (A) (A)
                 (A) (A) (A) (A) (A) (A) (A) (A) (A) (A) (A) (A)
                 (A) (A) (A) (A) (A) (A) (A) (A) (A) (A) (A) (A)
                 (A) (A) (A) (A) (A) (A) (A) (A) (A) (A) (A) (A)
                 (A) (A) (A) (A) (A) (A) (A) (A) (A) (A) (A) (A)
                 (A) (A) (A) (A) (A) (A) (A) (A) (A) (A) (A) (A)
                 (A) (A) (A) (A) (A) (A) (A) (A) (A) (A) (A) (A)
                 (A) (A) (A) (A) (A) (A) (A) (A) (A) (A) (A) (A)
                 (A) (A) (A) (A) (A) (A) (A) (A) (A) (A) (A) (A)
                 (A) (A) (A) (A) (A) (A) (A) (A) (A) (A) (A) (A)
                 (A) (A) (A) (A) (A) (A) (A) (A) (A) (A) (A) (A)
                 (A) (A) (A) (A) (A) (A) (A) (A) (A) (A) (A) (A)
                 (A) (A) (A) (A) (A) (A) (A) (A) (A) (A) (A) (A)
                 (A) (A) (A) (A) (A) (A) (A) (A) (A) (A) (A) (A)
                 (A) (A) (A) (A) (A) (A) (A) (A) (A) (A) (A) (A)
                 (A) (A) (A) (A) (A) (A) (A) (A) (A) (A) (A) (A)
                 (A) (A) (A) (A) (A) (A) (A) (A) (A) (A) (A) (A)
                 (A) (A) (A) (A) (A) (A) (A) (A) (A) (A) (A) (A)
                 (A) (A) (A) (A) (A) (A) (A) (A) (A) (A) (A) (A)
                 (A) (A) (A) (A) (A) (A) (A) (A) (A) (A) (A) (A)
                 (A) (A) (A) (A) (A) (A) (A) (A) (A) (A) (A) (A)
                 (A) (A) (A) (A) (A) (A) (A) (A) (A) (A) (A) (A)
                 (A) (A) (A) (A) (A) (A) (A) (A) (A) (A) (A) (A)
                 (A) (A) (A) (A) (A) (A) (A) (A) (A) (A) (A) (A)
                 (A) (A) (A) (A) (A) (A) (A) (A) (A) (A) (A) (A)
                 (A) (A) (A) (A) (A) (A) (A) (A) (A) (A) (A) (A)
                 (A) (A) (A) (A) (A) (A) (A) (A) (A) (A) (A) (A)
                 (A) (A) (A) (A) (A) (A) (A) (A) (A) (A) (A) (A)
                 (A) (A) (A) (A) (A) (A) (A) (A) (A) (A) (A) (A)
                 (A) (A) (A) (A) (A) (A) (A) (A) (A) (A) (A) (A)
                 (A) (A) (A) (A) (A) (A) (A) (A) (A) (A) (A) (A)
                 (A) (A) (A) (A) (A) (A) (A) (A) (A) (A) (A) (A)
                 (A) (A) (A) (A) (A) (A) (A) (A) (A) (A) (A) (A)
                 (A) (A) (A) (A) (A) (A) (A) (A) (A) (A) (A) (A)
                 (A) (A) (A) (A) (A) (A) (A) (A) (A) (A) (A) (A)
                 (A) (A) (A) (A) (A) (A) (A) (A) (A) (A) (A) (A)
                 (A) (A) (A) (A) (A) (A) (A) (A) (A) (A) (A) (A)
                 (A) (A) (A) (A) (A) (A) (A) (A) (A) (A) (A) (A)
                 (A) (A) (A) (A) (A) (A) (A) (A) (A) (A) (A) (A)
                 (A) (A) (A) (A) (A) (A) (A) (A) (A) (A) (A) (A)
                 (A) (A) (A) (A) (A) (A) (A) (A) (A) (A) (A) (A)
                 (A) (A) (A) (A) (A) (A) (A) (A) (A) (A) (A) (A)
                 (A) (A) (A) (A) (A) (A) (A) (A) (A) (A) (A) (A)
                 (A) (A) (A) (A) (A) (A) (A) (A) (A) (A) (A) (A)
                 (A) (A) (A) (A) (A) (A) (A) (A) (A) (A) (A) (A)
                 (A) (A) (A) (A) (A) (A) (A) (A) (A) (A) (A) (A)
                 (A) (A) (A) (A) (A) (A) (A) (A) (A) (A) (A) (A)
                 (A) (A) (A) (A) (A) (A) (A) (A) (A) (A) (A) (A)
                 (A) (A) (A) (A) (A) (A) (A) (A) (A) (A) (A) (A)
                 (A) (A) (A) (A) (A) (A) (A) (A) (A) (A) (A) (A)
                 (A) (A) (A) (A) (A) (A) (A) (A) (A) (A) (A) (A)
                 (A) (A) (A) (A) (A) (A) (A) (A) (A) (A) (A) (A)
                 (A) (A) (A) (A) (A) (A) (A) (A) (A) (A) (A) (A)
                 (A) (A) (A) (A) (A) (A) (A) (A) (A) (A) (A) (A)
                 (A) (A) (A) (A) (A) (A) (A) (A) (A) (A) (A) (A)
                 (A) (A) (A) (A) (A) (A) (A) (A) (A) (A) (A) (A)
                 (A) (A) (A) (A) (A) (A) (A) (A) (A) (A) (A) (A)
                 (A) (A) (A) (A) (A) (A) (A) (A) (A) (A) (A) (A)
                 (A) (A) (A) (A) (A) (A) (A) (A) (A) (A) (A) (A)
                 (A) (A) (A) (A) (A) (A) (A) (A) (A) (A) (A) (A)
                 (A) (A) (A) (A) (A) (A) (A) (A) (A) (A) (A) (A)
                 (A) (A) (A) (A) (A) (A) (A) (A) (A) (A) (A) (A)
                 (A) (A) (A) (A) (A) (A) (A) (A) (A) (A) (A) (A)
                 (A) (A) (A) (A) (A) (A) (A) (A) (A) (A) (A) (A)
                 (A) (A) (A) (A) (A) (A) (A) (A) (A) (A) (A) (A)
                 (A) (A) (A) (A) (A) (A) (A) (A) (A) (A) (A) (A)
                 (A) (A) (A) (A) (A) (A) (A) (A) (A) (A) (A) (A)
                 (A) (A) (A) (A) (A) (A) (A) (A) (A) (A) (A) (A)
                 (A) (A) (A) (A) (A) (A) (A) (A) (A) (A) (A) (A)
                 (A) (A) (A) (A) (A) (A) (A) (A) (A) (A) (A) (A)
                 (A) (A) (A) (A) (A) (A) (A) (A) (A) (A) (A) (A)
                 (A) (A) (A) (A)
 Beta  Orbitals:
       Occupied  (A) (A) (A) (A) (A) (A) (A) (A) (A) (A) (A) (A)
                 (A) (A) (A) (A) (A) (A) (A) (A) (A) (A) (A) (A)
                 (A) (A) (A) (A) (A) (A) (A) (A) (A) (A) (A) (A)
                 (A) (A) (A) (A) (A) (A) (A) (A) (A) (A) (A) (A)
                 (A) (A) (A) (A) (A) (A) (A) (A) (A) (A) (A) (A)
                 (A) (A) (A) (A) (A) (A) (A) (A) (A) (A) (A) (A)
                 (A) (A) (A) (A) (A) (A) (A) (A) (A) (A) (A) (A)
                 (A) (A) (A) (A) (A) (A) (A) (A) (A) (A) (A) (A)
                 (A) (A) (A) (A) (A) (A) (A) (A) (A) (A) (A) (A)
                 (A) (A) (A) (A) (A) (A) (A) (A) (A) (A) (A) (A)
                 (A) (A) (A) (A) (A) (A) (A) (A) (A) (A) (A) (A)
                 (A) (A) (A) (A) (A) (A) (A) (A) (A) (A) (A) (A)
                 (A) (A) (A) (A) (A) (A) (A) (A) (A) (A) (A) (A)
       Virtual   (A) (A) (A) (A) (A) (A) (A) (A) (A) (A) (A) (A)
                 (A) (A) (A) (A) (A) (A) (A) (A) (A) (A) (A) (A)
                 (A) (A) (A) (A) (A) (A) (A) (A) (A) (A) (A) (A)
                 (A) (A) (A) (A) (A) (A) (A) (A) (A) (A) (A) (A)
                 (A) (A) (A) (A) (A) (A) (A) (A) (A) (A) (A) (A)
                 (A) (A) (A) (A) (A) (A) (A) (A) (A) (A) (A) (A)
                 (A) (A) (A) (A) (A) (A) (A) (A) (A) (A) (A) (A)
                 (A) (A) (A) (A) (A) (A) (A) (A) (A) (A) (A) (A)
                 (A) (A) (A) (A) (A) (A) (A) (A) (A) (A) (A) (A)
                 (A) (A) (A) (A) (A) (A) (A) (A) (A) (A) (A) (A)
                 (A) (A) (A) (A) (A) (A) (A) (A) (A) (A) (A) (A)
                 (A) (A) (A) (A) (A) (A) (A) (A) (A) (A) (A) (A)
                 (A) (A) (A) (A) (A) (A) (A) (A) (A) (A) (A) (A)
                 (A) (A) (A) (A) (A) (A) (A) (A) (A) (A) (A) (A)
                 (A) (A) (A) (A) (A) (A) (A) (A) (A) (A) (A) (A)
                 (A) (A) (A) (A) (A) (A) (A) (A) (A) (A) (A) (A)
                 (A) (A) (A) (A) (A) (A) (A) (A) (A) (A) (A) (A)
                 (A) (A) (A) (A) (A) (A) (A) (A) (A) (A) (A) (A)
                 (A) (A) (A) (A) (A) (A) (A) (A) (A) (A) (A) (A)
                 (A) (A) (A) (A) (A) (A) (A) (A) (A) (A) (A) (A)
                 (A) (A) (A) (A) (A) (A) (A) (A) (A) (A) (A) (A)
                 (A) (A) (A) (A) (A) (A) (A) (A) (A) (A) (A) (A)
                 (A) (A) (A) (A) (A) (A) (A) (A) (A) (A) (A) (A)
                 (A) (A) (A) (A) (A) (A) (A) (A) (A) (A) (A) (A)
                 (A) (A) (A) (A) (A) (A) (A) (A) (A) (A) (A) (A)
                 (A) (A) (A) (A) (A) (A) (A) (A) (A) (A) (A) (A)
                 (A) (A) (A) (A) (A) (A) (A) (A) (A) (A) (A) (A)
                 (A) (A) (A) (A) (A) (A) (A) (A) (A) (A) (A) (A)
                 (A) (A) (A) (A) (A) (A) (A) (A) (A) (A) (A) (A)
                 (A) (A) (A) (A) (A) (A) (A) (A) (A) (A) (A) (A)
                 (A) (A) (A) (A) (A) (A) (A) (A) (A) (A) (A) (A)
                 (A) (A) (A) (A) (A) (A) (A) (A) (A) (A) (A) (A)
                 (A) (A) (A) (A) (A) (A) (A) (A) (A) (A) (A) (A)
                 (A) (A) (A) (A) (A) (A) (A) (A) (A) (A) (A) (A)
                 (A) (A) (A) (A) (A) (A) (A) (A) (A) (A) (A) (A)
                 (A) (A) (A) (A) (A) (A) (A) (A) (A) (A) (A) (A)
                 (A) (A) (A) (A) (A) (A) (A) (A) (A) (A) (A) (A)
                 (A) (A) (A) (A) (A) (A) (A) (A) (A) (A) (A) (A)
                 (A) (A) (A) (A) (A) (A) (A) (A) (A) (A) (A) (A)
                 (A) (A) (A) (A) (A) (A) (A) (A) (A) (A) (A) (A)
                 (A) (A) (A) (A) (A) (A) (A) (A) (A) (A) (A) (A)
                 (A) (A) (A) (A) (A) (A) (A) (A) (A) (A) (A) (A)
                 (A) (A) (A) (A) (A) (A) (A) (A) (A) (A) (A) (A)
                 (A) (A) (A) (A) (A) (A) (A) (A) (A) (A) (A) (A)
                 (A) (A) (A) (A) (A) (A) (A) (A) (A) (A) (A) (A)
                 (A) (A) (A) (A) (A) (A) (A) (A) (A) (A) (A) (A)
                 (A) (A) (A) (A) (A) (A) (A) (A) (A) (A) (A) (A)
                 (A) (A) (A) (A) (A) (A) (A) (A) (A) (A) (A) (A)
                 (A) (A) (A) (A) (A) (A) (A) (A) (A) (A) (A) (A)
                 (A) (A) (A) (A) (A) (A) (A) (A) (A) (A) (A) (A)
                 (A) (A) (A) (A) (A) (A) (A) (A) (A) (A) (A) (A)
                 (A) (A) (A) (A) (A) (A) (A) (A) (A) (A) (A) (A)
                 (A) (A) (A) (A) (A) (A) (A) (A) (A) (A) (A) (A)
                 (A) (A) (A) (A) (A) (A) (A) (A) (A) (A) (A) (A)
                 (A) (A) (A) (A) (A) (A) (A) (A) (A) (A) (A) (A)
                 (A) (A) (A) (A) (A) (A) (A) (A) (A) (A) (A) (A)
                 (A) (A) (A) (A) (A) (A) (A) (A) (A) (A) (A) (A)
                 (A) (A) (A) (A) (A) (A) (A) (A) (A) (A) (A) (A)
                 (A) (A) (A) (A) (A) (A) (A) (A) (A) (A) (A) (A)
                 (A) (A) (A) (A) (A) (A) (A) (A) (A) (A) (A) (A)
                 (A) (A) (A) (A) (A) (A) (A) (A) (A) (A) (A) (A)
                 (A) (A) (A) (A) (A) (A) (A) (A) (A) (A) (A) (A)
                 (A) (A) (A) (A) (A) (A) (A) (A) (A) (A) (A) (A)
                 (A) (A) (A) (A) (A) (A) (A) (A) (A) (A) (A) (A)
                 (A) (A) (A) (A) (A) (A) (A) (A) (A) (A) (A) (A)
                 (A) (A) (A) (A) (A) (A) (A) (A) (A) (A) (A) (A)
                 (A) (A) (A) (A) (A) (A) (A) (A) (A) (A) (A) (A)
                 (A) (A) (A) (A) (A) (A) (A) (A) (A) (A) (A) (A)
                 (A) (A) (A) (A) (A) (A) (A) (A) (A) (A) (A) (A)
                 (A) (A) (A) (A) (A) (A) (A) (A) (A) (A) (A) (A)
                 (A) (A) (A) (A) (A) (A) (A) (A) (A) (A) (A) (A)
                 (A) (A) (A) (A) (A) (A) (A) (A) (A) (A) (A) (A)
                 (A) (A) (A) (A) (A) (A) (A) (A) (A) (A) (A) (A)
                 (A) (A) (A) (A) (A) (A) (A) (A) (A) (A) (A) (A)
                 (A) (A) (A) (A) (A) (A) (A) (A) (A) (A) (A) (A)
                 (A) (A) (A) (A) (A) (A) (A) (A) (A) (A) (A) (A)
                 (A) (A) (A) (A) (A) (A) (A) (A) (A) (A) (A) (A)
                 (A) (A) (A) (A) (A) (A) (A) (A) (A) (A) (A) (A)
                 (A) (A) (A) (A) (A) (A) (A) (A) (A) (A) (A) (A)
                 (A) (A) (A) (A) (A) (A) (A) (A) (A) (A) (A) (A)
                 (A) (A) (A) (A) (A) (A) (A) (A) (A) (A) (A) (A)
                 (A) (A) (A) (A) (A) (A) (A) (A) (A) (A) (A) (A)
                 (A) (A) (A) (A) (A) (A) (A) (A) (A) (A) (A) (A)
                 (A) (A) (A) (A) (A) (A) (A) (A) (A) (A) (A) (A)
                 (A) (A) (A) (A) (A) (A) (A) (A) (A) (A) (A) (A)
                 (A) (A) (A) (A) (A) (A) (A) (A) (A) (A) (A) (A)
                 (A) (A) (A) (A) (A) (A) (A) (A) (A) (A) (A) (A)
                 (A) (A) (A) (A) (A) (A) (A) (A) (A) (A) (A) (A)
                 (A) (A) (A) (A) (A) (A) (A) (A) (A) (A) (A) (A)
                 (A) (A) (A) (A) (A) (A) (A) (A) (A) (A) (A) (A)
                 (A) (A) (A) (A) (A) (A) (A) (A) (A) (A) (A) (A)
                 (A) (A) (A) (A) (A) (A) (A) (A) (A) (A) (A) (A)
                 (A) (A) (A) (A) (A) (A) (A) (A) (A) (A) (A) (A)
                 (A) (A) (A) (A) (A) (A) (A) (A) (A) (A) (A) (A)
                 (A) (A) (A) (A) (A) (A) (A) (A) (A) (A) (A) (A)
                 (A) (A) (A) (A) (A) (A) (A) (A) (A) (A) (A) (A)
                 (A) (A) (A) (A) (A) (A) (A) (A) (A) (A) (A) (A)
                 (A) (A) (A) (A) (A) (A) (A) (A) (A) (A) (A) (A)
                 (A) (A) (A) (A) (A) (A) (A) (A) (A) (A) (A) (A)
                 (A) (A) (A) (A) (A) (A) (A) (A) (A) (A) (A) (A)
                 (A) (A) (A) (A) (A) (A) (A) (A) (A) (A) (A) (A)
                 (A) (A) (A) (A) (A) (A) (A) (A) (A) (A) (A) (A)
                 (A) (A) (A) (A) (A) (A) (A) (A) (A) (A) (A) (A)
                 (A) (A) (A) (A) (A) (A) (A) (A) (A) (A) (A) (A)
                 (A) (A) (A) (A) (A) (A) (A) (A) (A) (A) (A) (A)
                 (A) (A) (A) (A) (A) (A) (A) (A) (A) (A) (A) (A)
                 (A) (A) (A) (A) (A) (A) (A) (A) (A) (A) (A) (A)
                 (A) (A) (A) (A) (A) (A) (A) (A) (A) (A) (A) (A)
                 (A) (A) (A) (A) (A) (A) (A) (A) (A) (A) (A) (A)
                 (A) (A) (A) (A) (A) (A) (A) (A) (A) (A) (A) (A)
                 (A) (A) (A) (A) (A) (A) (A) (A) (A) (A) (A) (A)
                 (A) (A) (A) (A) (A) (A) (A) (A) (A) (A) (A) (A)
                 (A) (A) (A) (A) (A) (A) (A) (A) (A) (A) (A) (A)
                 (A) (A) (A) (A) (A) (A) (A) (A) (A) (A) (A) (A)
                 (A) (A) (A) (A) (A) (A) (A) (A)
 The electronic state is 5-A.
 Alpha  occ. eigenvalues -- -256.18485 -30.07768 -25.92266 -25.90435 -25.90030
 Alpha  occ. eigenvalues --  -19.16160 -14.41993 -14.35407 -14.32464 -14.32207
 Alpha  occ. eigenvalues --  -14.31980 -14.31823 -10.25796 -10.23863 -10.21188
 Alpha  occ. eigenvalues --  -10.21117 -10.21064 -10.20914 -10.20789 -10.20735
 Alpha  occ. eigenvalues --  -10.20556 -10.20394 -10.20282 -10.20166 -10.19495
 Alpha  occ. eigenvalues --  -10.19385 -10.18844 -10.18785 -10.18610 -10.18563
 Alpha  occ. eigenvalues --  -10.18555 -10.18523 -10.18481 -10.18452 -10.18422
 Alpha  occ. eigenvalues --  -10.18305 -10.18266 -10.18246 -10.18233 -10.18178
 Alpha  occ. eigenvalues --  -10.18149 -10.18114 -10.18110 -10.18051 -10.17928
 Alpha  occ. eigenvalues --  -10.17873  -3.53486  -2.33158  -2.29185  -2.28448
 Alpha  occ. eigenvalues --   -1.05481  -1.04360  -0.96808  -0.95869  -0.95680
 Alpha  occ. eigenvalues --   -0.94728  -0.91095  -0.82062  -0.81763  -0.81422
 Alpha  occ. eigenvalues --   -0.80570  -0.80372  -0.80175  -0.79359  -0.79281
 Alpha  occ. eigenvalues --   -0.76567  -0.75587  -0.74109  -0.73665  -0.72972
 Alpha  occ. eigenvalues --   -0.71966  -0.70841  -0.70000  -0.68104  -0.67751
 Alpha  occ. eigenvalues --   -0.67652  -0.64882  -0.63912  -0.63820  -0.61531
 Alpha  occ. eigenvalues --   -0.60585  -0.60050  -0.59770  -0.57610  -0.56478
 Alpha  occ. eigenvalues --   -0.56134  -0.54223  -0.53445  -0.53260  -0.52643
 Alpha  occ. eigenvalues --   -0.50991  -0.50885  -0.50386  -0.48803  -0.48123
 Alpha  occ. eigenvalues --   -0.47754  -0.47572  -0.47358  -0.45136  -0.44750
 Alpha  occ. eigenvalues --   -0.44742  -0.44338  -0.43899  -0.43808  -0.43630
 Alpha  occ. eigenvalues --   -0.43331  -0.43281  -0.42873  -0.42839  -0.42750
 Alpha  occ. eigenvalues --   -0.42544  -0.42218  -0.42164  -0.41561  -0.41374
 Alpha  occ. eigenvalues --   -0.41301  -0.41200  -0.40669  -0.40334  -0.39986
 Alpha  occ. eigenvalues --   -0.39628  -0.39457  -0.39310  -0.39016  -0.38632
 Alpha  occ. eigenvalues --   -0.38504  -0.38175  -0.37935  -0.37526  -0.36999
 Alpha  occ. eigenvalues --   -0.36838  -0.36807  -0.36278  -0.35957  -0.35518
 Alpha  occ. eigenvalues --   -0.34621  -0.34314  -0.34095  -0.33570  -0.33135
 Alpha  occ. eigenvalues --   -0.32870  -0.31579  -0.31158  -0.30570  -0.30288
 Alpha  occ. eigenvalues --   -0.29773  -0.29406  -0.28623  -0.27663  -0.26239
 Alpha  occ. eigenvalues --   -0.26071  -0.24136  -0.23148  -0.22193  -0.21485
 Alpha  occ. eigenvalues --   -0.21260  -0.20324  -0.17688  -0.17590  -0.16038
 Alpha virt. eigenvalues --   -0.06659  -0.06428  -0.01759   0.00592   0.01199
 Alpha virt. eigenvalues --    0.02310   0.02512   0.03455   0.04473   0.04799
 Alpha virt. eigenvalues --    0.05312   0.05588   0.05962   0.05991   0.06419
 Alpha virt. eigenvalues --    0.07189   0.07974   0.08106   0.08389   0.08715
 Alpha virt. eigenvalues --    0.09115   0.09698   0.09738   0.10081   0.10351
 Alpha virt. eigenvalues --    0.10658   0.10898   0.11447   0.11545   0.11667
 Alpha virt. eigenvalues --    0.11815   0.12179   0.12404   0.12616   0.12758
 Alpha virt. eigenvalues --    0.13251   0.13486   0.13684   0.13767   0.14251
 Alpha virt. eigenvalues --    0.14339   0.14582   0.14682   0.14854   0.15093
 Alpha virt. eigenvalues --    0.15201   0.15618   0.15726   0.15932   0.16118
 Alpha virt. eigenvalues --    0.16291   0.16419   0.16736   0.17025   0.17307
 Alpha virt. eigenvalues --    0.17336   0.17791   0.18150   0.18273   0.18762
 Alpha virt. eigenvalues --    0.19223   0.19685   0.19845   0.20060   0.20288
 Alpha virt. eigenvalues --    0.20448   0.20493   0.20974   0.21238   0.21471
 Alpha virt. eigenvalues --    0.21721   0.22092   0.22515   0.22594   0.22807
 Alpha virt. eigenvalues --    0.23142   0.23289   0.23685   0.24241   0.24455
 Alpha virt. eigenvalues --    0.24729   0.25219   0.25372   0.25841   0.26034
 Alpha virt. eigenvalues --    0.26181   0.26520   0.26809   0.27034   0.27498
 Alpha virt. eigenvalues --    0.27636   0.27723   0.27925   0.28100   0.28936
 Alpha virt. eigenvalues --    0.29037   0.29240   0.29314   0.29656   0.29758
 Alpha virt. eigenvalues --    0.30216   0.30288   0.30481   0.30935   0.31136
 Alpha virt. eigenvalues --    0.31221   0.31875   0.32106   0.32147   0.32750
 Alpha virt. eigenvalues --    0.32989   0.33097   0.33558   0.33720   0.33887
 Alpha virt. eigenvalues --    0.34211   0.34424   0.34715   0.35213   0.35486
 Alpha virt. eigenvalues --    0.35597   0.35967   0.36197   0.36274   0.36469
 Alpha virt. eigenvalues --    0.36809   0.37240   0.37557   0.37613   0.37924
 Alpha virt. eigenvalues --    0.38377   0.38534   0.38814   0.39110   0.39531
 Alpha virt. eigenvalues --    0.39580   0.39905   0.40066   0.40131   0.40514
 Alpha virt. eigenvalues --    0.40772   0.40888   0.41074   0.41268   0.41407
 Alpha virt. eigenvalues --    0.41793   0.41984   0.42163   0.42300   0.42543
 Alpha virt. eigenvalues --    0.42800   0.42933   0.43158   0.43371   0.43448
 Alpha virt. eigenvalues --    0.43894   0.44030   0.44377   0.44555   0.44605
 Alpha virt. eigenvalues --    0.44842   0.45035   0.45095   0.45551   0.45645
 Alpha virt. eigenvalues --    0.45913   0.46066   0.46665   0.46879   0.46999
 Alpha virt. eigenvalues --    0.47263   0.47413   0.47615   0.47999   0.48084
 Alpha virt. eigenvalues --    0.48211   0.48361   0.48773   0.48813   0.49164
 Alpha virt. eigenvalues --    0.49345   0.49661   0.49718   0.50032   0.50178
 Alpha virt. eigenvalues --    0.50465   0.50680   0.51222   0.51298   0.51553
 Alpha virt. eigenvalues --    0.51669   0.51891   0.52278   0.52288   0.52441
 Alpha virt. eigenvalues --    0.52703   0.53030   0.53064   0.53321   0.53577
 Alpha virt. eigenvalues --    0.54031   0.54294   0.54434   0.54637   0.54943
 Alpha virt. eigenvalues --    0.55122   0.55396   0.55799   0.56036   0.56158
 Alpha virt. eigenvalues --    0.56636   0.56840   0.57141   0.57339   0.57494
 Alpha virt. eigenvalues --    0.57780   0.57941   0.58498   0.58723   0.58851
 Alpha virt. eigenvalues --    0.59517   0.59659   0.60394   0.60484   0.60663
 Alpha virt. eigenvalues --    0.60922   0.61220   0.61346   0.61759   0.62184
 Alpha virt. eigenvalues --    0.62343   0.63072   0.63494   0.63610   0.63967
 Alpha virt. eigenvalues --    0.64296   0.64388   0.64665   0.65044   0.65279
 Alpha virt. eigenvalues --    0.65464   0.65709   0.66064   0.66250   0.66813
 Alpha virt. eigenvalues --    0.67235   0.67296   0.67718   0.68000   0.68411
 Alpha virt. eigenvalues --    0.68531   0.69019   0.69506   0.69829   0.69952
 Alpha virt. eigenvalues --    0.70306   0.70607   0.71151   0.71526   0.71709
 Alpha virt. eigenvalues --    0.72046   0.72266   0.72750   0.72897   0.73124
 Alpha virt. eigenvalues --    0.73519   0.73910   0.74095   0.74379   0.74585
 Alpha virt. eigenvalues --    0.74808   0.75192   0.75988   0.76430   0.76485
 Alpha virt. eigenvalues --    0.77029   0.77276   0.77553   0.77857   0.77874
 Alpha virt. eigenvalues --    0.78547   0.78915   0.79359   0.79470   0.79629
 Alpha virt. eigenvalues --    0.80101   0.80197   0.80784   0.81092   0.81800
 Alpha virt. eigenvalues --    0.81832   0.82425   0.82872   0.83468   0.83726
 Alpha virt. eigenvalues --    0.84005   0.84307   0.84915   0.85298   0.85708
 Alpha virt. eigenvalues --    0.86053   0.86468   0.86678   0.86965   0.88016
 Alpha virt. eigenvalues --    0.88368   0.88663   0.88710   0.89428   0.89810
 Alpha virt. eigenvalues --    0.89990   0.90291   0.90540   0.90816   0.91257
 Alpha virt. eigenvalues --    0.91792   0.91956   0.92284   0.92479   0.93360
 Alpha virt. eigenvalues --    0.93616   0.94311   0.94489   0.94593   0.94930
 Alpha virt. eigenvalues --    0.95245   0.95833   0.96108   0.96519   0.97059
 Alpha virt. eigenvalues --    0.97199   0.97355   0.98056   0.98291   0.98458
 Alpha virt. eigenvalues --    0.99040   0.99334   0.99399   0.99504   1.00296
 Alpha virt. eigenvalues --    1.00481   1.01019   1.01393   1.01783   1.02072
 Alpha virt. eigenvalues --    1.02141   1.02325   1.02747   1.02907   1.03172
 Alpha virt. eigenvalues --    1.03510   1.03641   1.04011   1.04132   1.04580
 Alpha virt. eigenvalues --    1.04956   1.05297   1.05566   1.05921   1.06060
 Alpha virt. eigenvalues --    1.07122   1.07428   1.07919   1.08182   1.08605
 Alpha virt. eigenvalues --    1.08740   1.09563   1.09781   1.10213   1.10463
 Alpha virt. eigenvalues --    1.11098   1.11242   1.11878   1.12333   1.12663
 Alpha virt. eigenvalues --    1.13198   1.13540   1.14172   1.14353   1.14808
 Alpha virt. eigenvalues --    1.15059   1.15760   1.16636   1.17023   1.17170
 Alpha virt. eigenvalues --    1.17669   1.18119   1.18300   1.19014   1.19287
 Alpha virt. eigenvalues --    1.19630   1.19791   1.19905   1.20370   1.20659
 Alpha virt. eigenvalues --    1.20961   1.21507   1.21729   1.22188   1.22746
 Alpha virt. eigenvalues --    1.23463   1.23721   1.23851   1.24101   1.25057
 Alpha virt. eigenvalues --    1.25310   1.26062   1.26359   1.26720   1.27259
 Alpha virt. eigenvalues --    1.27653   1.27668   1.28077   1.28452   1.28625
 Alpha virt. eigenvalues --    1.29274   1.30161   1.30504   1.30545   1.31145
 Alpha virt. eigenvalues --    1.31464   1.31494   1.32159   1.32563   1.32826
 Alpha virt. eigenvalues --    1.33180   1.33516   1.34527   1.34872   1.35000
 Alpha virt. eigenvalues --    1.36483   1.36756   1.37376   1.37997   1.38251
 Alpha virt. eigenvalues --    1.38612   1.39379   1.39941   1.40200   1.40455
 Alpha virt. eigenvalues --    1.41420   1.41799   1.42332   1.43194   1.43654
 Alpha virt. eigenvalues --    1.43786   1.44534   1.45343   1.45841   1.46096
 Alpha virt. eigenvalues --    1.46567   1.47008   1.47268   1.47550   1.47912
 Alpha virt. eigenvalues --    1.48099   1.48372   1.48827   1.49482   1.49528
 Alpha virt. eigenvalues --    1.49793   1.50060   1.50529   1.51141   1.51396
 Alpha virt. eigenvalues --    1.51591   1.51942   1.52062   1.52340   1.52484
 Alpha virt. eigenvalues --    1.52822   1.52935   1.53083   1.53705   1.53793
 Alpha virt. eigenvalues --    1.53899   1.54105   1.54555   1.54787   1.54888
 Alpha virt. eigenvalues --    1.55160   1.55415   1.55736   1.56149   1.56183
 Alpha virt. eigenvalues --    1.56335   1.56764   1.57555   1.57585   1.57679
 Alpha virt. eigenvalues --    1.58157   1.58606   1.58712   1.59000   1.59187
 Alpha virt. eigenvalues --    1.59425   1.59844   1.59928   1.60140   1.60678
 Alpha virt. eigenvalues --    1.61068   1.61245   1.61429   1.61948   1.62049
 Alpha virt. eigenvalues --    1.62150   1.63039   1.63303   1.63436   1.63521
 Alpha virt. eigenvalues --    1.63871   1.64616   1.64845   1.65156   1.65457
 Alpha virt. eigenvalues --    1.65762   1.66277   1.66378   1.66970   1.67483
 Alpha virt. eigenvalues --    1.67696   1.67790   1.67932   1.68614   1.69285
 Alpha virt. eigenvalues --    1.69508   1.69698   1.70035   1.70237   1.70761
 Alpha virt. eigenvalues --    1.70928   1.71423   1.71694   1.72432   1.72579
 Alpha virt. eigenvalues --    1.72935   1.73473   1.73820   1.74324   1.74801
 Alpha virt. eigenvalues --    1.75278   1.75693   1.76069   1.77176   1.77284
 Alpha virt. eigenvalues --    1.78129   1.78878   1.79385   1.79751   1.80082
 Alpha virt. eigenvalues --    1.80478   1.81244   1.81925   1.82337   1.82896
 Alpha virt. eigenvalues --    1.83499   1.83951   1.84471   1.84774   1.84950
 Alpha virt. eigenvalues --    1.85465   1.85812   1.86070   1.86643   1.86960
 Alpha virt. eigenvalues --    1.87091   1.87768   1.88407   1.88489   1.88656
 Alpha virt. eigenvalues --    1.89063   1.90021   1.90321   1.90674   1.90949
 Alpha virt. eigenvalues --    1.91383   1.91762   1.92487   1.93093   1.93569
 Alpha virt. eigenvalues --    1.94545   1.94965   1.95149   1.95620   1.96383
 Alpha virt. eigenvalues --    1.96530   1.97250   1.97581   1.98228   1.98665
 Alpha virt. eigenvalues --    1.99081   1.99245   1.99545   2.00002   2.00162
 Alpha virt. eigenvalues --    2.00657   2.01118   2.01175   2.01976   2.02309
 Alpha virt. eigenvalues --    2.02949   2.03989   2.04552   2.04613   2.05472
 Alpha virt. eigenvalues --    2.05615   2.06294   2.07005   2.07581   2.07974
 Alpha virt. eigenvalues --    2.08447   2.09111   2.09555   2.09733   2.10184
 Alpha virt. eigenvalues --    2.10881   2.11605   2.11790   2.12270   2.12684
 Alpha virt. eigenvalues --    2.12906   2.13192   2.13582   2.14115   2.14631
 Alpha virt. eigenvalues --    2.15006   2.15334   2.15825   2.16001   2.16820
 Alpha virt. eigenvalues --    2.17078   2.18064   2.18425   2.18651   2.19273
 Alpha virt. eigenvalues --    2.19573   2.20304   2.20465   2.20682   2.21042
 Alpha virt. eigenvalues --    2.21251   2.21619   2.22222   2.22977   2.23675
 Alpha virt. eigenvalues --    2.24287   2.24391   2.25047   2.25684   2.26464
 Alpha virt. eigenvalues --    2.26561   2.26807   2.27435   2.27630   2.27883
 Alpha virt. eigenvalues --    2.28532   2.28854   2.29329   2.29953   2.30305
 Alpha virt. eigenvalues --    2.30653   2.31183   2.31461   2.32279   2.32528
 Alpha virt. eigenvalues --    2.32956   2.33574   2.34061   2.34859   2.35181
 Alpha virt. eigenvalues --    2.35712   2.36040   2.36598   2.36855   2.37119
 Alpha virt. eigenvalues --    2.37272   2.37522   2.37654   2.37937   2.38256
 Alpha virt. eigenvalues --    2.38731   2.39003   2.39414   2.39962   2.40055
 Alpha virt. eigenvalues --    2.41163   2.41875   2.42230   2.42425   2.42847
 Alpha virt. eigenvalues --    2.43173   2.43802   2.44304   2.44787   2.45180
 Alpha virt. eigenvalues --    2.45413   2.46079   2.46568   2.47069   2.47202
 Alpha virt. eigenvalues --    2.47649   2.47951   2.48809   2.49314   2.49642
 Alpha virt. eigenvalues --    2.50123   2.50955   2.51491   2.51657   2.52232
 Alpha virt. eigenvalues --    2.52560   2.52893   2.53347   2.53443   2.53641
 Alpha virt. eigenvalues --    2.54774   2.55086   2.55261   2.55665   2.56150
 Alpha virt. eigenvalues --    2.56332   2.56446   2.56989   2.57331   2.57666
 Alpha virt. eigenvalues --    2.57933   2.58058   2.59063   2.59287   2.59706
 Alpha virt. eigenvalues --    2.60069   2.60603   2.60799   2.61034   2.61432
 Alpha virt. eigenvalues --    2.61629   2.62497   2.62869   2.63051   2.63659
 Alpha virt. eigenvalues --    2.64288   2.64798   2.65149   2.65713   2.66039
 Alpha virt. eigenvalues --    2.66289   2.66775   2.66933   2.67396   2.67658
 Alpha virt. eigenvalues --    2.67916   2.68452   2.68779   2.69388   2.69797
 Alpha virt. eigenvalues --    2.69937   2.70387   2.70644   2.71191   2.71404
 Alpha virt. eigenvalues --    2.71984   2.72344   2.72814   2.73023   2.73319
 Alpha virt. eigenvalues --    2.74399   2.75226   2.75624   2.75663   2.76455
 Alpha virt. eigenvalues --    2.76683   2.77041   2.77169   2.77423   2.78095
 Alpha virt. eigenvalues --    2.78907   2.79237   2.79672   2.79702   2.80069
 Alpha virt. eigenvalues --    2.80499   2.81182   2.82251   2.82360   2.82474
 Alpha virt. eigenvalues --    2.82845   2.83490   2.83920   2.84631   2.85286
 Alpha virt. eigenvalues --    2.85563   2.85737   2.85788   2.86077   2.86794
 Alpha virt. eigenvalues --    2.87343   2.87549   2.88222   2.88494   2.88832
 Alpha virt. eigenvalues --    2.89285   2.89601   2.89677   2.89953   2.90743
 Alpha virt. eigenvalues --    2.90982   2.91215   2.91769   2.92117   2.92401
 Alpha virt. eigenvalues --    2.92958   2.93490   2.93621   2.94069   2.94571
 Alpha virt. eigenvalues --    2.94834   2.94893   2.95401   2.95504   2.95667
 Alpha virt. eigenvalues --    2.96273   2.96439   2.96810   2.97196   2.97384
 Alpha virt. eigenvalues --    2.97934   2.98055   2.98564   2.98643   2.99531
 Alpha virt. eigenvalues --    3.00134   3.00546   3.00761   3.00891   3.01356
 Alpha virt. eigenvalues --    3.02038   3.02165   3.02838   3.03458   3.03794
 Alpha virt. eigenvalues --    3.04140   3.04451   3.04747   3.05665   3.06044
 Alpha virt. eigenvalues --    3.06413   3.06481   3.07032   3.07610   3.07876
 Alpha virt. eigenvalues --    3.08058   3.08350   3.08647   3.09315   3.09370
 Alpha virt. eigenvalues --    3.09559   3.09837   3.10345   3.10765   3.10938
 Alpha virt. eigenvalues --    3.11487   3.11926   3.12148   3.12386   3.12511
 Alpha virt. eigenvalues --    3.13378   3.13695   3.13936   3.14026   3.14181
 Alpha virt. eigenvalues --    3.14729   3.15079   3.15398   3.15752   3.15916
 Alpha virt. eigenvalues --    3.16181   3.16451   3.16832   3.17240   3.17828
 Alpha virt. eigenvalues --    3.18020   3.18627   3.18733   3.19014   3.19213
 Alpha virt. eigenvalues --    3.19454   3.19962   3.20279   3.20491   3.21240
 Alpha virt. eigenvalues --    3.21417   3.21571   3.22174   3.22377   3.22861
 Alpha virt. eigenvalues --    3.23268   3.23551   3.23658   3.23896   3.24271
 Alpha virt. eigenvalues --    3.24541   3.24751   3.25236   3.25441   3.25545
 Alpha virt. eigenvalues --    3.25832   3.26020   3.26373   3.26750   3.27051
 Alpha virt. eigenvalues --    3.27233   3.27638   3.27886   3.28373   3.28477
 Alpha virt. eigenvalues --    3.28675   3.29164   3.29387   3.29887   3.30116
 Alpha virt. eigenvalues --    3.30347   3.30601   3.30802   3.30965   3.31214
 Alpha virt. eigenvalues --    3.31365   3.31902   3.32156   3.32445   3.32825
 Alpha virt. eigenvalues --    3.33155   3.33273   3.33991   3.34379   3.34631
 Alpha virt. eigenvalues --    3.34743   3.35070   3.35334   3.35556   3.35727
 Alpha virt. eigenvalues --    3.35941   3.36259   3.36865   3.36925   3.37279
 Alpha virt. eigenvalues --    3.37501   3.37935   3.38100   3.38315   3.38580
 Alpha virt. eigenvalues --    3.38634   3.39254   3.39348   3.39667   3.40001
 Alpha virt. eigenvalues --    3.40340   3.40874   3.41110   3.41631   3.41867
 Alpha virt. eigenvalues --    3.42392   3.42754   3.43125   3.43360   3.43538
 Alpha virt. eigenvalues --    3.44530   3.44555   3.44792   3.45597   3.45850
 Alpha virt. eigenvalues --    3.46338   3.46386   3.46795   3.46936   3.47280
 Alpha virt. eigenvalues --    3.48388   3.48951   3.49101   3.49240   3.49785
 Alpha virt. eigenvalues --    3.50220   3.50628   3.51438   3.52003   3.52381
 Alpha virt. eigenvalues --    3.52942   3.53478   3.53538   3.54068   3.54231
 Alpha virt. eigenvalues --    3.55226   3.55246   3.55543   3.55927   3.56643
 Alpha virt. eigenvalues --    3.56916   3.57822   3.58084   3.58483   3.58803
 Alpha virt. eigenvalues --    3.58939   3.59864   3.60386   3.60675   3.61164
 Alpha virt. eigenvalues --    3.61715   3.62537   3.62733   3.63289   3.64403
 Alpha virt. eigenvalues --    3.64458   3.65126   3.65418   3.66327   3.66382
 Alpha virt. eigenvalues --    3.67028   3.67401   3.68087   3.68194   3.68967
 Alpha virt. eigenvalues --    3.69030   3.69918   3.69964   3.70522   3.70865
 Alpha virt. eigenvalues --    3.71042   3.71614   3.71901   3.72277   3.72640
 Alpha virt. eigenvalues --    3.73069   3.73503   3.73845   3.73991   3.74456
 Alpha virt. eigenvalues --    3.75084   3.75552   3.75820   3.76126   3.76321
 Alpha virt. eigenvalues --    3.76994   3.77747   3.78485   3.78990   3.79065
 Alpha virt. eigenvalues --    3.79735   3.80676   3.80953   3.81370   3.82527
 Alpha virt. eigenvalues --    3.82865   3.83157   3.83759   3.84499   3.85224
 Alpha virt. eigenvalues --    3.85399   3.85858   3.86406   3.87089   3.87862
 Alpha virt. eigenvalues --    3.88653   3.89020   3.89991   3.90510   3.90754
 Alpha virt. eigenvalues --    3.91041   3.91452   3.91743   3.91991   3.92377
 Alpha virt. eigenvalues --    3.93701   3.94301   3.94413   3.95083   3.96397
 Alpha virt. eigenvalues --    3.96734   3.97545   3.98420   3.99068   3.99205
 Alpha virt. eigenvalues --    3.99922   4.00141   4.00479   4.01531   4.01863
 Alpha virt. eigenvalues --    4.02155   4.03210   4.04127   4.04381   4.04649
 Alpha virt. eigenvalues --    4.05245   4.05880   4.06323   4.07424   4.07608
 Alpha virt. eigenvalues --    4.08406   4.09691   4.09879   4.10557   4.10722
 Alpha virt. eigenvalues --    4.10895   4.11590   4.12411   4.12978   4.13724
 Alpha virt. eigenvalues --    4.13920   4.15184   4.15817   4.16174   4.16371
 Alpha virt. eigenvalues --    4.17105   4.17313   4.18186   4.18605   4.18828
 Alpha virt. eigenvalues --    4.19903   4.20359   4.21112   4.21706   4.22075
 Alpha virt. eigenvalues --    4.23040   4.23426   4.24304   4.24783   4.25217
 Alpha virt. eigenvalues --    4.25370   4.25739   4.26181   4.27093   4.27148
 Alpha virt. eigenvalues --    4.27702   4.28653   4.29688   4.30349   4.30874
 Alpha virt. eigenvalues --    4.31263   4.32433   4.33090   4.33274   4.33796
 Alpha virt. eigenvalues --    4.34113   4.34451   4.34949   4.35468   4.37041
 Alpha virt. eigenvalues --    4.37613   4.37953   4.39028   4.40015   4.40392
 Alpha virt. eigenvalues --    4.41022   4.41101   4.41449   4.41954   4.42669
 Alpha virt. eigenvalues --    4.43553   4.43738   4.43790   4.44526   4.44869
 Alpha virt. eigenvalues --    4.45388   4.45980   4.46350   4.46740   4.47677
 Alpha virt. eigenvalues --    4.48121   4.48811   4.49426   4.49670   4.51287
 Alpha virt. eigenvalues --    4.51909   4.52340   4.53672   4.54874   4.55051
 Alpha virt. eigenvalues --    4.55999   4.57224   4.57368   4.57945   4.59293
 Alpha virt. eigenvalues --    4.59570   4.62244   4.63334   4.63749   4.65276
 Alpha virt. eigenvalues --    4.65477   4.67399   4.67704   4.68898   4.69114
 Alpha virt. eigenvalues --    4.69137   4.70591   4.71344   4.71753   4.72331
 Alpha virt. eigenvalues --    4.73400   4.74398   4.74756   4.75420   4.75541
 Alpha virt. eigenvalues --    4.76505   4.77561   4.79227   4.80260   4.81364
 Alpha virt. eigenvalues --    4.82401   4.82789   4.83590   4.84142   4.84574
 Alpha virt. eigenvalues --    4.85775   4.85915   4.86334   4.86612   4.87844
 Alpha virt. eigenvalues --    4.89357   4.89985   4.91190   4.91516   4.91792
 Alpha virt. eigenvalues --    4.93643   4.94245   4.95131   4.95418   4.96639
 Alpha virt. eigenvalues --    4.97013   4.97663   4.99001   4.99361   4.99649
 Alpha virt. eigenvalues --    5.00757   5.01907   5.02038   5.03130   5.04020
 Alpha virt. eigenvalues --    5.04987   5.06071   5.07097   5.08143   5.08833
 Alpha virt. eigenvalues --    5.09428   5.09893   5.10295   5.11116   5.11478
 Alpha virt. eigenvalues --    5.13830   5.13937   5.16673   5.17616   5.18944
 Alpha virt. eigenvalues --    5.19485   5.20804   5.21206   5.22550   5.22735
 Alpha virt. eigenvalues --    5.23590   5.24400   5.25355   5.26583   5.27230
 Alpha virt. eigenvalues --    5.29588   5.30571   5.31404   5.33478   5.35290
 Alpha virt. eigenvalues --    5.36375   5.37223   5.37734   5.38013   5.39880
 Alpha virt. eigenvalues --    5.40375   5.41226   5.41631   5.42360   5.43274
 Alpha virt. eigenvalues --    5.43698   5.44661   5.47264   5.49055   5.49686
 Alpha virt. eigenvalues --    5.50494   5.51663   5.52463   5.52897   5.53899
 Alpha virt. eigenvalues --    5.55765   5.57624   5.59592   5.60636   5.61368
 Alpha virt. eigenvalues --    5.61789   5.62149   5.64925   5.65458   5.66693
 Alpha virt. eigenvalues --    5.67087   5.67348   5.68749   5.69483   5.73670
 Alpha virt. eigenvalues --    5.75104   5.76766   5.78379   5.80264   5.80990
 Alpha virt. eigenvalues --    5.87551   5.91842   5.92886   5.94389   5.97722
 Alpha virt. eigenvalues --    6.00755   6.01815   6.02406   6.08485   6.10819
 Alpha virt. eigenvalues --    6.12207   6.13354   6.14835   6.17255   6.18111
 Alpha virt. eigenvalues --    6.24405   6.25557   6.32235   6.34033   6.39283
 Alpha virt. eigenvalues --    6.49761   6.52961   6.54277   6.67406   6.97877
 Alpha virt. eigenvalues --    7.29285  22.36004  22.36960  22.43880  22.46232
 Alpha virt. eigenvalues --   22.47170  22.52799  22.53227  22.63013  22.63409
 Alpha virt. eigenvalues --   22.77540  22.83587  22.88435  22.89638  22.92106
 Alpha virt. eigenvalues --   22.94235  22.95544  22.96948  23.01871  23.03866
 Alpha virt. eigenvalues --   23.07819  23.12605  23.26371  23.28615  23.28691
 Alpha virt. eigenvalues --   23.30810  23.40642  23.41863  23.51180  23.51847
 Alpha virt. eigenvalues --   23.56787  23.71591  23.73835  23.80542  23.86233
 Alpha virt. eigenvalues --   32.40782  32.74767  32.89031  32.97052  33.02027
 Alpha virt. eigenvalues --   33.11715  44.06735
  Beta  occ. eigenvalues -- -256.18353 -29.99375 -25.84445 -25.83753 -25.83504
  Beta  occ. eigenvalues --  -19.16037 -14.41979 -14.35213 -14.32256 -14.32026
  Beta  occ. eigenvalues --  -14.31772 -14.31620 -10.25778 -10.23858 -10.21186
  Beta  occ. eigenvalues --  -10.21076 -10.21026 -10.20916 -10.20762 -10.20709
  Beta  occ. eigenvalues --  -10.20631 -10.20442 -10.20337 -10.20244 -10.19506
  Beta  occ. eigenvalues --  -10.19371 -10.18838 -10.18797 -10.18605 -10.18560
  Beta  occ. eigenvalues --  -10.18506 -10.18490 -10.18476 -10.18441 -10.18389
  Beta  occ. eigenvalues --  -10.18355 -10.18301 -10.18271 -10.18240 -10.18179
  Beta  occ. eigenvalues --  -10.18153 -10.18113 -10.18094 -10.18035 -10.17949
  Beta  occ. eigenvalues --  -10.17911  -3.33445  -2.09031  -2.08961  -2.08647
  Beta  occ. eigenvalues --   -1.05377  -1.04177  -0.96607  -0.95672  -0.95501
  Beta  occ. eigenvalues --   -0.94535  -0.90910  -0.82078  -0.81704  -0.81378
  Beta  occ. eigenvalues --   -0.80514  -0.80337  -0.80109  -0.79383  -0.79268
  Beta  occ. eigenvalues --   -0.76559  -0.75566  -0.74095  -0.73675  -0.72976
  Beta  occ. eigenvalues --   -0.71917  -0.70792  -0.69936  -0.68020  -0.67665
  Beta  occ. eigenvalues --   -0.67625  -0.64709  -0.63917  -0.63823  -0.61474
  Beta  occ. eigenvalues --   -0.60524  -0.59982  -0.59685  -0.57594  -0.56309
  Beta  occ. eigenvalues --   -0.56046  -0.54187  -0.53390  -0.53180  -0.52433
  Beta  occ. eigenvalues --   -0.50861  -0.50776  -0.50295  -0.48493  -0.47964
  Beta  occ. eigenvalues --   -0.47653  -0.47519  -0.47039  -0.44853  -0.44695
  Beta  occ. eigenvalues --   -0.44450  -0.44274  -0.43830  -0.43659  -0.43384
  Beta  occ. eigenvalues --   -0.43232  -0.43161  -0.42863  -0.42703  -0.42606
  Beta  occ. eigenvalues --   -0.42476  -0.42193  -0.41795  -0.41501  -0.41330
  Beta  occ. eigenvalues --   -0.41213  -0.40815  -0.40065  -0.39953  -0.39659
  Beta  occ. eigenvalues --   -0.39340  -0.39232  -0.39073  -0.38793  -0.38381
  Beta  occ. eigenvalues --   -0.38026  -0.37539  -0.37226  -0.36792  -0.36705
  Beta  occ. eigenvalues --   -0.36024  -0.35649  -0.35480  -0.35007  -0.34126
  Beta  occ. eigenvalues --   -0.34099  -0.33610  -0.33197  -0.33039  -0.32046
  Beta  occ. eigenvalues --   -0.31552  -0.30522  -0.30224  -0.29242  -0.29032
  Beta  occ. eigenvalues --   -0.28597  -0.26675  -0.26376  -0.24257  -0.23302
  Beta  occ. eigenvalues --   -0.22457  -0.22282  -0.21750  -0.18245  -0.17898
  Beta  occ. eigenvalues --   -0.13695
  Beta virt. eigenvalues --   -0.07146  -0.05847  -0.01864  -0.00877   0.00179
  Beta virt. eigenvalues --    0.00897   0.02091   0.02393   0.02584   0.03393
  Beta virt. eigenvalues --    0.04439   0.05075   0.05382   0.05821   0.05941
  Beta virt. eigenvalues --    0.06060   0.06385   0.07185   0.07850   0.08084
  Beta virt. eigenvalues --    0.08336   0.08525   0.08921   0.08952   0.09596
  Beta virt. eigenvalues --    0.09747   0.09800   0.10155   0.10425   0.10695
  Beta virt. eigenvalues --    0.10925   0.11514   0.11544   0.11687   0.11853
  Beta virt. eigenvalues --    0.12208   0.12405   0.12635   0.12768   0.13282
  Beta virt. eigenvalues --    0.13490   0.13696   0.13782   0.14268   0.14376
  Beta virt. eigenvalues --    0.14606   0.14696   0.14951   0.15128   0.15291
  Beta virt. eigenvalues --    0.15667   0.15769   0.15937   0.16134   0.16318
  Beta virt. eigenvalues --    0.16417   0.16748   0.17052   0.17351   0.17459
  Beta virt. eigenvalues --    0.17806   0.18179   0.18315   0.18807   0.19291
  Beta virt. eigenvalues --    0.19742   0.19851   0.20099   0.20303   0.20493
  Beta virt. eigenvalues --    0.20507   0.21028   0.21255   0.21497   0.21739
  Beta virt. eigenvalues --    0.22116   0.22580   0.22627   0.22842   0.23165
  Beta virt. eigenvalues --    0.23336   0.23720   0.24282   0.24507   0.24890
  Beta virt. eigenvalues --    0.25409   0.25538   0.25912   0.26064   0.26278
  Beta virt. eigenvalues --    0.26593   0.26921   0.27133   0.27575   0.27826
  Beta virt. eigenvalues --    0.27836   0.28109   0.28284   0.28954   0.29091
  Beta virt. eigenvalues --    0.29305   0.29638   0.29859   0.30076   0.30340
  Beta virt. eigenvalues --    0.30412   0.30830   0.30992   0.31265   0.31404
  Beta virt. eigenvalues --    0.31975   0.32208   0.32295   0.32863   0.33067
  Beta virt. eigenvalues --    0.33181   0.33656   0.33774   0.33960   0.34289
  Beta virt. eigenvalues --    0.34510   0.35003   0.35291   0.35672   0.35952
  Beta virt. eigenvalues --    0.36262   0.36389   0.36489   0.36735   0.36983
  Beta virt. eigenvalues --    0.37304   0.37606   0.37726   0.38121   0.38498
  Beta virt. eigenvalues --    0.38611   0.38877   0.39162   0.39580   0.39658
  Beta virt. eigenvalues --    0.39952   0.40222   0.40444   0.40544   0.40874
  Beta virt. eigenvalues --    0.40947   0.41291   0.41320   0.41546   0.41846
  Beta virt. eigenvalues --    0.42070   0.42154   0.42353   0.42673   0.42934
  Beta virt. eigenvalues --    0.43013   0.43369   0.43483   0.43547   0.44094
  Beta virt. eigenvalues --    0.44185   0.44521   0.44635   0.44797   0.44897
  Beta virt. eigenvalues --    0.45114   0.45266   0.45684   0.45865   0.46030
  Beta virt. eigenvalues --    0.46198   0.46707   0.46916   0.47059   0.47368
  Beta virt. eigenvalues --    0.47456   0.47653   0.48126   0.48168   0.48323
  Beta virt. eigenvalues --    0.48421   0.48799   0.48869   0.49234   0.49424
  Beta virt. eigenvalues --    0.49706   0.49751   0.50107   0.50263   0.50492
  Beta virt. eigenvalues --    0.50760   0.51277   0.51363   0.51659   0.51732
  Beta virt. eigenvalues --    0.51942   0.52361   0.52382   0.52487   0.52757
  Beta virt. eigenvalues --    0.53076   0.53215   0.53403   0.53598   0.54075
  Beta virt. eigenvalues --    0.54399   0.54482   0.54803   0.55081   0.55389
  Beta virt. eigenvalues --    0.55560   0.56024   0.56176   0.56327   0.56687
  Beta virt. eigenvalues --    0.56906   0.57207   0.57386   0.57635   0.57851
  Beta virt. eigenvalues --    0.58042   0.58578   0.58772   0.58998   0.59599
  Beta virt. eigenvalues --    0.59836   0.60445   0.60583   0.60794   0.60997
  Beta virt. eigenvalues --    0.61341   0.61464   0.61855   0.62223   0.62534
  Beta virt. eigenvalues --    0.63153   0.63610   0.63733   0.64033   0.64350
  Beta virt. eigenvalues --    0.64474   0.64776   0.65164   0.65323   0.65552
  Beta virt. eigenvalues --    0.65895   0.66187   0.66332   0.66852   0.67323
  Beta virt. eigenvalues --    0.67410   0.67921   0.68110   0.68616   0.68670
  Beta virt. eigenvalues --    0.69131   0.69658   0.69917   0.69988   0.70372
  Beta virt. eigenvalues --    0.70707   0.71243   0.71647   0.71854   0.72111
  Beta virt. eigenvalues --    0.72379   0.72832   0.73011   0.73397   0.73674
  Beta virt. eigenvalues --    0.73961   0.74244   0.74495   0.74677   0.74919
  Beta virt. eigenvalues --    0.75287   0.76183   0.76467   0.76630   0.77156
  Beta virt. eigenvalues --    0.77443   0.77596   0.77952   0.78013   0.78601
  Beta virt. eigenvalues --    0.78963   0.79417   0.79544   0.79712   0.80226
  Beta virt. eigenvalues --    0.80329   0.80918   0.81252   0.81891   0.81940
  Beta virt. eigenvalues --    0.82484   0.82911   0.83506   0.83816   0.84082
  Beta virt. eigenvalues --    0.84446   0.84962   0.85383   0.85731   0.86146
  Beta virt. eigenvalues --    0.86516   0.86736   0.87045   0.88112   0.88517
  Beta virt. eigenvalues --    0.88742   0.88934   0.89485   0.89916   0.90088
  Beta virt. eigenvalues --    0.90398   0.90693   0.90840   0.91344   0.91897
  Beta virt. eigenvalues --    0.92055   0.92425   0.92611   0.93523   0.93695
  Beta virt. eigenvalues --    0.94391   0.94533   0.94779   0.94962   0.95328
  Beta virt. eigenvalues --    0.95884   0.96430   0.96564   0.97141   0.97282
  Beta virt. eigenvalues --    0.97429   0.98145   0.98359   0.98492   0.99106
  Beta virt. eigenvalues --    0.99398   0.99498   0.99586   1.00421   1.00534
  Beta virt. eigenvalues --    1.01146   1.01523   1.01924   1.02163   1.02193
  Beta virt. eigenvalues --    1.02386   1.02858   1.03088   1.03263   1.03701
  Beta virt. eigenvalues --    1.03728   1.04062   1.04289   1.04804   1.05085
  Beta virt. eigenvalues --    1.05377   1.05739   1.06006   1.06246   1.07334
  Beta virt. eigenvalues --    1.07553   1.08298   1.08401   1.08694   1.08902
  Beta virt. eigenvalues --    1.09696   1.10016   1.10389   1.11005   1.11322
  Beta virt. eigenvalues --    1.11498   1.12132   1.12537   1.12832   1.13403
  Beta virt. eigenvalues --    1.13720   1.14429   1.14455   1.14965   1.15447
  Beta virt. eigenvalues --    1.15945   1.16772   1.17107   1.17306   1.17768
  Beta virt. eigenvalues --    1.18272   1.18418   1.19137   1.19411   1.19721
  Beta virt. eigenvalues --    1.19913   1.19993   1.20613   1.20970   1.21168
  Beta virt. eigenvalues --    1.21830   1.21928   1.22335   1.22874   1.23501
  Beta virt. eigenvalues --    1.24084   1.24304   1.24711   1.25305   1.25517
  Beta virt. eigenvalues --    1.26229   1.26546   1.26886   1.27321   1.27788
  Beta virt. eigenvalues --    1.27832   1.28314   1.28638   1.28676   1.29407
  Beta virt. eigenvalues --    1.30330   1.30635   1.30948   1.31294   1.31646
  Beta virt. eigenvalues --    1.32021   1.32311   1.32658   1.32917   1.33571
  Beta virt. eigenvalues --    1.33625   1.34817   1.34974   1.35235   1.36688
  Beta virt. eigenvalues --    1.36996   1.37512   1.38104   1.38361   1.38855
  Beta virt. eigenvalues --    1.39584   1.40111   1.40479   1.40585   1.41577
  Beta virt. eigenvalues --    1.41938   1.42510   1.43302   1.43771   1.44063
  Beta virt. eigenvalues --    1.44659   1.45516   1.46012   1.46313   1.46957
  Beta virt. eigenvalues --    1.47047   1.47401   1.47936   1.48032   1.48339
  Beta virt. eigenvalues --    1.48499   1.49095   1.49570   1.49606   1.49920
  Beta virt. eigenvalues --    1.50154   1.50574   1.51278   1.51425   1.51692
  Beta virt. eigenvalues --    1.52101   1.52224   1.52450   1.52549   1.52897
  Beta virt. eigenvalues --    1.53269   1.53345   1.53874   1.53913   1.53942
  Beta virt. eigenvalues --    1.54200   1.54674   1.54935   1.55067   1.55184
  Beta virt. eigenvalues --    1.55510   1.55848   1.56204   1.56335   1.56420
  Beta virt. eigenvalues --    1.56868   1.57593   1.57728   1.57833   1.58306
  Beta virt. eigenvalues --    1.58655   1.58809   1.59092   1.59221   1.59453
  Beta virt. eigenvalues --    1.59878   1.60060   1.60170   1.60717   1.61131
  Beta virt. eigenvalues --    1.61399   1.61464   1.61993   1.62089   1.62304
  Beta virt. eigenvalues --    1.63096   1.63341   1.63497   1.63577   1.63912
  Beta virt. eigenvalues --    1.64655   1.64873   1.65211   1.65465   1.65799
  Beta virt. eigenvalues --    1.66329   1.66459   1.66975   1.67552   1.67763
  Beta virt. eigenvalues --    1.67843   1.67990   1.68660   1.69342   1.69566
  Beta virt. eigenvalues --    1.69787   1.70077   1.70285   1.70903   1.70971
  Beta virt. eigenvalues --    1.71443   1.71756   1.72500   1.72653   1.72971
  Beta virt. eigenvalues --    1.73613   1.73885   1.74438   1.74845   1.75423
  Beta virt. eigenvalues --    1.75773   1.76214   1.77244   1.77414   1.78395
  Beta virt. eigenvalues --    1.78961   1.79416   1.79816   1.80234   1.80519
  Beta virt. eigenvalues --    1.81286   1.82075   1.82398   1.82976   1.83566
  Beta virt. eigenvalues --    1.83987   1.84492   1.84823   1.85052   1.85518
  Beta virt. eigenvalues --    1.85879   1.86292   1.86710   1.87071   1.87118
  Beta virt. eigenvalues --    1.87828   1.88447   1.88569   1.88731   1.89154
  Beta virt. eigenvalues --    1.90101   1.90424   1.90727   1.91011   1.91456
  Beta virt. eigenvalues --    1.91859   1.92572   1.93351   1.93868   1.94689
  Beta virt. eigenvalues --    1.95041   1.95249   1.95978   1.96505   1.96640
  Beta virt. eigenvalues --    1.97619   1.97735   1.98305   1.98806   1.99156
  Beta virt. eigenvalues --    1.99321   1.99637   2.00036   2.00191   2.00758
  Beta virt. eigenvalues --    2.01145   2.01305   2.02051   2.02394   2.03078
  Beta virt. eigenvalues --    2.04197   2.04712   2.04842   2.05629   2.05804
  Beta virt. eigenvalues --    2.06564   2.07082   2.07733   2.08102   2.08547
  Beta virt. eigenvalues --    2.09202   2.09682   2.09825   2.10275   2.10926
  Beta virt. eigenvalues --    2.11712   2.11858   2.12421   2.12918   2.13018
  Beta virt. eigenvalues --    2.13298   2.13683   2.14338   2.14745   2.15194
  Beta virt. eigenvalues --    2.15505   2.16074   2.16272   2.16878   2.17308
  Beta virt. eigenvalues --    2.18155   2.18610   2.18752   2.19501   2.19747
  Beta virt. eigenvalues --    2.20391   2.20517   2.21123   2.21268   2.21381
  Beta virt. eigenvalues --    2.21833   2.22411   2.23102   2.23821   2.24393
  Beta virt. eigenvalues --    2.24472   2.25273   2.25725   2.26571   2.26640
  Beta virt. eigenvalues --    2.26915   2.27491   2.27700   2.27929   2.28575
  Beta virt. eigenvalues --    2.28921   2.29421   2.30040   2.30427   2.30776
  Beta virt. eigenvalues --    2.31343   2.31605   2.32406   2.32888   2.33032
  Beta virt. eigenvalues --    2.33637   2.34161   2.34948   2.35313   2.35734
  Beta virt. eigenvalues --    2.36112   2.36687   2.36929   2.37321   2.37354
  Beta virt. eigenvalues --    2.37624   2.37696   2.38036   2.38374   2.38794
  Beta virt. eigenvalues --    2.39150   2.39538   2.40014   2.40199   2.41268
  Beta virt. eigenvalues --    2.42050   2.42376   2.42593   2.43019   2.43287
  Beta virt. eigenvalues --    2.43841   2.44514   2.44852   2.45270   2.45753
  Beta virt. eigenvalues --    2.46222   2.46704   2.47115   2.47320   2.47852
  Beta virt. eigenvalues --    2.48213   2.48979   2.49459   2.49954   2.50367
  Beta virt. eigenvalues --    2.51087   2.51711   2.51943   2.52271   2.52700
  Beta virt. eigenvalues --    2.53025   2.53465   2.53541   2.53779   2.55012
  Beta virt. eigenvalues --    2.55293   2.55381   2.55883   2.56216   2.56454
  Beta virt. eigenvalues --    2.56576   2.57174   2.57488   2.57720   2.58128
  Beta virt. eigenvalues --    2.58191   2.59301   2.59564   2.59737   2.60149
  Beta virt. eigenvalues --    2.60717   2.61024   2.61133   2.61568   2.61719
  Beta virt. eigenvalues --    2.62606   2.62952   2.63164   2.63965   2.64327
  Beta virt. eigenvalues --    2.64863   2.65339   2.65878   2.66250   2.66426
  Beta virt. eigenvalues --    2.66874   2.67104   2.67560   2.67747   2.68023
  Beta virt. eigenvalues --    2.68508   2.68873   2.69449   2.69865   2.70048
  Beta virt. eigenvalues --    2.70527   2.70785   2.71417   2.71525   2.72055
  Beta virt. eigenvalues --    2.72437   2.72869   2.73129   2.73476   2.74601
  Beta virt. eigenvalues --    2.75306   2.75707   2.75909   2.76558   2.76831
  Beta virt. eigenvalues --    2.77206   2.77424   2.77873   2.78224   2.78967
  Beta virt. eigenvalues --    2.79336   2.79801   2.79850   2.80143   2.80568
  Beta virt. eigenvalues --    2.81556   2.82360   2.82451   2.82549   2.82906
  Beta virt. eigenvalues --    2.83661   2.83976   2.84731   2.85470   2.85617
  Beta virt. eigenvalues --    2.85782   2.85849   2.86304   2.86861   2.87576
  Beta virt. eigenvalues --    2.87696   2.88278   2.88552   2.89059   2.89384
  Beta virt. eigenvalues --    2.89744   2.89890   2.90077   2.90854   2.91082
  Beta virt. eigenvalues --    2.91366   2.91822   2.92343   2.92527   2.93137
  Beta virt. eigenvalues --    2.93623   2.93737   2.94164   2.94638   2.94921
  Beta virt. eigenvalues --    2.95258   2.95439   2.95564   2.95833   2.96365
  Beta virt. eigenvalues --    2.96794   2.97060   2.97388   2.97525   2.98023
  Beta virt. eigenvalues --    2.98261   2.98686   2.98783   2.99637   3.00361
  Beta virt. eigenvalues --    3.00654   3.00862   3.01215   3.01573   3.02169
  Beta virt. eigenvalues --    3.02256   3.02942   3.03535   3.03982   3.04411
  Beta virt. eigenvalues --    3.04630   3.04917   3.05933   3.06101   3.06574
  Beta virt. eigenvalues --    3.06832   3.07141   3.07670   3.07925   3.08091
  Beta virt. eigenvalues --    3.08381   3.08703   3.09356   3.09480   3.09620
  Beta virt. eigenvalues --    3.10047   3.10454   3.10816   3.10987   3.11558
  Beta virt. eigenvalues --    3.11994   3.12250   3.12432   3.12552   3.13460
  Beta virt. eigenvalues --    3.13774   3.13964   3.14085   3.14220   3.14785
  Beta virt. eigenvalues --    3.15163   3.15488   3.15789   3.16003   3.16257
  Beta virt. eigenvalues --    3.16520   3.16891   3.17321   3.17871   3.18031
  Beta virt. eigenvalues --    3.18635   3.18774   3.19119   3.19240   3.19530
  Beta virt. eigenvalues --    3.20002   3.20373   3.20574   3.21274   3.21408
  Beta virt. eigenvalues --    3.21682   3.22212   3.22414   3.22919   3.23313
  Beta virt. eigenvalues --    3.23640   3.23698   3.23946   3.24351   3.24596
  Beta virt. eigenvalues --    3.24817   3.25303   3.25476   3.25615   3.25883
  Beta virt. eigenvalues --    3.26098   3.26420   3.26809   3.27097   3.27299
  Beta virt. eigenvalues --    3.27712   3.27997   3.28474   3.28532   3.28741
  Beta virt. eigenvalues --    3.29190   3.29457   3.29976   3.30128   3.30377
  Beta virt. eigenvalues --    3.30639   3.30918   3.30973   3.31231   3.31410
  Beta virt. eigenvalues --    3.31972   3.32209   3.32567   3.32849   3.33227
  Beta virt. eigenvalues --    3.33352   3.34021   3.34433   3.34689   3.34799
  Beta virt. eigenvalues --    3.35136   3.35384   3.35676   3.35800   3.36077
  Beta virt. eigenvalues --    3.36320   3.36919   3.36988   3.37329   3.37525
  Beta virt. eigenvalues --    3.38035   3.38178   3.38352   3.38606   3.38708
  Beta virt. eigenvalues --    3.39377   3.39392   3.39786   3.40016   3.40410
  Beta virt. eigenvalues --    3.40936   3.41205   3.41847   3.41992   3.42474
  Beta virt. eigenvalues --    3.42763   3.43157   3.43425   3.43721   3.44594
  Beta virt. eigenvalues --    3.44754   3.44894   3.45673   3.45916   3.46432
  Beta virt. eigenvalues --    3.46495   3.46950   3.47056   3.47421   3.48496
  Beta virt. eigenvalues --    3.49022   3.49194   3.49417   3.49928   3.50348
  Beta virt. eigenvalues --    3.50727   3.51621   3.52068   3.52521   3.53035
  Beta virt. eigenvalues --    3.53612   3.53759   3.54157   3.54360   3.55312
  Beta virt. eigenvalues --    3.55346   3.55677   3.55985   3.56717   3.57192
  Beta virt. eigenvalues --    3.58115   3.58304   3.58581   3.58889   3.59140
  Beta virt. eigenvalues --    3.59994   3.60538   3.60873   3.61336   3.61856
  Beta virt. eigenvalues --    3.62785   3.62973   3.63334   3.64586   3.64627
  Beta virt. eigenvalues --    3.65270   3.65503   3.66461   3.66598   3.67161
[...]
   143. CR (   1) N  71                  0.99969   -14.22402  1326(v),1352(v),1320(v)
                                                    1353(v),1522(v)
   144. CR (   1) C  73                  0.99957   -10.09087  1527(g),1409(v),1532(v)
                                                    1254(v),1297(v)
   145. CR (   1) C  74                  0.99966   -10.12509  149(r),1381(v),1523(v)
                                                    1531(v),1377(v),150(r),2(r)
   146. CR (   1) N  76                  0.99970   -14.13371  149(r),150(r),154(r),153(r)
                                                    1350(v),1407(v),1528(v)
                                                    167(r),151(r),148(r),168(r)
   147. CR (   1) C  77                  0.99949   -10.06057  1324(v),1522(v),1527(g)
                                                    1382(v),149(r),150(r)
   163. LP (   1) N  76                  0.82761    -0.36295  149(r),150(r),154(r),153(r)
                                                    1526(v),1527(v),1350(v)
                                                    1529(g),1528(v),1407(v)
                                                    1532(v),1531(g),1384(g)
                                                    148(r),151(r),1381(g)
                                                    1418(v),170(r),221(r),273(r)
                                                    195(r),270(r),171(r),247(r)
                                                    244(r),1441(r),1448(r)
                                                    218(r),192(r),1443(r)
                                                    1445(r),1438(r),1442(r)
                                                    178(r),245(r),1446(r),193(r)
                                                    2(r),1440(r),219(r),177(r)
                                                    1439(r)
   164. LP (   1) C  77                  0.52301    -0.11365  1525(v),1530(v),1383(v)
                                                    1328(v),1408(g),1386(v),2(r)
                                                    148(r),1466(r),480(r)
  1252. RY*(   1) C  67                  0.00059     1.16363   
  1253. RY*(   2) C  67                  0.00040     2.01598   
  1254. RY*(   3) C  67                  0.00025     1.31004   
  1255. RY*(   4) C  67                  0.00006     1.28226   
  1256. RY*(   5) C  67                  0.00004     1.48169   
  1257. RY*(   6) C  67                  0.00000     1.59085   
  1258. RY*(   7) C  67                  0.00000    21.58924   
  1259. RY*(   8) C  67                  0.00000     1.77834   
  1260. RY*(   9) C  67                  0.00001     1.51555   
  1261. RY*(  10) C  67                  0.00000     2.28686   
  1262. RY*(  11) C  67                  0.00000     1.32244   
  1263. RY*(  12) C  67                  0.00000     3.12917   
  1264. RY*(  13) C  67                  0.00000     2.53633   
  1265. RY*(  14) C  67                  0.00000     2.85000   
  1266. RY*(  15) C  67                  0.00000     2.33534   
  1267. RY*(  16) C  67                  0.00001     2.86886   
  1268. RY*(  17) C  67                  0.00000     2.44081   
  1269. RY*(  18) C  67                  0.00001     2.77132   
  1270. RY*(  19) C  67                  0.00000     2.54626   
  1271. RY*(  20) C  67                  0.00000     3.53468   
  1272. RY*(  21) C  67                  0.00000     3.54008   
  1273. RY*(  22) C  67                  0.00000     3.33378   
  1274. RY*(  23) C  67                  0.00000     3.74841   
  1275. RY*(  24) C  67                  0.00000     3.36598   
  1276. RY*(  25) C  67                  0.00000     3.51920   
  1277. RY*(  26) C  67                  0.00000     3.22749   
  1278. RY*(   1) H  68                  0.00012     1.44773   
  1279. RY*(   2) H  68                  0.00006     1.71550   
  1280. RY*(   3) H  68                  0.00004     2.05438   
  1281. RY*(   4) H  68                  0.00000     2.94531   
  1282. RY*(   5) H  68                  0.00001     1.48658   
  1283. RY*(   1) H  69                  0.00036     0.99434   
  1284. RY*(   2) H  69                  0.00007     1.68657   
  1285. RY*(   3) H  69                  0.00004     1.98350   
  1286. RY*(   4) H  69                  0.00003     2.00644   
  1287. RY*(   5) H  69                  0.00000     2.88201   
  1288. RY*(   1) H  70                  0.00037     1.02069   
  1289. RY*(   2) H  70                  0.00007     1.69101   
  1290. RY*(   3) H  70                  0.00003     1.88160   
  1291. RY*(   4) H  70                  0.00004     2.07490   
  1292. RY*(   5) H  70                  0.00000     2.88590   
  1293. RY*(   1) N  71                  0.00130     0.73476   
  1294. RY*(   2) N  71                  0.00107     1.86181   
  1295. RY*(   3) N  71                  0.00046     2.14914   
  1296. RY*(   4) N  71                  0.00037     2.23636   
  1297. RY*(   5) N  71                  0.00025     1.15577   
  1298. RY*(   6) N  71                  0.00009     1.97897   
  1299. RY*(   7) N  71                  0.00006     2.44057   
  1300. RY*(   8) N  71                  0.00003     2.55898   
  1301. RY*(   9) N  71                  0.00002     3.25668   
  1302. RY*(  10) N  71                  0.00001     2.60554   
  1303. RY*(  11) N  71                  0.00002     4.13457   
  1304. RY*(  12) N  71                  0.00000     2.15921   
  1305. RY*(  13) N  71                  0.00000    30.58923   
  1306. RY*(  14) N  71                  0.00001     1.74240   
  1307. RY*(  15) N  71                  0.00001     4.32505   
  1308. RY*(  16) N  71                  0.00000     3.22019   
  1309. RY*(  17) N  71                  0.00000     4.62560   
  1310. RY*(  18) N  71                  0.00000     3.82084   
  1311. RY*(  19) N  71                  0.00000     3.76915   
  1312. RY*(  20) N  71                  0.00000     4.73881   
  1313. RY*(  21) N  71                  0.00000     4.73602   
  1314. RY*(  22) N  71                  0.00000     4.41483   
  1315. RY*(  23) N  71                  0.00000     4.42070   
  1316. RY*(  24) N  71                  0.00000     4.30088   
  1317. RY*(  25) N  71                  0.00000     4.48481   
  1318. RY*(  26) N  71                  0.00000     4.39670   
  1319. RY*(   1) H  72                  0.00029     2.17506   
  1320. RY*(   2) H  72                  0.00020     2.13163   
  1321. RY*(   3) H  72                  0.00010     1.11057   
  1322. RY*(   4) H  72                  0.00010     2.71840   
  1323. RY*(   5) H  72                  0.00000     3.09743   
  1324. RY*(   1) C  73                  0.00195     1.69408   
  1325. RY*(   2) C  73                  0.00174     1.23680   
  1326. RY*(   3) C  73                  0.00094     1.48218   
  1327. RY*(   4) C  73                  0.00082     2.16235   
  1328. RY*(   5) C  73                  0.00058     1.91850   
  1329. RY*(   6) C  73                  0.00040     1.70443   
  1330. RY*(   7) C  73                  0.00020     2.54867   
  1331. RY*(   8) C  73                  0.00009     3.04029   
  1332. RY*(   9) C  73                  0.00006     2.62220   
  1333. RY*(  10) C  73                  0.00002     2.43139   
  1334. RY*(  11) C  73                  0.00003     3.37205   
  1335. RY*(  12) C  73                  0.00000    21.52916   
  1336. RY*(  13) C  73                  0.00000     1.62288   
  1337. RY*(  14) C  73                  0.00000     1.60383   
  1338. RY*(  15) C  73                  0.00000     2.36164   
  1339. RY*(  16) C  73                  0.00000     1.97315   
  1340. RY*(  17) C  73                  0.00000     3.53681   
  1341. RY*(  18) C  73                  0.00000     1.13557   
  1342. RY*(  19) C  73                  0.00001     1.82579   
  1343. RY*(  20) C  73                  0.00000     4.12491   
  1344. RY*(  21) C  73                  0.00000     3.83035   
  1345. RY*(  22) C  73                  0.00000     3.56019   
  1346. RY*(  23) C  73                  0.00000     3.79475   
  1347. RY*(  24) C  73                  0.00000     3.39717   
  1348. RY*(  25) C  73                  0.00000     3.54743   
  1349. RY*(  26) C  73                  0.00000     3.50431   
  1350. RY*(   1) C  74                  0.00225     1.59237   
  1351. RY*(   2) C  74                  0.00190     0.70460   
  1352. RY*(   3) C  74                  0.00116     1.77754   
  1353. RY*(   4) C  74                  0.00086     1.11199   
  1354. RY*(   5) C  74                  0.00058     2.57414   
  1355. RY*(   6) C  74                  0.00045     1.93922   
  1356. RY*(   7) C  74                  0.00015     2.19329   
  1357. RY*(   8) C  74                  0.00014     2.06633   
  1358. RY*(   9) C  74                  0.00007     1.68548   
  1359. RY*(  10) C  74                  0.00008     1.19478   
  1360. RY*(  11) C  74                  0.00004     2.39219   
  1361. RY*(  12) C  74                  0.00004     2.82159   
  1362. RY*(  13) C  74                  0.00002     1.53075   
  1363. RY*(  14) C  74                  0.00002     3.01978   
  1364. RY*(  15) C  74                  0.00000     3.16487   
  1365. RY*(  16) C  74                  0.00001     1.88835   
  1366. RY*(  17) C  74                  0.00000     3.84942   
  1367. RY*(  18) C  74                  0.00000    21.35265   
  1368. RY*(  19) C  74                  0.00001     2.76914   
  1369. RY*(  20) C  74                  0.00001     3.88204   
  1370. RY*(  21) C  74                  0.00000     3.96812   
  1371. RY*(  22) C  74                  0.00000     3.54093   
  1372. RY*(  23) C  74                  0.00000     3.64256   
  1373. RY*(  24) C  74                  0.00000     3.49492   
  1374. RY*(  25) C  74                  0.00000     3.47220   
  1375. RY*(  26) C  74                  0.00000     3.37986   
  1376. RY*(   1) H  75                  0.00036     0.76070   
  1377. RY*(   2) H  75                  0.00019     2.33105   
  1378. RY*(   3) H  75                  0.00009     2.24449   
  1379. RY*(   4) H  75                  0.00002     2.60097   
  1380. RY*(   5) H  75                  0.00001     3.07854   
  1381. RY*(   1) N  76                  0.00346     1.32998   
  1382. RY*(   2) N  76                  0.00284     1.15066   
  1383. RY*(   3) N  76                  0.00117     0.88966   
  1384. RY*(   4) N  76                  0.00048     1.70822   
  1385. RY*(   5) N  76                  0.00047     1.89744   
  1386. RY*(   6) N  76                  0.00024     3.15225   
  1387. RY*(   7) N  76                  0.00024     1.56647   
  1388. RY*(   8) N  76                  0.00018     3.27258   
  1389. RY*(   9) N  76                  0.00010     2.67489   
  1390. RY*(  10) N  76                  0.00007     3.27385   
  1391. RY*(  11) N  76                  0.00005     2.39838   
  1392. RY*(  12) N  76                  0.00003     3.01552   
  1393. RY*(  13) N  76                  0.00002     2.46290   
  1394. RY*(  14) N  76                  0.00001     4.65140   
  1395. RY*(  15) N  76                  0.00000     4.74026   
  1396. RY*(  16) N  76                  0.00001     5.05775   
  1397. RY*(  17) N  76                  0.00000     4.48627   
  1398. RY*(  18) N  76                  0.00001     4.36353   
  1399. RY*(  19) N  76                  0.00001     3.88092   
  1400. RY*(  20) N  76                  0.00000     4.45824   
  1401. RY*(  21) N  76                  0.00000    31.45558   
  1402. RY*(  22) N  76                  0.00000     4.21811   
  1403. RY*(  23) N  76                  0.00000     4.65669   
  1404. RY*(  24) N  76                  0.00000     4.73628   
  1405. RY*(  25) N  76                  0.00000     4.64911   
  1406. RY*(  26) N  76                  0.00000     4.48091   
  1407. RY*(   1) C  77                  0.00206     1.43614   
  1408. RY*(   2) C  77                  0.00142     0.79980   
  1409. RY*(   3) C  77                  0.00098     1.50025   
  1410. RY*(   4) C  77                  0.00041     1.92996   
  1411. RY*(   5) C  77                  0.00030     1.68864   
  1412. RY*(   6) C  77                  0.00022     2.28790   
  1413. RY*(   7) C  77                  0.00018     2.30383   
  1414. RY*(   8) C  77                  0.00013     1.72269   
  1415. RY*(   9) C  77                  0.00009     1.60717   
  1416. RY*(  10) C  77                  0.00007     2.41705   
  1417. RY*(  11) C  77                  0.00005     1.55613   
  1418. RY*(  12) C  77                  0.00005     1.78095   
  1419. RY*(  13) C  77                  0.00003     2.15406   
  1420. RY*(  14) C  77                  0.00003     3.39350   
  1421. RY*(  15) C  77                  0.00002     3.43712   
  1422. RY*(  16) C  77                  0.00000    21.21495   
  1423. RY*(  17) C  77                  0.00000     3.95321   
  1424. RY*(  18) C  77                  0.00000     3.24412   
  1425. RY*(  19) C  77                  0.00001     1.40801   
  1426. RY*(  20) C  77                  0.00000     3.92806   
  1427. RY*(  21) C  77                  0.00000     3.92061   
  1428. RY*(  22) C  77                  0.00000     3.46165   
  1429. RY*(  23) C  77                  0.00000     3.44130   
  1430. RY*(  24) C  77                  0.00000     3.39121   
  1431. RY*(  25) C  77                  0.00000     3.54514   
  1432. RY*(  26) C  77                  0.00000     3.33059   
  1433. RY*(   1) H  78                  0.00027     1.21490   
  1434. RY*(   2) H  78                  0.00015     1.86138   
  1435. RY*(   3) H  78                  0.00012     2.31403   
  1436. RY*(   4) H  78                  0.00004     2.73328   
  1437. RY*(   5) H  78                  0.00000     3.14555   
  1519. BD*(   1) C  67 - H  68          0.00173     0.37102   
  1520. BD*(   1) C  67 - H  69          0.00565     0.35772   
  1521. BD*(   1) C  67 - H  70          0.00613     0.35752   
  1522. BD*(   1) C  67 - C  73          0.00690     0.38785   
  1523. BD*(   1) N  71 - H  72          0.00720     0.36573   
  1524. BD*(   1) N  71 - C  73          0.01366     0.42788   
  1525. BD*(   2) N  71 - C  73          0.38832    -0.04839  1530(v),1521(v),1520(v)
                                                    1293(g),1325(g),1330(g)
                                                    1412(v),1253(v),169(r)
  1526. BD*(   1) N  71 - C  74          0.01145     0.44569   
  1527. BD*(   1) C  73 - C  77          0.01068     0.56521   
  1528. BD*(   1) C  74 - H  75          0.00904     0.38840   
  1529. BD*(   1) C  74 - N  76          0.00961     0.53521   
  1530. BD*(   2) C  74 - N  76          0.20553    -0.00393  1525(v),1351(g),153(r)
                                                    154(r),1383(g),148(r),152(r)
                                                    1444(r),2(r)
  1531. BD*(   1) N  76 - C  77          0.00973     0.48156   
  1532. BD*(   1) C  77 - H  78          0.00735     0.42919   
       -------------------------------
              Total Lewis   21.09680  ( 96.6492%)
        Valence non-Lewis    0.69299  (  3.1747%)
        Rydberg non-Lewis    0.03842  (  0.1760%)
       -------------------------------
            Total unit  3   21.82820  (100.0000%)
           Charge unit  3    0.17180
 Unable to Open any file for archive entry.
 1\1\GINC-BGN1040\SP\UAPFD\def2TZVP\C34H36Fe1N6O1(5)\BECSLEIP\12-Nov-20
 24\0\\# apfd/def2TZVP guess=read scf=maxcycle=999 geom=check pop=nbo\\
 6krc_II_Q\\0,5\Fe,0,-5.5141882322,-5.7696641136,8.5914924828\N,0,-5.29
 70056479,-7.6075573528,7.7136932106\N,0,-4.944231573,-4.916687176,6.91
 79766934\N,0,-5.46740326,-4.0697139123,9.5918346015\N,0,-5.9634332067,
 -6.7725855505,10.2975680459\C,0,-5.630680613,-8.8271515424,8.210087886
 5\C,0,-5.4835161936,-9.8570251034,7.2062236024\C,0,-5.1205740102,-9.22
 00640863,6.0616124844\C,0,-5.0394922816,-7.813233342,6.39048105\C,0,-4
 .6395038108,-5.4871606159,5.7255846873\C,0,-4.3113154302,-4.4859837908
 ,4.7434757424\C,0,-4.468051892,-3.2761219375,5.3640785461\C,0,-4.92071
 14298,-3.5683387599,6.7148497959\C,0,-5.1965585949,-2.8455853383,9.054
 4086119\C,0,-5.1918910803,-1.8347596938,10.0790209017\C,0,-5.539800230
 9,-2.4679177289,11.2458299713\C,0,-5.7410001173,-3.8622580747,10.90271
 29639\C,0,-6.2837546027,-6.1871746266,11.485897894\C,0,-6.523814128,-7
 .1922285789,12.5011504021\C,0,-6.4691902481,-8.3927238522,11.866537895
 7\C,0,-6.1208512955,-8.1074257675,10.4913450291\C,0,-5.9700200449,-9.0
 826611889,9.5252079378\H,0,-6.1483046454,-10.1079098036,9.8112180537\C
 ,0,-4.6569064763,-6.8489398544,5.479072691\H,0,-4.4043668311,-7.179891
 4979,4.4832258576\C,0,-4.8873898135,-2.6172758157,7.7215522228\H,0,-4.
 6914657859,-1.5965442474,7.4284005458\C,0,-6.0643912721,-4.8570429629,
 11.8066459589\H,0,-6.2438289823,-4.5613366407,12.8290690801\C,0,-4.844
 997611,-9.7901586469,4.7123703162\H,0,-4.9968204179,-10.8668972784,4.7
 092177549\H,0,-3.8158688268,-9.5891455817,4.4136585254\H,0,-5.50586825
 95,-9.3478754045,3.9666189192\C,0,-5.720363329,-11.3086655412,7.448829
 7478\H,0,-6.7313028542,-11.4779133845,7.8205558082\H,0,-5.0197356531,-
 11.6917204894,8.1913331668\H,0,-5.5926601276,-11.8798422004,6.53246963
 75\C,0,-3.9426900924,-4.7608999678,3.3274610821\H,0,-4.5413716104,-5.5
 773978751,2.9261916361\H,0,-2.8916808796,-5.0426489742,3.2461008388\H,
 0,-4.1096978211,-3.8746606481,2.7187755964\C,0,-4.3038352087,-1.943371
 9271,4.8281646854\H,0,-4.9889782086,-1.197259991,5.2154434617\C,0,-3.3
 938078665,-1.5777179348,3.9307255995\H,0,-2.6591678931,-2.2645669571,3
 .5481686851\H,0,-3.3375077132,-0.5658294017,3.5647983383\C,0,-4.949706
 822,-0.3830719601,9.8522541238\H,0,-5.3659163322,-0.0667338793,8.89703
 55617\H,0,-3.8806569299,-0.1635220622,9.8412434695\H,0,-5.411987258,0.
 2019039583,10.6448891193\C,0,-5.7101626592,-1.9162005017,12.5708184859
 \H,0,-6.467275168,-2.3944908954,13.1814390816\C,0,-5.0160884099,-0.904
 2289664,13.0822241424\H,0,-5.205338576,-0.5372466471,14.0773729334\H,0
 ,-4.2205774231,-0.4230130913,12.5406174548\C,0,-6.8340458163,-6.894105
 5999,13.928105367\H,0,-7.6843261654,-6.2162053998,14.0030182413\H,0,-5
 .9805051247,-6.4210059295,14.4146863419\H,0,-7.0728225916,-7.805660287
 ,14.4707807056\C,0,-6.6611301974,-9.7646915103,12.4171115701\H,0,-6.89
 96997512,-9.7260060736,13.4771490887\H,0,-5.7566512074,-10.3600481394,
 12.2908668443\H,0,-7.4754128623,-10.2746058141,11.9011111251\O,0,-3.31
 3,-5.854,9.183\H,0,-3.102,-4.982,9.516\H,0,-2.777,-6.563,9.189\C,0,-10
 .5329388332,-3.8566709226,7.127771183\H,0,-10.192346474,-2.8287313159,
 7.0488783552\H,0,-11.3411837748,-3.902901738,7.8574409364\H,0,-10.9284
 506243,-4.1676589062,6.1603786618\N,0,-9.5474964294,-6.0644015057,7.78
 40780166\H,0,-10.4072420365,-6.5838767356,7.7174139978\C,0,-9.40050375
 76,-4.7244257047,7.5389926281\C,0,-8.3346069148,-6.5532004688,8.131437
 2755\H,0,-8.1473179278,-7.5771477236,8.3813962832\N,0,-7.4294222266,-5
 .6042801962,8.1203934579\C,0,-8.0780469473,-4.4610790061,7.753332149\H
 ,0,-7.5528546653,-3.5323142654,7.6701752184\\Version=ES64L-G16RevC.02\
 State=5-A\HF=-2984.0047553\S2=6.166572\S2-1=0.\S2A=6.001059\RMSD=1.194
 e-09\Dipole=-1.5529434,-0.6194895,-0.2504523\Quadrupole=10.7219153,-2.
 9843486,-7.7375667,1.8632674,2.9507606,0.3721346\PG=C01 [X(C34H36Fe1N6
 O1)]\\@
 The archive entry for this job was punched.


 LIFE IS SO UNCERTAIN - EAT DESSERT FIRST.
 Job cpu time:       1 days  1 hours 20 minutes 15.7 seconds.
 Elapsed time:       0 days  0 hours 23 minutes 25.8 seconds.
 File lengths (MBytes):  RWF=   2166 Int=      0 D2E=      0 Chk=    197 Scr=      1
 Normal termination of Gaussian 16 at Tue Nov 12 20:36:00 2024.
