 Entering Gaussian System, Link 0=g16
 Input=6m7e05re.com
 Output=6m7e05re.log
 Initial command:
 /sw/chem/gaussian/g16_C02/a100/g16/l1.exe "/local/becsleip_8079155/Gau-1414633.inp" -scrdir="/local/becsleip_8079155/"
 Entering Link 1 = /sw/chem/gaussian/g16_C02/a100/g16/l1.exe PID=   1414634.
  
 Copyright (c) 1988-2021, Gaussian, Inc.  All Rights Reserved.
  
 This is part of the Gaussian(R) 16 program.  It is based on
 the Gaussian(R) 09 system (copyright 2009, Gaussian, Inc.),
 the Gaussian(R) 03 system (copyright 2003, Gaussian, Inc.),
 the Gaussian(R) 98 system (copyright 1998, Gaussian, Inc.),
 the Gaussian(R) 94 system (copyright 1995, Gaussian, Inc.),
 the Gaussian 92(TM) system (copyright 1992, Gaussian, Inc.),
 the Gaussian 90(TM) system (copyright 1990, Gaussian, Inc.),
 the Gaussian 88(TM) system (copyright 1988, Gaussian, Inc.),
 the Gaussian 86(TM) system (copyright 1986, Carnegie Mellon
 University), and the Gaussian 82(TM) system (copyright 1983,
 Carnegie Mellon University). Gaussian is a federally registered
 trademark of Gaussian, Inc.
  
 This software contains proprietary and confidential information,
 including trade secrets, belonging to Gaussian, Inc.
  
 This software is provided under written license and may be
 used, copied, transmitted, or stored only in accord with that
 written license.
  
 The following legend is applicable only to US Government
 contracts under FAR:
  
                    RESTRICTED RIGHTS LEGEND
  
 Use, reproduction and disclosure by the US Government is
 subject to restrictions as set forth in subparagraphs (a)
 and (c) of the Commercial Computer Software - Restricted
 Rights clause in FAR 52.227-19.
  
 Gaussian, Inc.
 340 Quinnipiac St., Bldg. 40, Wallingford CT 06492
  
  
 ---------------------------------------------------------------
 Warning -- This program may not be used in any manner that
 competes with the business of Gaussian, Inc. or will provide
 assistance to any competitor of Gaussian, Inc.  The licensee
 of this program is prohibited from giving any competitor of
 Gaussian, Inc. access to this program.  By using this program,
 the user acknowledges that Gaussian, Inc. is engaged in the
 business of creating and licensing software in the field of
 computational chemistry and represents and warrants to the
 licensee that it is not a competitor of Gaussian, Inc. and that
 it will not use this program in any manner prohibited above.
 ---------------------------------------------------------------
  

 Cite this work as:
 Gaussian 16, Revision C.02,
 M. J. Frisch, G. W. Trucks, H. B. Schlegel, G. E. Scuseria, 
 M. A. Robb, J. R. Cheeseman, G. Scalmani, V. Barone, 
 G. A. Petersson, H. Nakatsuji, X. Li, M. Caricato, A. V. Marenich, 
 J. Bloino, B. G. Janesko, R. Gomperts, B. Mennucci, H. P. Hratchian, 
 J. V. Ortiz, A. F. Izmaylov, J. L. Sonnenberg, D. Williams-Young, 
 F. Ding, F. Lipparini, F. Egidi, J. Goings, B. Peng, A. Petrone, 
 T. Henderson, D. Ranasinghe, V. G. Zakrzewski, J. Gao, N. Rega, 
 G. Zheng, W. Liang, M. Hada, M. Ehara, K. Toyota, R. Fukuda, 
 J. Hasegawa, M. Ishida, T. Nakajima, Y. Honda, O. Kitao, H. Nakai, 
 T. Vreven, K. Throssell, J. A. Montgomery, Jr., J. E. Peralta, 
 F. Ogliaro, M. J. Bearpark, J. J. Heyd, E. N. Brothers, K. N. Kudin, 
 V. N. Staroverov, T. A. Keith, R. Kobayashi, J. Normand, 
 K. Raghavachari, A. P. Rendell, J. C. Burant, S. S. Iyengar, 
 J. Tomasi, M. Cossi, J. M. Millam, M. Klene, C. Adamo, R. Cammi, 
 J. W. Ochterski, R. L. Martin, K. Morokuma, O. Farkas, 
 J. B. Foresman, and D. J. Fox, Gaussian, Inc., Wallingford CT, 2019.
 
 ******************************************
 Gaussian 16:  ES64L-G16RevC.02  7-Dec-2021
                13-Nov-2024 
 ******************************************
 %mem=16GB
 %CPU=0-71
 SetSPE:  set environment variable "OMP_PROC_BIND" = "true"
 SetSPE:  set environment variable "OMP_PLACES" = "{0},{1},{2},{3},{4},{5},{6},{7},{8},{9},{10},{11},{12},{13},{14},{15},{16},{17},{18},{19},{20},{21},{22},{23},{24},{25},{26},{27},{28},{29},{30},{31},{32},{33},{34},{35},{36},{37},{38},{39},{40},{41},{42},{43},{44},{45},{46},{47},{48},{49},{50},{51},{52},{53},{54},{55},{56},{57},{58},{59},{60},{61},{62},{63},{64},{65},{66},{67},{68},{69},{70},{71}"
 Will use up to   72 processors via shared memory.
 %gpucpu=0,1,2,3=0,1,2,3
 Will use    4 GPUs:
 Thread  CPU   GPU
      0    0     0
      1    1     1
      2    2     2
      3    3     3
      4    4    -1
      5    5    -1
      6    6    -1
      7    7    -1
      8    8    -1
      9    9    -1
     10   10    -1
     11   11    -1
     12   12    -1
     13   13    -1
     14   14    -1
     15   15    -1
     16   16    -1
     17   17    -1
     18   18    -1
     19   19    -1
     20   20    -1
     21   21    -1
     22   22    -1
     23   23    -1
     24   24    -1
     25   25    -1
     26   26    -1
     27   27    -1
     28   28    -1
     29   29    -1
     30   30    -1
     31   31    -1
     32   32    -1
     33   33    -1
     34   34    -1
     35   35    -1
     36   36    -1
     37   37    -1
     38   38    -1
     39   39    -1
     40   40    -1
     41   41    -1
     42   42    -1
     43   43    -1
     44   44    -1
     45   45    -1
     46   46    -1
     47   47    -1
     48   48    -1
     49   49    -1
     50   50    -1
     51   51    -1
     52   52    -1
     53   53    -1
     54   54    -1
     55   55    -1
     56   56    -1
     57   57    -1
     58   58    -1
     59   59    -1
     60   60    -1
     61   61    -1
     62   62    -1
     63   63    -1
     64   64    -1
     65   65    -1
     66   66    -1
     67   67    -1
     68   68    -1
     69   69    -1
     70   70    -1
     71   71    -1
 SetGPE:  set environment variable "OMP_PROC_BIND" = "true"
 SetGPE:  set environment variable "OMP_PLACES" = "{0},{1},{2},{3},{4},{5},{6},{7},{8},{9},{10},{11},{12},{13},{14},{15},{16},{17},{18},{19},{20},{21},{22},{23},{24},{25},{26},{27},{28},{29},{30},{31},{32},{33},{34},{35},{36},{37},{38},{39},{40},{41},{42},{43},{44},{45},{46},{47},{48},{49},{50},{51},{52},{53},{54},{55},{56},{57},{58},{59},{60},{61},{62},{63},{64},{65},{66},{67},{68},{69},{70},{71}"
 %oldchk=6m7e_II_S.chk
 %chk=6m7e_II_Sre.chk
 Properties for Device   0
 Minimum vector length:                              32
 Maximum vector length:                            1024
 Number of SMPs:                                    108
 Maximum number of threads per SMP:                2048
 Number of ASync Engines:                             5
 Memory:                                           9207742464
 Properties for Device   1
 Minimum vector length:                              32
 Maximum vector length:                            1024
 Number of SMPs:                                    108
 Maximum number of threads per SMP:                2048
 Number of ASync Engines:                             5
 Memory:                                           9207742464
 Properties for Device   2
 Minimum vector length:                              32
 Maximum vector length:                            1024
 Number of SMPs:                                    108
 Maximum number of threads per SMP:                2048
 Number of ASync Engines:                             5
 Memory:                                           9207742464
 Properties for Device   3
 Minimum vector length:                              32
 Maximum vector length:                            1024
 Number of SMPs:                                    108
 Maximum number of threads per SMP:                2048
 Number of ASync Engines:                             5
 Memory:                                           9207742464
   8286968217 words of memory will be used on each GPU.
 Copying data from "6m7e_II_S.chk" to current chk file "6m7e_II_Sre.chk"
 IOpt=  2 FromEx=T IUOpen= 4 IOptOp= 5 NList=   0 IFRang= 0 IUIn= 4 IUOut= 2.
 --------------------------------------
 # apfd/gen scf=maxcycle=999 geom=check
 --------------------------------------
 1/29=2,38=1,172=1/1;
 2/12=2,40=1/2;
 3/5=7,11=2,14=-4,25=1,30=1,74=-44/1,2,3;
 4//1;
 5/5=2,7=999,38=5/2;
 6/7=2,8=2,9=2,10=2,28=1/1;
 99/5=1,9=1/99;
 ---------
 6m7e_II_Q
 ---------
 Structure from the checkpoint file:  "6m7e_II_Sre.chk"
 Charge =  0 Multiplicity = 5
 Z-Matrix found in chk file.
 Fe,0,9.5808805068,2.0114222711,25.7443354986
 N,0,8.7420108524,2.1344396111,27.5551889988
 N,0,9.6115942791,4.0354167389,25.6465652817
 N,0,10.2170281851,1.965032688,23.8236535996
 N,0,9.4193202264,0.0433138329,25.7421755916
 C,0,8.395386492,1.0797879087,28.3428732282
 C,0,7.9045745804,1.5396570578,29.6217464168
 C,0,7.972961879,2.8991034423,29.5913758355
 C,0,8.493176776,3.2510821247,28.2899409065
 C,0,9.1833383448,4.8995970146,26.6089390286
 C,0,9.3336893148,6.2676293818,26.180274161
 C,0,9.8489065651,6.217803279,24.913591473
 C,0,10.0093612868,4.8089187684,24.6044217214
 C,0,10.6126092581,3.0124307427,23.0515443574
 C,0,11.1928575177,2.554760688,21.8150024839
 C,0,11.1153704829,1.1875401635,21.8396356358
 C,0,10.4958232333,0.8464326029,23.1056725458
 C,0,9.6998965324,-0.8127953172,24.7268333049
 C,0,9.3652195907,-2.1712595723,25.0944076716
 C,0,8.8856798689,-2.1154336125,26.3655084802
 C,0,8.9121024825,-0.7198934481,26.7483884174
 C,0,8.4593063461,-0.2516376943,27.9687989683
 H,0,8.1136652528,-0.9834761373,28.6834930689
 C,0,8.6897929151,4.5457069539,27.8532268868
 H,0,8.4311300582,5.3434251254,28.5326012435
 C,0,10.4955722991,4.3464843379,23.3984038644
 H,0,10.8271833547,5.0794895011,22.6789369943
 C,0,10.2443175086,-0.452066116,23.5097403444
 H,0,10.4793214723,-1.2458588138,22.8170872572
 C,0,7.5918446527,3.887933217,30.639216518
 H,0,7.2449429992,3.3855040001,31.5389437921
 H,0,6.7932789835,4.5384833434,30.280977564
 H,0,8.4442273518,4.5145716351,30.9021058088
 C,0,7.4308930887,0.6422297375,30.7137741655
 H,0,8.2215944149,-0.0436357975,31.0190864584
 H,0,6.5802826342,0.0476257346,30.379119359
 H,0,7.1234253681,1.2187650282,31.5827548382
 C,0,8.9052589291,7.4634788769,26.9573688617
 H,0,9.6589009313,7.7368694999,27.6978187312
 H,0,7.9715008943,7.2687446574,27.4829959344
 H,0,8.7579828333,8.3095130659,26.2890261307
 C,0,10.1660241771,7.3031481493,24.0117765504
 H,0,10.0028034997,7.1014263244,22.9593303336
 C,0,10.6351903523,8.4931620966,24.3728379387
 H,0,10.8606670285,8.7329667173,25.3973860977
 H,0,10.8361994976,9.2638132182,23.6471024056
 C,0,11.6853642997,3.434974706,20.7196527696
 H,0,12.6922824533,3.797142444,20.9342838113
 H,0,11.0359184353,4.3007896056,20.5981356228
 H,0,11.7108182583,2.8848725762,19.781123013
 C,0,11.5359963492,0.2314015043,20.8394372375
 H,0,10.9195448665,-0.6558466821,20.7501090791
 C,0,12.5991772364,0.3578664382,20.0520496059
 H,0,13.2732261514,1.1931687589,20.1303981959
 H,0,12.8482063615,-0.3886282591,19.3160312634
 C,0,9.5473556444,-3.3511571623,24.2025288398
 H,0,10.5964726323,-3.4655456399,23.9282301292
 H,0,8.9704584704,-3.2299081907,23.2855577816
 H,0,9.2200933529,-4.2638566463,24.6945998631
 C,0,8.3897855938,-3.2184971068,27.2371626578
 H,0,8.4864240669,-4.1791423862,26.7372954412
 H,0,7.3396911404,-3.067201978,27.4887557426
 H,0,8.9571848654,-3.258011019,28.1674775136
 O,0,7.406,2.108,25.054
 H,0,6.955,2.184,25.895
 H,0,7.022,2.045,24.255
 C,0,15.0190385632,2.6953404859,26.7252279528
 H,0,15.6753027677,1.8432800755,26.5483110727
 H,0,15.3195688658,3.1688437386,27.6598674537
 H,0,15.1484439308,3.4079690799,25.9168090096
 N,0,13.1418813511,1.3607037255,27.7077564747
 H,0,13.6976036228,0.9118897276,28.417152304
 C,0,13.599586492,2.2636862626,26.7841462185
 C,0,11.8186105713,1.185225808,27.4883214019
 H,0,11.1949796098,0.5313024458,28.0623265765
 N,0,11.4117864498,1.9219107127,26.4826591414
 C,0,12.508379825,2.5991310688,26.0348361807
 H,0,12.4371848922,3.2777736237,25.210009947
 Recover connectivity data from disk.
 Stoichiometry    C34H36FeN6O(5)
 Framework group  C1[X(C34H36FeN6O)]
 Deg. of freedom   228
 Full point group                 C1      NOp   1
 Largest Abelian subgroup         C1      NOp   1
 Largest concise Abelian subgroup C1      NOp   1
                         Standard orientation:                         
 ---------------------------------------------------------------------
 Center     Atomic      Atomic             Coordinates (Angstroms)
 Number     Number       Type             X           Y           Z
 ---------------------------------------------------------------------
      1         26           0        0.258388   -0.008479   -0.336284
      2          7           0        1.785060   -1.299717   -0.334264
      3          7           0       -1.029954   -1.567685   -0.463212
      4          7           0       -1.317056    1.239751   -0.572402
      5          7           0        1.490740    1.534086   -0.373119
      6          6           0        3.103403   -0.970246   -0.254855
      7          6           0        3.921423   -2.159149   -0.182431
      8          6           0        3.063520   -3.216013   -0.209551
      9          6           0        1.734257   -2.658216   -0.310386
     10          6           0       -0.701617   -2.889728   -0.490967
     11          6           0       -1.878570   -3.712957   -0.613233
     12          6           0       -2.941555   -2.853984   -0.681375
     13          6           0       -2.380692   -1.518660   -0.588470
     14          6           0       -2.638127    0.917789   -0.600545
     15          6           0       -3.460467    2.100267   -0.574300
     16          6           0       -2.598639    3.164631   -0.557402
     17          6           0       -1.264250    2.596804   -0.561977
     18          6           0        1.174609    2.847888   -0.501771
     19          6           0        2.370672    3.658423   -0.572568
     20          6           0        3.420001    2.799767   -0.470635
     21          6           0        2.850319    1.473637   -0.362612
     22          6           0        3.607628    0.318855   -0.281060
     23          1           0        4.681079    0.430953   -0.249755
     24          6           0        0.578218   -3.408313   -0.390128
     25          1           0        0.681879   -4.482546   -0.380754
     26          6           0       -3.143610   -0.369484   -0.634040
     27          1           0       -4.215955   -0.482831   -0.680117
     28          6           0       -0.108800    3.356599   -0.545475
     29          1           0       -0.215488    4.430088   -0.582085
     30          6           0        3.360876   -4.675684   -0.165452
     31          1           0        4.429675   -4.851154   -0.069723
     32          1           0        3.013714   -5.165946   -1.075605
     33          1           0        2.858344   -5.143138    0.681479
     34          6           0        5.409732   -2.153054   -0.097732
     35          1           0        5.743196   -1.606551    0.784862
     36          1           0        5.841407   -1.670680   -0.975261
     37          1           0        5.798403   -3.166775   -0.039762
     38          6           0       -1.879920   -5.196825   -0.738213
     39          1           0       -1.795156   -5.669925    0.241570
     40          1           0       -1.043512   -5.534093   -1.348772
     41          1           0       -2.805822   -5.531262   -1.201897
     42          6           0       -4.348524   -3.150394   -0.837537
     43          1           0       -4.916959   -2.434236   -1.419752
     44          6           0       -4.975214   -4.205484   -0.326989
     45          1           0       -4.472429   -4.923254    0.297558
     46          1           0       -6.026079   -4.373269   -0.495900
     47          6           0       -4.947849    2.113823   -0.642424
     48          1           0       -5.384244    1.918045    0.338569
     49          1           0       -5.310158    1.350388   -1.329506
     50          1           0       -5.297290    3.085284   -0.986301
     51          6           0       -2.896220    4.579859   -0.547426
     52          1           0       -2.202102    5.209002   -1.092934
     53          6           0       -3.926218    5.145936    0.073047
     54          1           0       -4.618511    4.576795    0.668881
     55          1           0       -4.097190    6.208829    0.028095
     56          6           0        2.372063    5.141361   -0.719782
     57          1           0        1.856228    5.609936    0.118861
     58          1           0        1.860721    5.434985   -1.636658
     59          1           0        3.388101    5.526853   -0.756070
     60          6           0        4.882321    3.089191   -0.487887
     61          1           0        5.063688    4.158843   -0.558563
     62          1           0        5.360338    2.603574   -1.339100
     63          1           0        5.357926    2.720631    0.421482
     64          8           0        0.515304   -0.162263   -2.600426
     65          1           0        1.235827   -0.790124   -2.656063
     66          1           0        0.126370    0.253882   -3.282613
     67          6           0       -1.466597    0.052492    4.957502
     68          1           0       -1.327480    0.973498    5.523526
     69          1           0       -1.195039   -0.786055    5.598727
     70          1           0       -2.515178   -0.037778    4.692069
     71          7           0        0.724677    0.171135    3.751441
     72          1           0        1.291489    0.251514    4.579551
     73          6           0       -0.641126    0.062871    3.723350
     74          6           0        1.163524    0.152774    2.471963
     75          1           0        2.193359    0.222091    2.187974
     76          7           0        0.158893    0.039534    1.636822
     77          6           0       -0.970282   -0.018400    2.400560
     78          1           0       -1.935931   -0.114981    1.948721
 ---------------------------------------------------------------------
 Rotational constants (GHZ):           0.0928432           0.0917817           0.0592312
 General basis read from cards:  (5D, 7F)
 There are   723 symmetry adapted cartesian basis functions of A   symmetry.
 There are   679 symmetry adapted basis functions of A   symmetry.
   679 basis functions,  1378 primitive gaussians,   723 cartesian basis functions
   160 alpha electrons      156 beta electrons
       nuclear repulsion energy      5963.9660891591 Hartrees.
 NAtoms=   78 NActive=   78 NUniq=   78 SFac= 1.00D+00 NAtFMM=   60 NAOKFM=T Big=T
 Integral buffers will be    131072 words long.
 Raffenetti 2 integral format.
 Two-electron integral symmetry is turned on.
 R6APFD:  NTU= -4 IXU= 1 FactS= 1.050
 Nuclear repulsion after empirical dispersion term =     5963.8134002520 Hartrees.
 One-electron integrals computed using PRISM.
 NBasis=   679 RedAO= T EigKep=  2.52D-04  NBF=   679
 NBsUse=   679 1.00D-06 EigRej= -1.00D+00 NBFU=   679
 ExpMin= 4.20D-02 ExpMax= 3.01D+05 ExpMxC= 2.91D+03 IAcc=3 IRadAn=         5 AccDes= 0.00D+00
 Harris functional with IExCor= 3731 and IRadAn=       5 diagonalized for initial guess.
 HarFok:  IExCor= 3731 AccDes= 0.00D+00 IRadAn=         5 IDoV= 1 UseB2=F ITyADJ=14
 ICtDFT=  3500011 ScaDFX=  1.000000  1.000000  1.000000  1.000000
 FoFCou: FMM=F IPFlag=           0 FMFlag=      100000 FMFlg1=        2001
         NFxFlg=           0 DoJE=T BraDBF=F KetDBF=T FulRan=T
         wScrn=  0.000000 ICntrl=       500 IOpCl=  0 I1Cent=   200000004 NGrid=           0
         NMat0=    1 NMatS0=      1 NMatT0=    0 NMatD0=    1 NMtDS0=    0 NMtDT0=    0
 Petite list used in FoFCou.
 Initial guess <Sx>= 0.0000 <Sy>= 0.0000 <Sz>= 2.0000 <S**2>= 6.0000 S= 2.0000
 Requested convergence on RMS density matrix=1.00D-08 within 999 cycles.
 Requested convergence on MAX density matrix=1.00D-06.
 Requested convergence on             energy=1.00D-06.
 No special actions if energy rises.
 EnCoef did   100 forward-backward iterations
 EnCoef did   100 forward-backward iterations
 EnCoef did   100 forward-backward iterations
 EnCoef did   100 forward-backward iterations
 EnCoef did     4 forward-backward iterations
 EnCoef did     8 forward-backward iterations
 EnCoef did   100 forward-backward iterations
 EnCoef did     2 forward-backward iterations
 EnCoef did     2 forward-backward iterations
 EnCoef did     2 forward-backward iterations
 EnCoef did     5 forward-backward iterations
 EnCoef did     2 forward-backward iterations
 EnCoef did     5 forward-backward iterations
 Rare condition: small coef for last iteration:  0.000D+00
 Restarting incremental Fock formation.
 EnCoef did     2 forward-backward iterations
 EnCoef did     4 forward-backward iterations
 EnCoef did   100 forward-backward iterations
 EnCoef did   100 forward-backward iterations
 EnCoef did   100 forward-backward iterations
 Rare condition: small coef for last iteration: -0.140D-15
 EnCoef did   100 forward-backward iterations
 EnCoef did   100 forward-backward iterations
 EnCoef did   100 forward-backward iterations
 EnCoef did     2 forward-backward iterations
 EnCoef did     2 forward-backward iterations
 Rare condition: small coef for last iteration:  0.000D+00
 Restarting incremental Fock formation.
 Restarting incremental Fock formation.
 Restarting incremental Fock formation.
 SCF Done:  E(UAPFD) =  -2983.37926955     A.U. after   97 cycles
            NFock= 97  Conv=0.20D-08     -V/T= 2.0033
 <Sx>= 0.0000 <Sy>= 0.0000 <Sz>= 2.0000 <S**2>= 6.1461 S= 2.0291
 <L.S>=  0.00000000000    
 Annihilation of the first spin contaminant:
 S**2 before annihilation     6.1461,   after     6.0006

 **********************************************************************

            Population analysis using the SCF Density.

 **********************************************************************

 Orbital symmetries:
 Alpha Orbitals:
       Occupied  (A) (A) (A) (A) (A) (A) (A) (A) (A) (A) (A) (A)
                 (A) (A) (A) (A) (A) (A) (A) (A) (A) (A) (A) (A)
                 (A) (A) (A) (A) (A) (A) (A) (A) (A) (A) (A) (A)
                 (A) (A) (A) (A) (A) (A) (A) (A) (A) (A) (A) (A)
                 (A) (A) (A) (A) (A) (A) (A) (A) (A) (A) (A) (A)
                 (A) (A) (A) (A) (A) (A) (A) (A) (A) (A) (A) (A)
                 (A) (A) (A) (A) (A) (A) (A) (A) (A) (A) (A) (A)
                 (A) (A) (A) (A) (A) (A) (A) (A) (A) (A) (A) (A)
                 (A) (A) (A) (A) (A) (A) (A) (A) (A) (A) (A) (A)
                 (A) (A) (A) (A) (A) (A) (A) (A) (A) (A) (A) (A)
                 (A) (A) (A) (A) (A) (A) (A) (A) (A) (A) (A) (A)
                 (A) (A) (A) (A) (A) (A) (A) (A) (A) (A) (A) (A)
                 (A) (A) (A) (A) (A) (A) (A) (A) (A) (A) (A) (A)
                 (A) (A) (A) (A)
       Virtual   (A) (A) (A) (A) (A) (A) (A) (A) (A) (A) (A) (A)
                 (A) (A) (A) (A) (A) (A) (A) (A) (A) (A) (A) (A)
                 (A) (A) (A) (A) (A) (A) (A) (A) (A) (A) (A) (A)
                 (A) (A) (A) (A) (A) (A) (A) (A) (A) (A) (A) (A)
                 (A) (A) (A) (A) (A) (A) (A) (A) (A) (A) (A) (A)
                 (A) (A) (A) (A) (A) (A) (A) (A) (A) (A) (A) (A)
                 (A) (A) (A) (A) (A) (A) (A) (A) (A) (A) (A) (A)
                 (A) (A) (A) (A) (A) (A) (A) (A) (A) (A) (A) (A)
                 (A) (A) (A) (A) (A) (A) (A) (A) (A) (A) (A) (A)
                 (A) (A) (A) (A) (A) (A) (A) (A) (A) (A) (A) (A)
                 (A) (A) (A) (A) (A) (A) (A) (A) (A) (A) (A) (A)
                 (A) (A) (A) (A) (A) (A) (A) (A) (A) (A) (A) (A)
                 (A) (A) (A) (A) (A) (A) (A) (A) (A) (A) (A) (A)
                 (A) (A) (A) (A) (A) (A) (A) (A) (A) (A) (A) (A)
                 (A) (A) (A) (A) (A) (A) (A) (A) (A) (A) (A) (A)
                 (A) (A) (A) (A) (A) (A) (A) (A) (A) (A) (A) (A)
                 (A) (A) (A) (A) (A) (A) (A) (A) (A) (A) (A) (A)
                 (A) (A) (A) (A) (A) (A) (A) (A) (A) (A) (A) (A)
                 (A) (A) (A) (A) (A) (A) (A) (A) (A) (A) (A) (A)
                 (A) (A) (A) (A) (A) (A) (A) (A) (A) (A) (A) (A)
                 (A) (A) (A) (A) (A) (A) (A) (A) (A) (A) (A) (A)
                 (A) (A) (A) (A) (A) (A) (A) (A) (A) (A) (A) (A)
                 (A) (A) (A) (A) (A) (A) (A) (A) (A) (A) (A) (A)
                 (A) (A) (A) (A) (A) (A) (A) (A) (A) (A) (A) (A)
                 (A) (A) (A) (A) (A) (A) (A) (A) (A) (A) (A) (A)
                 (A) (A) (A) (A) (A) (A) (A) (A) (A) (A) (A) (A)
                 (A) (A) (A) (A) (A) (A) (A) (A) (A) (A) (A) (A)
                 (A) (A) (A) (A) (A) (A) (A) (A) (A) (A) (A) (A)
                 (A) (A) (A) (A) (A) (A) (A) (A) (A) (A) (A) (A)
                 (A) (A) (A) (A) (A) (A) (A) (A) (A) (A) (A) (A)
                 (A) (A) (A) (A) (A) (A) (A) (A) (A) (A) (A) (A)
                 (A) (A) (A) (A) (A) (A) (A) (A) (A) (A) (A) (A)
                 (A) (A) (A) (A) (A) (A) (A) (A) (A) (A) (A) (A)
                 (A) (A) (A) (A) (A) (A) (A) (A) (A) (A) (A) (A)
                 (A) (A) (A) (A) (A) (A) (A) (A) (A) (A) (A) (A)
                 (A) (A) (A) (A) (A) (A) (A) (A) (A) (A) (A) (A)
                 (A) (A) (A) (A) (A) (A) (A) (A) (A) (A) (A) (A)
                 (A) (A) (A) (A) (A) (A) (A) (A) (A) (A) (A) (A)
                 (A) (A) (A) (A) (A) (A) (A) (A) (A) (A) (A) (A)
                 (A) (A) (A) (A) (A) (A) (A) (A) (A) (A) (A) (A)
                 (A) (A) (A) (A) (A) (A) (A) (A) (A) (A) (A) (A)
                 (A) (A) (A) (A) (A) (A) (A) (A) (A) (A) (A) (A)
                 (A) (A) (A) (A) (A) (A) (A) (A) (A) (A) (A) (A)
                 (A) (A) (A)
 Beta  Orbitals:
       Occupied  (A) (A) (A) (A) (A) (A) (A) (A) (A) (A) (A) (A)
                 (A) (A) (A) (A) (A) (A) (A) (A) (A) (A) (A) (A)
                 (A) (A) (A) (A) (A) (A) (A) (A) (A) (A) (A) (A)
                 (A) (A) (A) (A) (A) (A) (A) (A) (A) (A) (A) (A)
                 (A) (A) (A) (A) (A) (A) (A) (A) (A) (A) (A) (A)
                 (A) (A) (A) (A) (A) (A) (A) (A) (A) (A) (A) (A)
                 (A) (A) (A) (A) (A) (A) (A) (A) (A) (A) (A) (A)
                 (A) (A) (A) (A) (A) (A) (A) (A) (A) (A) (A) (A)
                 (A) (A) (A) (A) (A) (A) (A) (A) (A) (A) (A) (A)
                 (A) (A) (A) (A) (A) (A) (A) (A) (A) (A) (A) (A)
                 (A) (A) (A) (A) (A) (A) (A) (A) (A) (A) (A) (A)
                 (A) (A) (A) (A) (A) (A) (A) (A) (A) (A) (A) (A)
                 (A) (A) (A) (A) (A) (A) (A) (A) (A) (A) (A) (A)
       Virtual   (A) (A) (A) (A) (A) (A) (A) (A) (A) (A) (A) (A)
                 (A) (A) (A) (A) (A) (A) (A) (A) (A) (A) (A) (A)
                 (A) (A) (A) (A) (A) (A) (A) (A) (A) (A) (A) (A)
                 (A) (A) (A) (A) (A) (A) (A) (A) (A) (A) (A) (A)
                 (A) (A) (A) (A) (A) (A) (A) (A) (A) (A) (A) (A)
                 (A) (A) (A) (A) (A) (A) (A) (A) (A) (A) (A) (A)
                 (A) (A) (A) (A) (A) (A) (A) (A) (A) (A) (A) (A)
                 (A) (A) (A) (A) (A) (A) (A) (A) (A) (A) (A) (A)
                 (A) (A) (A) (A) (A) (A) (A) (A) (A) (A) (A) (A)
                 (A) (A) (A) (A) (A) (A) (A) (A) (A) (A) (A) (A)
                 (A) (A) (A) (A) (A) (A) (A) (A) (A) (A) (A) (A)
                 (A) (A) (A) (A) (A) (A) (A) (A) (A) (A) (A) (A)
                 (A) (A) (A) (A) (A) (A) (A) (A) (A) (A) (A) (A)
                 (A) (A) (A) (A) (A) (A) (A) (A) (A) (A) (A) (A)
                 (A) (A) (A) (A) (A) (A) (A) (A) (A) (A) (A) (A)
                 (A) (A) (A) (A) (A) (A) (A) (A) (A) (A) (A) (A)
                 (A) (A) (A) (A) (A) (A) (A) (A) (A) (A) (A) (A)
                 (A) (A) (A) (A) (A) (A) (A) (A) (A) (A) (A) (A)
                 (A) (A) (A) (A) (A) (A) (A) (A) (A) (A) (A) (A)
                 (A) (A) (A) (A) (A) (A) (A) (A) (A) (A) (A) (A)
                 (A) (A) (A) (A) (A) (A) (A) (A) (A) (A) (A) (A)
                 (A) (A) (A) (A) (A) (A) (A) (A) (A) (A) (A) (A)
                 (A) (A) (A) (A) (A) (A) (A) (A) (A) (A) (A) (A)
                 (A) (A) (A) (A) (A) (A) (A) (A) (A) (A) (A) (A)
                 (A) (A) (A) (A) (A) (A) (A) (A) (A) (A) (A) (A)
                 (A) (A) (A) (A) (A) (A) (A) (A) (A) (A) (A) (A)
                 (A) (A) (A) (A) (A) (A) (A) (A) (A) (A) (A) (A)
                 (A) (A) (A) (A) (A) (A) (A) (A) (A) (A) (A) (A)
                 (A) (A) (A) (A) (A) (A) (A) (A) (A) (A) (A) (A)
                 (A) (A) (A) (A) (A) (A) (A) (A) (A) (A) (A) (A)
                 (A) (A) (A) (A) (A) (A) (A) (A) (A) (A) (A) (A)
                 (A) (A) (A) (A) (A) (A) (A) (A) (A) (A) (A) (A)
                 (A) (A) (A) (A) (A) (A) (A) (A) (A) (A) (A) (A)
                 (A) (A) (A) (A) (A) (A) (A) (A) (A) (A) (A) (A)
                 (A) (A) (A) (A) (A) (A) (A) (A) (A) (A) (A) (A)
                 (A) (A) (A) (A) (A) (A) (A) (A) (A) (A) (A) (A)
                 (A) (A) (A) (A) (A) (A) (A) (A) (A) (A) (A) (A)
                 (A) (A) (A) (A) (A) (A) (A) (A) (A) (A) (A) (A)
                 (A) (A) (A) (A) (A) (A) (A) (A) (A) (A) (A) (A)
                 (A) (A) (A) (A) (A) (A) (A) (A) (A) (A) (A) (A)
                 (A) (A) (A) (A) (A) (A) (A) (A) (A) (A) (A) (A)
                 (A) (A) (A) (A) (A) (A) (A) (A) (A) (A) (A) (A)
                 (A) (A) (A) (A) (A) (A) (A) (A) (A) (A) (A) (A)
                 (A) (A) (A) (A) (A) (A) (A)
 The electronic state is 5-A.
 Alpha  occ. eigenvalues -- -256.16985 -30.06410 -25.90967 -25.88937 -25.88703
 Alpha  occ. eigenvalues --  -19.16429 -14.42592 -14.36011 -14.33170 -14.32902
 Alpha  occ. eigenvalues --  -14.32796 -14.32737 -10.25808 -10.23909 -10.21160
 Alpha  occ. eigenvalues --  -10.21113 -10.21049 -10.21015 -10.20871 -10.20829
 Alpha  occ. eigenvalues --  -10.20721 -10.20709 -10.20625 -10.20576 -10.19594
 Alpha  occ. eigenvalues --  -10.19546 -10.18899 -10.18881 -10.18833 -10.18798
 Alpha  occ. eigenvalues --  -10.18765 -10.18746 -10.18738 -10.18713 -10.18632
 Alpha  occ. eigenvalues --  -10.18595 -10.18432 -10.18381 -10.18302 -10.18262
 Alpha  occ. eigenvalues --  -10.18233 -10.18200 -10.18189 -10.18187 -10.18182
 Alpha  occ. eigenvalues --  -10.18164  -3.52362  -2.32218  -2.27761  -2.27456
 Alpha  occ. eigenvalues --   -1.04821  -1.03281  -0.96207  -0.95307  -0.95133
 Alpha  occ. eigenvalues --   -0.94244  -0.90401  -0.81427  -0.81028  -0.80731
 Alpha  occ. eigenvalues --   -0.80199  -0.79883  -0.79744  -0.78818  -0.78735
 Alpha  occ. eigenvalues --   -0.76014  -0.74904  -0.73677  -0.73132  -0.72730
 Alpha  occ. eigenvalues --   -0.71340  -0.70256  -0.69380  -0.67844  -0.67510
 Alpha  occ. eigenvalues --   -0.67126  -0.64216  -0.63382  -0.63246  -0.60726
 Alpha  occ. eigenvalues --   -0.59874  -0.59294  -0.59097  -0.56925  -0.55964
 Alpha  occ. eigenvalues --   -0.55421  -0.53830  -0.52914  -0.52532  -0.51966
 Alpha  occ. eigenvalues --   -0.50377  -0.50240  -0.49738  -0.48261  -0.47348
 Alpha  occ. eigenvalues --   -0.47107  -0.46890  -0.46679  -0.44527  -0.44088
 Alpha  occ. eigenvalues --   -0.43873  -0.43844  -0.43426  -0.43099  -0.42999
 Alpha  occ. eigenvalues --   -0.42908  -0.42536  -0.42239  -0.42174  -0.41980
 Alpha  occ. eigenvalues --   -0.41811  -0.41594  -0.41433  -0.41087  -0.40934
 Alpha  occ. eigenvalues --   -0.40865  -0.40198  -0.39897  -0.39686  -0.39634
 Alpha  occ. eigenvalues --   -0.39020  -0.38772  -0.38690  -0.38326  -0.38036
 Alpha  occ. eigenvalues --   -0.37799  -0.37701  -0.37449  -0.37055  -0.36335
 Alpha  occ. eigenvalues --   -0.36209  -0.35928  -0.35589  -0.35407  -0.34839
 Alpha  occ. eigenvalues --   -0.33804  -0.33670  -0.32912  -0.32846  -0.32402
 Alpha  occ. eigenvalues --   -0.31546  -0.30613  -0.30108  -0.29752  -0.29358
 Alpha  occ. eigenvalues --   -0.28632  -0.28332  -0.27997  -0.26426  -0.25393
 Alpha  occ. eigenvalues --   -0.25203  -0.23025  -0.22234  -0.21411  -0.20449
 Alpha  occ. eigenvalues --   -0.20247  -0.19293  -0.16862  -0.16626  -0.15088
 Alpha virt. eigenvalues --   -0.05427  -0.05272  -0.00521   0.02388   0.02947
 Alpha virt. eigenvalues --    0.04173   0.07009   0.07470   0.07946   0.08648
 Alpha virt. eigenvalues --    0.09533   0.10305   0.10437   0.11194   0.11832
 Alpha virt. eigenvalues --    0.12068   0.12610   0.12702   0.13321   0.14365
 Alpha virt. eigenvalues --    0.14585   0.15176   0.15597   0.15705   0.15920
 Alpha virt. eigenvalues --    0.16238   0.16301   0.16669   0.16989   0.17102
 Alpha virt. eigenvalues --    0.17800   0.18061   0.18180   0.18351   0.18415
 Alpha virt. eigenvalues --    0.18532   0.18814   0.19179   0.19456   0.19628
 Alpha virt. eigenvalues --    0.19734   0.19899   0.20217   0.20680   0.20896
 Alpha virt. eigenvalues --    0.21571   0.21873   0.22079   0.22346   0.22696
 Alpha virt. eigenvalues --    0.23180   0.23633   0.23964   0.24489   0.24983
 Alpha virt. eigenvalues --    0.25706   0.26270   0.26609   0.27130   0.27414
 Alpha virt. eigenvalues --    0.27612   0.28050   0.28304   0.28420   0.30462
 Alpha virt. eigenvalues --    0.31077   0.31798   0.31990   0.32643   0.33722
 Alpha virt. eigenvalues --    0.34011   0.34424   0.34925   0.35486   0.36673
 Alpha virt. eigenvalues --    0.36950   0.37385   0.37741   0.38109   0.39701
 Alpha virt. eigenvalues --    0.40426   0.41462   0.42673   0.43366   0.44484
 Alpha virt. eigenvalues --    0.44795   0.45254   0.45416   0.45998   0.47350
 Alpha virt. eigenvalues --    0.48800   0.48906   0.49583   0.50076   0.50292
 Alpha virt. eigenvalues --    0.51113   0.51677   0.52020   0.52214   0.52780
 Alpha virt. eigenvalues --    0.53057   0.53354   0.53636   0.53813   0.54037
 Alpha virt. eigenvalues --    0.54171   0.54748   0.55323   0.55598   0.55871
 Alpha virt. eigenvalues --    0.56420   0.56766   0.56932   0.57475   0.58407
 Alpha virt. eigenvalues --    0.58956   0.59462   0.59598   0.60178   0.60598
 Alpha virt. eigenvalues --    0.60779   0.61450   0.61597   0.61743   0.61982
 Alpha virt. eigenvalues --    0.62782   0.63037   0.63925   0.64248   0.64642
 Alpha virt. eigenvalues --    0.64998   0.65463   0.65952   0.66195   0.66783
 Alpha virt. eigenvalues --    0.67019   0.67476   0.67607   0.67668   0.67823
 Alpha virt. eigenvalues --    0.68144   0.68462   0.68704   0.69221   0.69529
 Alpha virt. eigenvalues --    0.70113   0.70924   0.71222   0.71975   0.72034
 Alpha virt. eigenvalues --    0.72619   0.73227   0.73720   0.74558   0.74757
 Alpha virt. eigenvalues --    0.74895   0.75661   0.75857   0.76402   0.76909
 Alpha virt. eigenvalues --    0.77391   0.78283   0.78554   0.78731   0.78886
 Alpha virt. eigenvalues --    0.79335   0.79703   0.80288   0.80574   0.80831
 Alpha virt. eigenvalues --    0.81116   0.81830   0.82230   0.82548   0.83143
 Alpha virt. eigenvalues --    0.83992   0.84694   0.85133   0.85356   0.86016
 Alpha virt. eigenvalues --    0.86982   0.87187   0.87500   0.87725   0.88114
 Alpha virt. eigenvalues --    0.88217   0.88591   0.88930   0.88989   0.89613
 Alpha virt. eigenvalues --    0.90004   0.90197   0.90768   0.90897   0.91625
 Alpha virt. eigenvalues --    0.91810   0.92271   0.92561   0.92999   0.93527
 Alpha virt. eigenvalues --    0.93730   0.94103   0.94375   0.94515   0.94986
 Alpha virt. eigenvalues --    0.95527   0.96299   0.97119   0.97191   0.97403
 Alpha virt. eigenvalues --    0.97906   0.98225   0.98831   0.99109   0.99365
 Alpha virt. eigenvalues --    0.99941   1.00144   1.00417   1.00793   1.01083
 Alpha virt. eigenvalues --    1.01239   1.01394   1.01758   1.02405   1.03123
 Alpha virt. eigenvalues --    1.03661   1.04812   1.05353   1.05437   1.05635
 Alpha virt. eigenvalues --    1.06751   1.06868   1.07406   1.07829   1.08866
 Alpha virt. eigenvalues --    1.09854   1.10007   1.10235   1.11918   1.12029
 Alpha virt. eigenvalues --    1.12551   1.14503   1.15204   1.15994   1.17002
 Alpha virt. eigenvalues --    1.17839   1.18025   1.18456   1.18790   1.19124
 Alpha virt. eigenvalues --    1.19801   1.20342   1.20840   1.21705   1.21853
 Alpha virt. eigenvalues --    1.22269   1.22578   1.23640   1.23888   1.24359
 Alpha virt. eigenvalues --    1.25660   1.26466   1.26958   1.27892   1.28987
 Alpha virt. eigenvalues --    1.29275   1.29727   1.30368   1.31054   1.31270
 Alpha virt. eigenvalues --    1.32336   1.32899   1.33992   1.34600   1.34896
 Alpha virt. eigenvalues --    1.35179   1.36449   1.37103   1.38003   1.38878
 Alpha virt. eigenvalues --    1.39234   1.39426   1.39783   1.40032   1.40579
 Alpha virt. eigenvalues --    1.40828   1.41056   1.41968   1.42277   1.44102
 Alpha virt. eigenvalues --    1.44725   1.45538   1.46357   1.46723   1.47174
 Alpha virt. eigenvalues --    1.47934   1.48364   1.49189   1.49983   1.50536
 Alpha virt. eigenvalues --    1.52000   1.53792   1.53888   1.54300   1.55110
 Alpha virt. eigenvalues --    1.55304   1.55777   1.56156   1.56753   1.57992
 Alpha virt. eigenvalues --    1.59476   1.59996   1.60558   1.61410   1.63077
 Alpha virt. eigenvalues --    1.63587   1.64365   1.65123   1.65457   1.66684
 Alpha virt. eigenvalues --    1.68615   1.69179   1.70657   1.70777   1.71286
 Alpha virt. eigenvalues --    1.71779   1.73469   1.73738   1.75464   1.76527
 Alpha virt. eigenvalues --    1.76986   1.79885   1.80616   1.80729   1.81846
 Alpha virt. eigenvalues --    1.82471   1.83047   1.83135   1.83202   1.84294
 Alpha virt. eigenvalues --    1.84340   1.84744   1.85390   1.85992   1.86448
 Alpha virt. eigenvalues --    1.87360   1.88140   1.88558   1.89021   1.89343
 Alpha virt. eigenvalues --    1.89788   1.90211   1.91169   1.91653   1.92687
 Alpha virt. eigenvalues --    1.92878   1.94085   1.94548   1.95659   1.95817
 Alpha virt. eigenvalues --    1.96630   1.97320   1.97429   1.97958   1.98948
 Alpha virt. eigenvalues --    1.99816   2.00317   2.00659   2.01302   2.01642
 Alpha virt. eigenvalues --    2.02341   2.02862   2.03656   2.05081   2.05842
 Alpha virt. eigenvalues --    2.06371   2.07011   2.07116   2.07937   2.08465
 Alpha virt. eigenvalues --    2.09246   2.09441   2.09901   2.11502   2.11806
 Alpha virt. eigenvalues --    2.12704   2.13506   2.13871   2.14322   2.15569
 Alpha virt. eigenvalues --    2.16101   2.16963   2.17124   2.17690   2.18038
 Alpha virt. eigenvalues --    2.19977   2.20990   2.22071   2.22421   2.22956
 Alpha virt. eigenvalues --    2.23355   2.24220   2.24582   2.25233   2.25450
 Alpha virt. eigenvalues --    2.26808   2.27275   2.27631   2.27861   2.28334
 Alpha virt. eigenvalues --    2.28645   2.28977   2.30045   2.30403   2.31076
 Alpha virt. eigenvalues --    2.31614   2.31907   2.32615   2.33168   2.33529
 Alpha virt. eigenvalues --    2.33910   2.34389   2.36071   2.36210   2.36945
 Alpha virt. eigenvalues --    2.37198   2.37445   2.38026   2.39003   2.39276
 Alpha virt. eigenvalues --    2.39472   2.40478   2.40568   2.41517   2.42263
 Alpha virt. eigenvalues --    2.42343   2.43554   2.44047   2.44230   2.44379
 Alpha virt. eigenvalues --    2.45331   2.45625   2.46163   2.46478   2.47688
 Alpha virt. eigenvalues --    2.49347   2.49900   2.51479   2.52951   2.54111
 Alpha virt. eigenvalues --    2.54568   2.54609   2.54887   2.55608   2.56945
 Alpha virt. eigenvalues --    2.57766   2.58244   2.58523   2.58857   2.59785
 Alpha virt. eigenvalues --    2.61331   2.61983   2.62377   2.62597   2.64606
 Alpha virt. eigenvalues --    2.66683   2.67122   2.68083   2.70324   2.71122
 Alpha virt. eigenvalues --    2.71482   2.72516   2.73244   2.73508   2.76067
 Alpha virt. eigenvalues --    2.77236   2.78069   2.79918   2.81108   2.81531
 Alpha virt. eigenvalues --    2.82050   2.82993   2.89300   2.89694   2.90589
 Alpha virt. eigenvalues --    2.91318   2.93970   2.94096   2.95271   2.97913
 Alpha virt. eigenvalues --    2.98858   2.99088   3.01269   3.01446   3.02481
 Alpha virt. eigenvalues --    3.03443   3.06534   3.07060   3.07556   3.09209
 Alpha virt. eigenvalues --    3.14906   3.15864   3.16562   3.22336   3.24708
 Alpha virt. eigenvalues --    3.27285   3.31720   3.32136   3.41198   3.41505
 Alpha virt. eigenvalues --    3.42643   3.48952   3.49191   3.61555   3.68937
 Alpha virt. eigenvalues --    3.85881   3.89223   4.15861   4.24027
  Beta  occ. eigenvalues -- -256.16848 -29.98041 -25.83136 -25.82346 -25.82152
  Beta  occ. eigenvalues --  -19.16311 -14.42582 -14.35818 -14.32971 -14.32703
  Beta  occ. eigenvalues --  -14.32622 -14.32563 -10.25804 -10.23902 -10.21153
  Beta  occ. eigenvalues --  -10.21112 -10.21039 -10.20999 -10.20873 -10.20815
  Beta  occ. eigenvalues --  -10.20757 -10.20749 -10.20663 -10.20609 -10.19597
  Beta  occ. eigenvalues --  -10.19536 -10.18895 -10.18862 -10.18809 -10.18797
  Beta  occ. eigenvalues --  -10.18763 -10.18762 -10.18758 -10.18694 -10.18632
  Beta  occ. eigenvalues --  -10.18605 -10.18454 -10.18359 -10.18290 -10.18282
  Beta  occ. eigenvalues --  -10.18226 -10.18219 -10.18200 -10.18182 -10.18178
  Beta  occ. eigenvalues --  -10.18178  -3.32386  -2.08101  -2.07860  -2.07536
  Beta  occ. eigenvalues --   -1.04726  -1.03099  -0.96018  -0.95110  -0.94969
  Beta  occ. eigenvalues --   -0.94053  -0.90210  -0.81447  -0.80975  -0.80688
  Beta  occ. eigenvalues --   -0.80130  -0.79809  -0.79720  -0.78830  -0.78731
  Beta  occ. eigenvalues --   -0.76005  -0.74885  -0.73669  -0.73138  -0.72729
  Beta  occ. eigenvalues --   -0.71295  -0.70218  -0.69323  -0.67751  -0.67405
  Beta  occ. eigenvalues --   -0.67113  -0.64051  -0.63347  -0.63283  -0.60672
  Beta  occ. eigenvalues --   -0.59832  -0.59242  -0.58988  -0.56905  -0.55791
  Beta  occ. eigenvalues --   -0.55337  -0.53787  -0.52854  -0.52474  -0.51741
  Beta  occ. eigenvalues --   -0.50267  -0.50156  -0.49650  -0.47914  -0.47193
  Beta  occ. eigenvalues --   -0.47043  -0.46684  -0.46518  -0.44239  -0.44038
  Beta  occ. eigenvalues --   -0.43825  -0.43627  -0.43373  -0.42970  -0.42855
  Beta  occ. eigenvalues --   -0.42744  -0.42410  -0.42222  -0.42065  -0.41847
  Beta  occ. eigenvalues --   -0.41751  -0.41575  -0.41196  -0.41081  -0.40944
  Beta  occ. eigenvalues --   -0.40816  -0.39609  -0.39554  -0.39414  -0.39365
  Beta  occ. eigenvalues --   -0.38993  -0.38299  -0.38271  -0.38001  -0.37689
  Beta  occ. eigenvalues --   -0.37498  -0.37028  -0.36741  -0.36206  -0.36114
  Beta  occ. eigenvalues --   -0.35492  -0.35011  -0.34696  -0.34378  -0.33630
  Beta  occ. eigenvalues --   -0.33246  -0.32898  -0.32314  -0.31397  -0.30796
  Beta  occ. eigenvalues --   -0.30585  -0.29518  -0.29201  -0.28691  -0.28073
  Beta  occ. eigenvalues --   -0.27500  -0.25716  -0.25464  -0.23280  -0.22617
  Beta  occ. eigenvalues --   -0.21668  -0.21331  -0.20684  -0.17201  -0.16912
  Beta  occ. eigenvalues --   -0.12677
  Beta virt. eigenvalues --   -0.06036  -0.04598  -0.00634   0.00709   0.01257
  Beta virt. eigenvalues --    0.02634   0.03875   0.04188   0.06443   0.07423
  Beta virt. eigenvalues --    0.07997   0.08503   0.09367   0.09796   0.10295
  Beta virt. eigenvalues --    0.10569   0.11099   0.11410   0.11882   0.12088
  Beta virt. eigenvalues --    0.12669   0.12749   0.13327   0.14419   0.14598
  Beta virt. eigenvalues --    0.15217   0.15587   0.15770   0.16005   0.16257
  Beta virt. eigenvalues --    0.16334   0.16691   0.17010   0.17190   0.17833
  Beta virt. eigenvalues --    0.18123   0.18251   0.18375   0.18422   0.18604
  Beta virt. eigenvalues --    0.18900   0.19299   0.19509   0.19668   0.19789
  Beta virt. eigenvalues --    0.19941   0.20259   0.20720   0.20915   0.21578
  Beta virt. eigenvalues --    0.21904   0.22083   0.22342   0.22790   0.23268
  Beta virt. eigenvalues --    0.23687   0.24190   0.24610   0.25069   0.25812
  Beta virt. eigenvalues --    0.26413   0.26680   0.27170   0.27560   0.27655
  Beta virt. eigenvalues --    0.28071   0.28499   0.28622   0.30526   0.31588
  Beta virt. eigenvalues --    0.32067   0.33092   0.33242   0.33946   0.34366
  Beta virt. eigenvalues --    0.35052   0.35867   0.35958   0.36840   0.37191
  Beta virt. eigenvalues --    0.37679   0.37825   0.38185   0.39922   0.40582
  Beta virt. eigenvalues --    0.42051   0.42924   0.43539   0.44780   0.45118
  Beta virt. eigenvalues --    0.45390   0.45535   0.46157   0.48562   0.48931
  Beta virt. eigenvalues --    0.49033   0.49851   0.50490   0.50639   0.51474
  Beta virt. eigenvalues --    0.51969   0.52241   0.52373   0.52956   0.53108
  Beta virt. eigenvalues --    0.53397   0.53715   0.53955   0.54184   0.54226
  Beta virt. eigenvalues --    0.54985   0.55447   0.55674   0.55893   0.56456
  Beta virt. eigenvalues --    0.56904   0.57068   0.57845   0.58510   0.58987
  Beta virt. eigenvalues --    0.59550   0.59643   0.60232   0.60683   0.60790
  Beta virt. eigenvalues --    0.61458   0.61642   0.61848   0.62031   0.62801
  Beta virt. eigenvalues --    0.63124   0.63964   0.64259   0.64617   0.65025
  Beta virt. eigenvalues --    0.65558   0.66068   0.66212   0.66993   0.67083
  Beta virt. eigenvalues --    0.67523   0.67675   0.67858   0.68206   0.68333
  Beta virt. eigenvalues --    0.68629   0.68914   0.69261   0.69633   0.70285
  Beta virt. eigenvalues --    0.70974   0.71393   0.72015   0.72114   0.72710
  Beta virt. eigenvalues --    0.73532   0.73953   0.74795   0.75170   0.75346
  Beta virt. eigenvalues --    0.75796   0.75947   0.76516   0.76974   0.77458
  Beta virt. eigenvalues --    0.78350   0.78632   0.78779   0.78992   0.79383
  Beta virt. eigenvalues --    0.79858   0.80436   0.80816   0.80926   0.81680
  Beta virt. eigenvalues --    0.81936   0.82468   0.83011   0.83299   0.83990
  Beta virt. eigenvalues --    0.84689   0.85108   0.85423   0.86152   0.87052
  Beta virt. eigenvalues --    0.87213   0.87553   0.87798   0.88162   0.88308
  Beta virt. eigenvalues --    0.88657   0.88975   0.89031   0.89805   0.90062
  Beta virt. eigenvalues --    0.90363   0.90835   0.91004   0.91751   0.92003
  Beta virt. eigenvalues --    0.92361   0.92624   0.93107   0.93719   0.93822
  Beta virt. eigenvalues --    0.94176   0.94455   0.94585   0.95078   0.95624
  Beta virt. eigenvalues --    0.96376   0.97228   0.97281   0.97561   0.98110
  Beta virt. eigenvalues --    0.98624   0.98940   0.99321   0.99684   1.00203
  Beta virt. eigenvalues --    1.00421   1.00652   1.01122   1.01227   1.01407
  Beta virt. eigenvalues --    1.01523   1.01936   1.02582   1.03438   1.03742
  Beta virt. eigenvalues --    1.05011   1.05453   1.05588   1.05760   1.07001
  Beta virt. eigenvalues --    1.07169   1.07711   1.08006   1.09040   1.10105
  Beta virt. eigenvalues --    1.10220   1.10587   1.12064   1.12309   1.12661
  Beta virt. eigenvalues --    1.15337   1.16042   1.16190   1.17266   1.17955
  Beta virt. eigenvalues --    1.18353   1.18739   1.19130   1.19624   1.20011
  Beta virt. eigenvalues --    1.20568   1.21599   1.21968   1.22228   1.22669
  Beta virt. eigenvalues --    1.23317   1.23852   1.24099   1.24601   1.26237
  Beta virt. eigenvalues --    1.26859   1.27838   1.28683   1.29198   1.29745
  Beta virt. eigenvalues --    1.30116   1.30646   1.31184   1.31536   1.32403
  Beta virt. eigenvalues --    1.32933   1.34069   1.34812   1.35008   1.35320
  Beta virt. eigenvalues --    1.36776   1.37358   1.38037   1.38894   1.39275
  Beta virt. eigenvalues --    1.39449   1.39800   1.40127   1.40629   1.40933
  Beta virt. eigenvalues --    1.41156   1.42266   1.42692   1.44166   1.45159
  Beta virt. eigenvalues --    1.45632   1.46421   1.46957   1.47301   1.47992
  Beta virt. eigenvalues --    1.48440   1.49355   1.50099   1.50726   1.52411
  Beta virt. eigenvalues --    1.53988   1.54046   1.54630   1.55167   1.55425
  Beta virt. eigenvalues --    1.55843   1.56340   1.56847   1.58201   1.59789
  Beta virt. eigenvalues --    1.60085   1.60688   1.61674   1.63298   1.63760
  Beta virt. eigenvalues --    1.64569   1.65220   1.65912   1.66833   1.68774
  Beta virt. eigenvalues --    1.69568   1.70719   1.70894   1.71335   1.71883
  Beta virt. eigenvalues --    1.73650   1.73835   1.75915   1.76700   1.77085
  Beta virt. eigenvalues --    1.80008   1.80647   1.80736   1.81870   1.82535
  Beta virt. eigenvalues --    1.83079   1.83221   1.83351   1.84335   1.84534
  Beta virt. eigenvalues --    1.84796   1.85463   1.86198   1.86598   1.87518
  Beta virt. eigenvalues --    1.88215   1.88612   1.89095   1.89390   1.89859
  Beta virt. eigenvalues --    1.90274   1.91336   1.91687   1.92830   1.92978
  Beta virt. eigenvalues --    1.94246   1.94661   1.95761   1.96086   1.96816
  Beta virt. eigenvalues --    1.97481   1.97785   1.98084   1.99406   2.00040
  Beta virt. eigenvalues --    2.00459   2.01037   2.01696   2.02519   2.02693
  Beta virt. eigenvalues --    2.03408   2.04144   2.05395   2.05939   2.06580
  Beta virt. eigenvalues --    2.07098   2.07300   2.08343   2.08671   2.09474
  Beta virt. eigenvalues --    2.09566   2.10509   2.11680   2.12563   2.13001
  Beta virt. eigenvalues --    2.13602   2.13991   2.14607   2.15659   2.16601
  Beta virt. eigenvalues --    2.16968   2.17204   2.17765   2.18103   2.20121
  Beta virt. eigenvalues --    2.21284   2.22126   2.23058   2.23182   2.24027
  Beta virt. eigenvalues --    2.24439   2.24957   2.25317   2.26021   2.26995
  Beta virt. eigenvalues --    2.27525   2.27764   2.28177   2.28409   2.28940
  Beta virt. eigenvalues --    2.29208   2.30155   2.30438   2.31303   2.31819
  Beta virt. eigenvalues --    2.31995   2.32775   2.33447   2.33975   2.34436
  Beta virt. eigenvalues --    2.35605   2.36494   2.36522   2.36952   2.37518
  Beta virt. eigenvalues --    2.37801   2.38257   2.39265   2.39401   2.39600
  Beta virt. eigenvalues --    2.40933   2.41054   2.41611   2.42349   2.42540
  Beta virt. eigenvalues --    2.44067   2.44269   2.44342   2.44559   2.45430
  Beta virt. eigenvalues --    2.45988   2.46340   2.47217   2.48311   2.49423
  Beta virt. eigenvalues --    2.50320   2.52399   2.53480   2.54380   2.54726
  Beta virt. eigenvalues --    2.55150   2.55659   2.56337   2.57191   2.57994
  Beta virt. eigenvalues --    2.58299   2.58779   2.59437   2.60966   2.61485
  Beta virt. eigenvalues --    2.62047   2.62452   2.63365   2.64641   2.66877
  Beta virt. eigenvalues --    2.67192   2.68101   2.70513   2.71355   2.71654
  Beta virt. eigenvalues --    2.72810   2.73434   2.73674   2.76186   2.77549
  Beta virt. eigenvalues --    2.78256   2.80107   2.81149   2.81666   2.82358
  Beta virt. eigenvalues --    2.83096   2.89433   2.89834   2.90734   2.91485
  Beta virt. eigenvalues --    2.94100   2.94254   2.95457   2.98065   2.98947
  Beta virt. eigenvalues --    2.99190   3.01320   3.01501   3.02477   3.03850
  Beta virt. eigenvalues --    3.06882   3.07422   3.07724   3.09510   3.15083
  Beta virt. eigenvalues --    3.16053   3.16618   3.22407   3.24837   3.27873
  Beta virt. eigenvalues --    3.31758   3.32169   3.41288   3.41573   3.43364
  Beta virt. eigenvalues --    3.49119   3.49364   3.73425   3.77196   3.94595
  Beta virt. eigenvalues --    4.00389   4.27039   4.34593
          Condensed to atoms (all electrons):
          Atomic-Atomic Spin Densities.
 Mulliken charges and spin densities:
               1          2
     1  Fe   1.059641   3.876834
     2  N   -0.711222   0.050206
     3  N   -0.705816   0.038064
     4  N   -0.692298   0.049460
     5  N   -0.722207   0.040527
     6  C    0.288762   0.000741
     7  C    0.027389  -0.015770
     8  C    0.030981   0.015077
     9  C    0.300192  -0.031161
    10  C    0.314861  -0.031103
    11  C    0.032939   0.015022
    12  C   -0.011169  -0.016706
    13  C    0.317805   0.006314
    14  C    0.298984   0.005201
    15  C    0.032045  -0.015342
    16  C   -0.010421   0.015408
    17  C    0.315563  -0.032081
    18  C    0.320744  -0.029318
    19  C    0.030776   0.015200
    20  C    0.026012  -0.013360
    21  C    0.310548   0.000588
    22  C   -0.335958  -0.014790
    23  H    0.158051   0.000930
    24  C   -0.317138   0.010582
    25  H    0.159913  -0.000125
    26  C   -0.324469  -0.020667
    27  H    0.162428   0.001212
    28  C   -0.312884   0.005163
    29  H    0.159769   0.000140
    30  C   -0.608383  -0.000349
    31  H    0.181001   0.000395
    32  H    0.187513   0.000060
    33  H    0.188325   0.000006
    34  C   -0.606600   0.002182
    35  H    0.182321  -0.001263
    36  H    0.186904  -0.001211
    37  H    0.182017   0.000279
    38  C   -0.611701  -0.000569
    39  H    0.185040   0.000378
    40  H    0.181938   0.000457
    41  H    0.193647   0.000388
    42  C   -0.146742   0.007282
    43  H    0.163337  -0.000647
    44  C   -0.405672  -0.010904
    45  H    0.171484   0.000548
    46  H    0.162744   0.000696
    47  C   -0.610198   0.002056
    48  H    0.184349  -0.000963
    49  H    0.181805  -0.000871
    50  H    0.192992   0.000073
    51  C   -0.145154  -0.003193
    52  H    0.163170   0.000178
    53  C   -0.403982   0.004417
    54  H    0.171995  -0.000223
    55  H    0.162672  -0.000141
    56  C   -0.609242  -0.000460
    57  H    0.189062   0.000447
    58  H    0.188875   0.000432
    59  H    0.180643   0.000437
    60  C   -0.607340   0.001883
    61  H    0.181905   0.000334
    62  H    0.188047  -0.000780
    63  H    0.182012  -0.000676
    64  O   -0.822202   0.013215
    65  H    0.459101   0.002255
    66  H    0.442590   0.003939
    67  C   -0.601419   0.000655
    68  H    0.192697   0.000178
    69  H    0.191971   0.000076
    70  H    0.210563   0.000053
    71  N   -0.636992   0.002545
    72  H    0.361092   0.002149
    73  C    0.272113   0.003401
    74  C    0.244224  -0.000607
    75  H    0.216377   0.001315
    76  N   -0.471158   0.045612
    77  C   -0.040360  -0.003314
    78  H    0.198796   0.001598
 Sum of Mulliken charges =  -0.00000   4.00000
 Mulliken charges and spin densities with hydrogens summed into heavy atoms:
               1          2
     1  Fe   1.059641   3.876834
     2  N   -0.711222   0.050206
     3  N   -0.705816   0.038064
     4  N   -0.692298   0.049460
     5  N   -0.722207   0.040527
     6  C    0.288762   0.000741
     7  C    0.027389  -0.015770
     8  C    0.030981   0.015077
     9  C    0.300192  -0.031161
    10  C    0.314861  -0.031103
    11  C    0.032939   0.015022
    12  C   -0.011169  -0.016706
    13  C    0.317805   0.006314
    14  C    0.298984   0.005201
    15  C    0.032045  -0.015342
    16  C   -0.010421   0.015408
    17  C    0.315563  -0.032081
    18  C    0.320744  -0.029318
    19  C    0.030776   0.015200
    20  C    0.026012  -0.013360
    21  C    0.310548   0.000588
    22  C   -0.177908  -0.013860
    24  C   -0.157225   0.010457
    26  C   -0.162040  -0.019455
    28  C   -0.153115   0.005303
    30  C   -0.051544   0.000113
    34  C   -0.055357  -0.000012
    38  C   -0.051075   0.000654
    42  C    0.016596   0.006635
    44  C   -0.071443  -0.009659
    47  C   -0.051052   0.000295
    51  C    0.018016  -0.003015
    53  C   -0.069314   0.004053
    56  C   -0.050662   0.000856
    60  C   -0.055376   0.000760
    64  O    0.079489   0.019409
    67  C   -0.006188   0.000963
    71  N   -0.275900   0.004694
    73  C    0.272113   0.003401
    74  C    0.460601   0.000708
    76  N   -0.471158   0.045612
    77  C    0.158436  -0.001716
 Electronic spatial extent (au):  <R**2>=          19990.3460
 Charge=             -0.0000 electrons
 Dipole moment (field-independent basis, Debye):
    X=              2.3172    Y=             -0.0425    Z=              3.4728  Tot=              4.1752
 Quadrupole moment (field-independent basis, Debye-Ang):
   XX=           -235.2792   YY=           -242.0235   ZZ=           -219.2856
   XY=             -0.5024   XZ=              1.4749   YZ=             -0.0946
 Traceless Quadrupole moment (field-independent basis, Debye-Ang):
   XX=             -3.0831   YY=             -9.8274   ZZ=             12.9105
   XY=             -0.5024   XZ=              1.4749   YZ=             -0.0946
 Octapole moment (field-independent basis, Debye-Ang**2):
  XXX=             31.4085  YYY=              0.4169  ZZZ=             95.0197  XYY=             27.9158
  XXY=             -0.4498  XXZ=             12.8486  XZZ=             32.7336  YZZ=              5.9935
  YYZ=            -12.0998  XYZ=              2.7224
 Hexadecapole moment (field-independent basis, Debye-Ang**3):
 XXXX=         -11643.9091 YYYY=         -11414.1831 ZZZZ=          -2591.6944 XXXY=             24.6559
 XXXZ=              0.6827 YYYX=            -19.6149 YYYZ=            -85.6834 ZZZX=             46.1327
 ZZZY=             27.7091 XXYY=          -3905.1096 XXZZ=          -2551.4617 YYZZ=          -2625.9490
 XXYZ=             35.6142 YYXZ=            -59.9066 ZZXY=             -1.2502
 N-N= 5.963813400252D+03 E-N=-1.894087151074D+04  KE= 2.973429392111D+03
                          Isotropic Fermi Contact Couplings
        Atom                 a.u.       MegaHertz       Gauss      10(-4) cm-1
     1  Fe(57)             0.40503      14.68654       5.24052       4.89890
     2  N(14)              0.09943       8.03166       2.86590       2.67907
     3  N(14)              0.09889       7.98792       2.85029       2.66448
     4  N(14)              0.10296       8.31635       2.96748       2.77403
     5  N(14)              0.09725       7.85508       2.80289       2.62017
     6  C(13)              0.00521       1.46378       0.52231       0.48826
     7  C(13)              0.00107       0.30047       0.10721       0.10023
     8  C(13)              0.00606       1.70206       0.60734       0.56775
     9  C(13)              0.00133       0.37373       0.13336       0.12466
    10  C(13)              0.00052       0.14663       0.05232       0.04891
    11  C(13)              0.00610       1.71473       0.61186       0.57197
    12  C(13)              0.00081       0.22776       0.08127       0.07597
    13  C(13)              0.00671       1.88659       0.67318       0.62930
    14  C(13)              0.00640       1.80002       0.64229       0.60042
    15  C(13)              0.00099       0.27720       0.09891       0.09246
    16  C(13)              0.00595       1.67275       0.59688       0.55797
    17  C(13)              0.00020       0.05489       0.01959       0.01831
    18  C(13)              0.00197       0.55251       0.19715       0.18430
    19  C(13)              0.00619       1.74052       0.62106       0.58058
    20  C(13)              0.00159       0.44610       0.15918       0.14880
    21  C(13)              0.00603       1.69344       0.60426       0.56487
    22  C(13)             -0.00175      -0.49183      -0.17550      -0.16406
    23  H(1)               0.00029       0.32422       0.11569       0.10815
    24  C(13)              0.00218       0.61330       0.21884       0.20457
    25  H(1)              -0.00005      -0.05206      -0.01858      -0.01736
    26  C(13)             -0.00274      -0.77088      -0.27507      -0.25714
    27  H(1)               0.00036       0.40338       0.14394       0.13455
    28  C(13)              0.00142       0.39908       0.14240       0.13312
    29  H(1)               0.00003       0.03578       0.01277       0.01194
    30  C(13)              0.00044       0.12364       0.04412       0.04124
    31  H(1)               0.00012       0.13088       0.04670       0.04366
    32  H(1)               0.00019       0.21701       0.07743       0.07239
    33  H(1)               0.00017       0.19320       0.06894       0.06444
    34  C(13)              0.00131       0.36697       0.13094       0.12241
    35  H(1)              -0.00036      -0.40755      -0.14542      -0.13594
    36  H(1)              -0.00035      -0.38567      -0.13762      -0.12865
    37  H(1)               0.00008       0.08472       0.03023       0.02826
    38  C(13)              0.00022       0.06062       0.02163       0.02022
    39  H(1)               0.00017       0.18812       0.06713       0.06275
    40  H(1)               0.00015       0.16536       0.05901       0.05516
    41  H(1)               0.00009       0.10010       0.03572       0.03339
    42  C(13)              0.00188       0.52974       0.18902       0.17670
    43  H(1)              -0.00022      -0.24248      -0.08652      -0.08088
    44  C(13)             -0.00140      -0.39241      -0.14002      -0.13090
    45  H(1)               0.00018       0.19721       0.07037       0.06578
    46  H(1)               0.00021       0.23726       0.08466       0.07914
    47  C(13)              0.00115       0.32384       0.11556       0.10802
    48  H(1)              -0.00039      -0.43377      -0.15478      -0.14469
    49  H(1)              -0.00018      -0.20067      -0.07160      -0.06694
    50  H(1)              -0.00001      -0.00821      -0.00293      -0.00274
    51  C(13)             -0.00029      -0.08057      -0.02875      -0.02688
    52  H(1)               0.00013       0.14568       0.05198       0.04859
    53  C(13)              0.00096       0.27026       0.09644       0.09015
    54  H(1)              -0.00007      -0.08044      -0.02870      -0.02683
    55  H(1)              -0.00004      -0.04213      -0.01503      -0.01405
    56  C(13)              0.00035       0.09711       0.03465       0.03239
    57  H(1)               0.00016       0.18403       0.06567       0.06139
    58  H(1)               0.00015       0.16318       0.05823       0.05443
    59  H(1)               0.00013       0.14672       0.05235       0.04894
    60  C(13)              0.00116       0.32675       0.11659       0.10899
    61  H(1)               0.00009       0.10523       0.03755       0.03510
    62  H(1)              -0.00036      -0.40295      -0.14378      -0.13441
    63  H(1)              -0.00033      -0.37434      -0.13357      -0.12486
    64  O(17)              0.09114     -13.81240      -4.92861      -4.60732
    65  H(1)              -0.00020      -0.22590      -0.08061      -0.07535
    66  H(1)               0.00093       1.03769       0.37027       0.34614
    67  C(13)              0.00048       0.13629       0.04863       0.04546
    68  H(1)               0.00009       0.10359       0.03697       0.03456
    69  H(1)               0.00005       0.05240       0.01870       0.01748
    70  H(1)               0.00004       0.04540       0.01620       0.01514
    71  N(14)              0.00852       0.68842       0.24564       0.22963
    72  H(1)               0.00060       0.66805       0.23838       0.22284
    73  C(13)              0.00347       0.97384       0.34749       0.32484
    74  C(13)              0.00144       0.40372       0.14406       0.13467
    75  H(1)               0.00029       0.32729       0.11679       0.10917
    76  N(14)              0.11859       9.57913       3.41807       3.19525
    77  C(13)             -0.00108      -0.30340      -0.10826      -0.10120
    78  H(1)               0.00045       0.50206       0.17915       0.16747
 --------------------------------------------------------
       Center         ----  Spin Dipole Couplings  ----
                      3XX-RR        3YY-RR        3ZZ-RR
 --------------------------------------------------------
     1   Atom       -0.413225      1.395414     -0.982189
     2   Atom        0.066624      0.003359     -0.069982
     3   Atom        0.017031      0.079892     -0.096923
     4   Atom        0.068424     -0.000701     -0.067723
     5   Atom        0.018554      0.086318     -0.104872
     6   Atom        0.047685     -0.016795     -0.030890
     7   Atom        0.019767      0.009672     -0.029439
     8   Atom        0.000658      0.000943     -0.001601
     9   Atom        0.005312      0.054574     -0.059887
    10   Atom       -0.001337      0.061279     -0.059943
    11   Atom       -0.004921      0.005304     -0.000383
    12   Atom        0.014075      0.014650     -0.028725
    13   Atom        0.035100     -0.011101     -0.023999
    14   Atom        0.043823     -0.018849     -0.024974
    15   Atom        0.019718      0.008733     -0.028451
    16   Atom        0.000579      0.000592     -0.001171
    17   Atom        0.007908      0.053061     -0.060969
    18   Atom       -0.003434      0.064098     -0.060664
    19   Atom       -0.004460      0.005489     -0.001029
    20   Atom        0.013083      0.013458     -0.026541
    21   Atom        0.041603     -0.009058     -0.032546
    22   Atom        0.038871     -0.004866     -0.034005
    23   Atom        0.012526     -0.005795     -0.006732
    24   Atom       -0.015902      0.027786     -0.011884
    25   Atom       -0.006562      0.012986     -0.006424
    26   Atom        0.038943     -0.001403     -0.037540
    27   Atom        0.011524     -0.005164     -0.006360
    28   Atom       -0.013083      0.030638     -0.017555
    29   Atom       -0.006219      0.012666     -0.006447
    30   Atom       -0.000909      0.004321     -0.003412
    31   Atom        0.000770      0.001526     -0.002296
    32   Atom       -0.001104      0.003813     -0.002709
    33   Atom       -0.001290      0.003952     -0.002662
    34   Atom        0.005960     -0.002432     -0.003527
    35   Atom        0.004863     -0.002308     -0.002554
    36   Atom        0.004963     -0.002235     -0.002728
    37   Atom        0.002748     -0.000483     -0.002265
    38   Atom       -0.002399      0.006122     -0.003723
    39   Atom       -0.001881      0.004438     -0.002557
    40   Atom       -0.002616      0.005414     -0.002798
    41   Atom       -0.000876      0.003028     -0.002152
    42   Atom        0.002437     -0.001596     -0.000840
    43   Atom        0.004010     -0.001425     -0.002585
    44   Atom        0.006345     -0.000572     -0.005773
    45   Atom        0.001142      0.000760     -0.001902
    46   Atom        0.000725      0.000361     -0.001086
    47   Atom        0.005874     -0.002308     -0.003566
    48   Atom        0.004393     -0.001882     -0.002511
    49   Atom        0.005187     -0.002520     -0.002667
    50   Atom        0.002742     -0.000553     -0.002189
    51   Atom       -0.000317      0.005588     -0.005270
    52   Atom       -0.001442      0.004310     -0.002867
    53   Atom        0.001178     -0.000453     -0.000725
    54   Atom        0.001139      0.000519     -0.001658
    55   Atom       -0.000167      0.001621     -0.001454
    56   Atom       -0.002478      0.006315     -0.003837
    57   Atom       -0.002336      0.005227     -0.002891
    58   Atom       -0.002359      0.004887     -0.002528
    59   Atom       -0.000680      0.003029     -0.002350
    60   Atom        0.004702     -0.000672     -0.004030
    61   Atom        0.001765      0.000581     -0.002346
    62   Atom        0.003863     -0.001185     -0.002678
    63   Atom        0.003790     -0.001029     -0.002761
    64   Atom       -0.077033     -0.070111      0.147143
    65   Atom       -0.016769     -0.023065      0.039834
    66   Atom       -0.023547     -0.023116      0.046663
    67   Atom       -0.002538     -0.004081      0.006618
    68   Atom       -0.002082     -0.002366      0.004448
    69   Atom       -0.002169     -0.002449      0.004619
    70   Atom       -0.000735     -0.003269      0.004004
    71   Atom       -0.010580     -0.006662      0.017241
    72   Atom       -0.004104     -0.004907      0.009011
    73   Atom       -0.008320     -0.007232      0.015552
    74   Atom       -0.008583     -0.026526      0.035108
    75   Atom        0.002607     -0.018048      0.015440
    76   Atom       -0.120905     -0.108231      0.229136
    77   Atom       -0.004260     -0.025700      0.029959
    78   Atom        0.008610     -0.018447      0.009837
 --------------------------------------------------------
                        XY            XZ            YZ
 --------------------------------------------------------
     1   Atom        1.176724      0.131560      0.082051
     2   Atom       -0.159309     -0.002117     -0.001798
     3   Atom        0.161005      0.014638      0.019228
     4   Atom       -0.154875      0.014311     -0.012590
     5   Atom        0.169640     -0.013370     -0.014814
     6   Atom       -0.015457      0.003777      0.000119
     7   Atom       -0.012122      0.003692     -0.002769
     8   Atom       -0.013477      0.000514     -0.000728
     9   Atom       -0.025026      0.003827     -0.006857
    10   Atom        0.014281      0.004626      0.005625
    11   Atom        0.011872     -0.000788      0.000312
    12   Atom        0.012526      0.003885      0.003014
    13   Atom        0.025453      0.005247      0.001425
    14   Atom       -0.013888      0.001570     -0.002093
    15   Atom       -0.011996      0.000371      0.002167
    16   Atom       -0.013485     -0.000829     -0.000951
    17   Atom       -0.026119      0.003837     -0.000211
    18   Atom        0.014307      0.000478     -0.008844
    19   Atom        0.012364     -0.001493     -0.000269
    20   Atom        0.013254     -0.000574     -0.004029
    21   Atom        0.027271      0.000317     -0.000518
    22   Atom        0.004052      0.001523     -0.001169
    23   Atom        0.001485      0.000372      0.000008
    24   Atom       -0.004335     -0.000056      0.001189
    25   Atom       -0.002180     -0.000042      0.000145
    26   Atom        0.004185      0.007160     -0.000049
    27   Atom        0.001403      0.001129      0.000043
    28   Atom       -0.005219      0.001168     -0.003558
    29   Atom       -0.002500      0.000134     -0.000956
    30   Atom       -0.004929      0.000129     -0.000262
    31   Atom       -0.003400      0.000200     -0.000213
    32   Atom       -0.003512     -0.000443      0.001054
    33   Atom       -0.003417      0.000602     -0.001455
    34   Atom       -0.003543      0.000505     -0.000158
    35   Atom       -0.002321      0.001586     -0.000391
    36   Atom       -0.002357     -0.000906      0.000210
    37   Atom       -0.002797      0.000268     -0.000150
    38   Atom        0.003324      0.000187      0.000689
    39   Atom        0.002499     -0.000241     -0.000780
    40   Atom        0.001894      0.000332      0.001591
    41   Atom        0.002965      0.000519      0.000830
    42   Atom        0.003506     -0.000460      0.003374
    43   Atom        0.003009      0.001564      0.000667
    44   Atom        0.004539      0.001717     -0.007672
    45   Atom        0.003274     -0.000661     -0.000183
    46   Atom        0.001754     -0.000089     -0.000307
    47   Atom       -0.003492      0.000598     -0.000067
    48   Atom       -0.002467     -0.000834      0.000228
    49   Atom       -0.001959      0.001446     -0.000293
    50   Atom       -0.002743      0.000581     -0.000339
    51   Atom       -0.005241     -0.001722     -0.000396
    52   Atom       -0.003425      0.000443     -0.001001
    53   Atom       -0.002614      0.002740      0.000864
    54   Atom       -0.002599     -0.000688      0.000368
    55   Atom       -0.001967      0.000020      0.000134
    56   Atom        0.003348     -0.000260     -0.000812
    57   Atom        0.002160      0.000135      0.000718
    58   Atom        0.002187     -0.000476     -0.001945
    59   Atom        0.003007     -0.000229     -0.000418
    60   Atom        0.004789     -0.000211     -0.000158
    61   Atom        0.003321     -0.000171     -0.000154
    62   Atom        0.003468     -0.001339     -0.000650
    63   Atom        0.003584      0.000999      0.000507
    64   Atom        0.009124     -0.041308      0.032605
    65   Atom       -0.014321     -0.031758      0.025186
    66   Atom       -0.002406      0.005351     -0.008316
    67   Atom       -0.000057     -0.003826      0.000157
    68   Atom       -0.000322     -0.002014      0.001266
    69   Atom        0.000232     -0.001843     -0.001045
    70   Atom        0.000037     -0.004112     -0.000039
    71   Atom        0.001911      0.001813     -0.001359
    72   Atom        0.000301      0.003134      0.000716
    73   Atom        0.000446     -0.004777      0.001410
    74   Atom       -0.003472      0.023039     -0.002810
    75   Atom        0.002051      0.026035      0.002899
    76   Atom       -0.002972     -0.017859      0.009746
    77   Atom       -0.003190     -0.027273      0.004378
    78   Atom        0.000952     -0.027317     -0.001150
 --------------------------------------------------------


 ---------------------------------------------------------------------------------
              Anisotropic Spin Dipole Couplings in Principal Axis System
 ---------------------------------------------------------------------------------

       Atom             a.u.   MegaHertz   Gauss  10(-4) cm-1        Axes

              Baa    -1.0722   -18.563    -6.624    -6.192 -0.6571  0.2902  0.6957
     1 Fe(57) Bbb    -0.9088   -15.734    -5.614    -5.248  0.6102 -0.3371  0.7170
              Bcc     1.9810    34.297    12.238    11.440  0.4426  0.8956  0.0445
 
              Baa    -0.1276    -4.920    -1.755    -1.641  0.6339  0.7720  0.0474
     2 N(14)  Bbb    -0.0699    -2.694    -0.961    -0.899 -0.0287 -0.0378  0.9989
              Bcc     0.1974     7.614     2.717     2.540  0.7729 -0.6345 -0.0019
 
              Baa    -0.1156    -4.460    -1.591    -1.488  0.7682 -0.6379  0.0546
     3 N(14)  Bbb    -0.0987    -3.808    -1.359    -1.270 -0.0914 -0.0248  0.9955
              Bcc     0.2144     8.268     2.950     2.758  0.6337  0.7697  0.0773
 
              Baa    -0.1248    -4.815    -1.718    -1.606  0.6246  0.7808  0.0156
     4 N(14)  Bbb    -0.0691    -2.665    -0.951    -0.889 -0.0664  0.0332  0.9972
              Bcc     0.1939     7.480     2.669     2.495  0.7781 -0.6239  0.0726
 
              Baa    -0.1206    -4.652    -1.660    -1.552  0.7740 -0.6299  0.0646
     5 N(14)  Bbb    -0.1060    -4.089    -1.459    -1.364 -0.0120  0.0873  0.9961
              Bcc     0.2266     8.740     3.119     2.915  0.6331  0.7718 -0.0600
 
              Baa    -0.0311    -4.178    -1.491    -1.394 -0.0625 -0.0756  0.9952
     6 C(13)  Bbb    -0.0202    -2.714    -0.968    -0.905  0.2165  0.9724  0.0875
              Bcc     0.0514     6.892     2.459     2.299  0.9743 -0.2209  0.0444
 
              Baa    -0.0298    -4.000    -1.427    -1.334 -0.0618  0.0509  0.9968
     7 C(13)  Bbb     0.0016     0.213     0.076     0.071  0.5559  0.8312 -0.0080
              Bcc     0.0282     3.787     1.351     1.263  0.8289 -0.5537  0.0797
 
              Baa    -0.0127    -1.701    -0.607    -0.568  0.7105  0.7036  0.0132
     8 C(13)  Bbb    -0.0016    -0.221    -0.079    -0.074 -0.0482  0.0299  0.9984
              Bcc     0.0143     1.923     0.686     0.641 -0.7021  0.7100 -0.0551
 
              Baa    -0.0604    -8.103    -2.891    -2.703 -0.0387  0.0511  0.9979
     9 C(13)  Bbb    -0.0052    -0.692    -0.247    -0.231  0.9216  0.3879  0.0158
              Bcc     0.0655     8.795     3.138     2.934 -0.3863  0.9203 -0.0621
 
              Baa    -0.0605    -8.115    -2.896    -2.707 -0.0688 -0.0380  0.9969
    10 C(13)  Bbb    -0.0042    -0.569    -0.203    -0.190  0.9743 -0.2174  0.0590
              Bcc     0.0647     8.685     3.099     2.897  0.2145  0.9753  0.0520
 
              Baa    -0.0128    -1.716    -0.612    -0.572  0.8337 -0.5482  0.0667
    11 C(13)  Bbb    -0.0003    -0.044    -0.016    -0.015 -0.0487  0.0474  0.9977
              Bcc     0.0131     1.760     0.628     0.587  0.5501  0.8350 -0.0128
 
              Baa    -0.0292    -3.913    -1.396    -1.305 -0.0759 -0.0468  0.9960
    12 C(13)  Bbb     0.0018     0.248     0.088     0.083  0.7121 -0.7017  0.0213
              Bcc     0.0273     3.665     1.308     1.223  0.6979  0.7109  0.0866
 
              Baa    -0.0247    -3.314    -1.183    -1.105 -0.1998  0.2754  0.9403
    13 C(13)  Bbb    -0.0221    -2.963    -1.057    -0.989 -0.3581  0.8728 -0.3317
              Bcc     0.0468     6.278     2.240     2.094  0.9121  0.4030  0.0757
 
              Baa    -0.0258    -3.458    -1.234    -1.154  0.0578  0.3933  0.9176
    14 C(13)  Bbb    -0.0210    -2.824    -1.008    -0.942  0.2014  0.8957 -0.3965
              Bcc     0.0468     6.282     2.242     2.096  0.9778 -0.2077  0.0274
 
              Baa    -0.0286    -3.838    -1.370    -1.280 -0.0239 -0.0656  0.9976
    15 C(13)  Bbb     0.0012     0.157     0.056     0.052  0.5408  0.8384  0.0681
              Bcc     0.0274     3.681     1.314     1.228  0.8408 -0.5412 -0.0154
 
              Baa    -0.0130    -1.749    -0.624    -0.583  0.7031  0.7032  0.1056
    16 C(13)  Bbb    -0.0010    -0.139    -0.050    -0.046 -0.0787 -0.0706  0.9944
              Bcc     0.0141     1.888     0.674     0.630 -0.7067  0.7075 -0.0057
 
              Baa    -0.0612    -8.212    -2.930    -2.739 -0.0599 -0.0119  0.9981
    17 C(13)  Bbb    -0.0038    -0.515    -0.184    -0.172  0.9071  0.4166  0.0594
              Bcc     0.0650     8.727     3.114     2.911 -0.4166  0.9090 -0.0142
 
              Baa    -0.0613    -8.230    -2.937    -2.745 -0.0263  0.0733  0.9970
    18 C(13)  Bbb    -0.0063    -0.839    -0.299    -0.280  0.9801 -0.1943  0.0402
              Bcc     0.0676     9.068     3.236     3.025  0.1966  0.9782 -0.0667
 
              Baa    -0.0129    -1.733    -0.618    -0.578  0.8272 -0.5544  0.0914
    19 C(13)  Bbb    -0.0010    -0.135    -0.048    -0.045 -0.0361  0.1099  0.9933
              Bcc     0.0139     1.868     0.666     0.623  0.5608  0.8249 -0.0709
 
              Baa    -0.0270    -3.617    -1.291    -1.207 -0.0208  0.1059  0.9942
    20 C(13)  Bbb     0.0002     0.031     0.011     0.010  0.7170 -0.6914  0.0887
              Bcc     0.0267     3.587     1.280     1.196  0.6968  0.7146 -0.0616
 
              Baa    -0.0326    -4.371    -1.560    -1.458 -0.0215  0.0470  0.9987
    21 C(13)  Bbb    -0.0209    -2.807    -1.002    -0.936 -0.3991  0.9155 -0.0517
              Bcc     0.0535     7.178     2.561     2.394  0.9167  0.3996  0.0010
 
              Baa    -0.0341    -4.575    -1.632    -1.526 -0.0232  0.0432  0.9988
    22 C(13)  Bbb    -0.0052    -0.695    -0.248    -0.232 -0.0900  0.9949 -0.0451
              Bcc     0.0393     5.270     1.880     1.758  0.9957  0.0909  0.0192
 
              Baa    -0.0067    -3.596    -1.283    -1.199 -0.0212  0.0244  0.9995
    23 H(1)   Bbb    -0.0059    -3.155    -1.126    -1.052 -0.0797  0.9965 -0.0260
              Bcc     0.0127     6.751     2.409     2.252  0.9966  0.0802  0.0192
 
              Baa    -0.0163    -2.191    -0.782    -0.731  0.9951  0.0982 -0.0137
    24 C(13)  Bbb    -0.0119    -1.599    -0.571    -0.533  0.0165 -0.0281  0.9995
              Bcc     0.0282     3.790     1.353     1.264 -0.0977  0.9948  0.0296
 
              Baa    -0.0068    -3.630    -1.295    -1.211  0.9917  0.1087  0.0682
    25 H(1)   Bbb    -0.0064    -3.427    -1.223    -1.143 -0.0670 -0.0150  0.9976
              Bcc     0.0132     7.058     2.518     2.354 -0.1095  0.9940  0.0076
 
              Baa    -0.0382    -5.127    -1.830    -1.710 -0.0930  0.0119  0.9956
    26 C(13)  Bbb    -0.0018    -0.244    -0.087    -0.081 -0.0984  0.9949 -0.0211
              Bcc     0.0400     5.371     1.917     1.792  0.9908  0.1000  0.0914
 
              Baa    -0.0064    -3.432    -1.225    -1.145 -0.0657  0.0385  0.9971
    27 H(1)   Bbb    -0.0053    -2.816    -1.005    -0.939 -0.0802  0.9958 -0.0438
              Bcc     0.0117     6.249     2.230     2.084  0.9946  0.0828  0.0623
 
              Baa    -0.0180    -2.410    -0.860    -0.804 -0.1789  0.0527  0.9824
    28 C(13)  Bbb    -0.0136    -1.821    -0.650    -0.607  0.9768  0.1291  0.1710
              Bcc     0.0315     4.231     1.510     1.411 -0.1178  0.9902 -0.0746
 
              Baa    -0.0065    -3.493    -1.246    -1.165  0.9778  0.1186 -0.1729
    29 H(1)   Bbb    -0.0065    -3.465    -1.236    -1.156  0.1653  0.0707  0.9837
              Bcc     0.0130     6.957     2.483     2.321 -0.1289  0.9904 -0.0495
 
              Baa    -0.0039    -0.520    -0.186    -0.173  0.8550  0.5159  0.0534
    30 C(13)  Bbb    -0.0034    -0.459    -0.164    -0.153 -0.0598 -0.0043  0.9982
              Bcc     0.0073     0.979     0.349     0.326 -0.5152  0.8566 -0.0272
 
              Baa    -0.0023    -1.233    -0.440    -0.411 -0.1664 -0.0930  0.9817
    31 H(1)   Bbb    -0.0023    -1.212    -0.432    -0.404  0.7269  0.6611  0.1858
              Bcc     0.0046     2.444     0.872     0.815 -0.6663  0.7445 -0.0424
 
              Baa    -0.0030    -1.599    -0.571    -0.533  0.6965  0.4462 -0.5620
    32 H(1)   Bbb    -0.0028    -1.493    -0.533    -0.498  0.5537  0.1641  0.8164
              Bcc     0.0058     3.091     1.103     1.031 -0.4565  0.8798  0.1328
 
              Baa    -0.0031    -1.636    -0.584    -0.546  0.6211  0.4373  0.6505
    33 H(1)   Bbb    -0.0029    -1.526    -0.544    -0.509 -0.6531 -0.1700  0.7379
              Bcc     0.0059     3.161     1.128     1.055 -0.4332  0.8831 -0.1800
 
              Baa    -0.0037    -0.501    -0.179    -0.167  0.3464  0.9279 -0.1376
    34 C(13)  Bbb    -0.0035    -0.476    -0.170    -0.159  0.0019  0.1460  0.9893
              Bcc     0.0073     0.977     0.349     0.326  0.9381 -0.3429  0.0489
 
              Baa    -0.0030    -1.616    -0.576    -0.539  0.3324  0.8479 -0.4131
    35 H(1)   Bbb    -0.0028    -1.514    -0.540    -0.505 -0.0471  0.4523  0.8906
              Bcc     0.0059     3.129     1.117     1.044  0.9419 -0.2766  0.1903
 
              Baa    -0.0030    -1.581    -0.564    -0.527  0.3031  0.8686  0.3920
    36 H(1)   Bbb    -0.0028    -1.496    -0.534    -0.499 -0.0168 -0.4064  0.9135
              Bcc     0.0058     3.078     1.098     1.027  0.9528 -0.2835 -0.1086
 
              Baa    -0.0023    -1.216    -0.434    -0.406 -0.0521  0.0020  0.9986
    37 H(1)   Bbb    -0.0021    -1.119    -0.399    -0.373  0.4988  0.8664  0.0243
              Bcc     0.0044     2.335     0.833     0.779  0.8652 -0.4994  0.0462
 
              Baa    -0.0038    -0.507    -0.181    -0.169  0.1647 -0.1234  0.9786
    38 C(13)  Bbb    -0.0035    -0.474    -0.169    -0.158  0.9315 -0.3068 -0.1955
              Bcc     0.0073     0.981     0.350     0.327  0.3243  0.9437  0.0644
 
              Baa    -0.0028    -1.471    -0.525    -0.491  0.9095 -0.3416 -0.2370
    39 H(1)   Bbb    -0.0026    -1.405    -0.502    -0.469  0.2576  0.0156  0.9661
              Bcc     0.0054     2.876     1.026     0.959  0.3263  0.9397 -0.1022
 
              Baa    -0.0031    -1.655    -0.591    -0.552  0.3107 -0.2408  0.9195
    40 H(1)   Bbb    -0.0030    -1.617    -0.577    -0.540  0.9260 -0.1417 -0.3500
              Bcc     0.0061     3.273     1.168     1.092  0.2146  0.9602  0.1790
 
              Baa    -0.0025    -1.330    -0.475    -0.444  0.8600 -0.4178 -0.2929
    41 H(1)   Bbb    -0.0023    -1.212    -0.432    -0.404  0.1967 -0.2582  0.9459
              Bcc     0.0048     2.542     0.907     0.848  0.4708  0.8711  0.1399
 
              Baa    -0.0057    -0.768    -0.274    -0.256 -0.3548  0.7534 -0.5536
    42 C(13)  Bbb     0.0009     0.120     0.043     0.040 -0.5206  0.3326  0.7863
              Bcc     0.0048     0.649     0.232     0.216  0.7766  0.5672  0.2742
 
              Baa    -0.0029    -1.567    -0.559    -0.523 -0.2399  0.0499  0.9695
    43 H(1)   Bbb    -0.0028    -1.472    -0.525    -0.491 -0.3751  0.9164 -0.1399
              Bcc     0.0057     3.039     1.084     1.014  0.8954  0.3972  0.2011
 
              Baa    -0.0122    -1.634    -0.583    -0.545 -0.2178  0.5961  0.7728
    44 C(13)  Bbb     0.0032     0.433     0.154     0.144  0.5292 -0.5932  0.6067
              Bcc     0.0089     1.201     0.429     0.401  0.8201  0.5411 -0.1863
 
              Baa    -0.0025    -1.341    -0.479    -0.447  0.6267 -0.5990  0.4984
    45 H(1)   Bbb    -0.0018    -0.948    -0.338    -0.316 -0.2802  0.4236  0.8614
              Bcc     0.0043     2.289     0.817     0.764  0.7271  0.6795 -0.0976
 
              Baa    -0.0013    -0.716    -0.255    -0.239 -0.5118  0.6324  0.5815
    46 H(1)   Bbb    -0.0010    -0.527    -0.188    -0.176  0.4401 -0.3883  0.8097
              Bcc     0.0023     1.242     0.443     0.414  0.7379  0.6702 -0.0796
 
              Baa    -0.0037    -0.502    -0.179    -0.167 -0.2795 -0.6483  0.7082
    47 C(13)  Bbb    -0.0035    -0.463    -0.165    -0.155  0.2090  0.6788  0.7039
              Bcc     0.0072     0.965     0.344     0.322  0.9371 -0.3448  0.0542
 
              Baa    -0.0028    -1.471    -0.525    -0.491  0.3417  0.8720  0.3505
    48 H(1)   Bbb    -0.0026    -1.379    -0.492    -0.460 -0.0185 -0.3667  0.9302
              Bcc     0.0053     2.850     1.017     0.951  0.9396 -0.3244 -0.1092
 
              Baa    -0.0030    -1.610    -0.574    -0.537  0.2823  0.8395 -0.4643
    49 H(1)   Bbb    -0.0029    -1.544    -0.551    -0.515 -0.0361  0.4930  0.8693
              Bcc     0.0059     3.153     1.125     1.052  0.9586 -0.2287  0.1695
 
              Baa    -0.0023    -1.205    -0.430    -0.402 -0.0595  0.1019  0.9930
    50 H(1)   Bbb    -0.0021    -1.123    -0.401    -0.375  0.4971  0.8657 -0.0591
              Bcc     0.0044     2.328     0.831     0.776  0.8657 -0.4901  0.1022
 
              Baa    -0.0063    -0.842    -0.300    -0.281  0.4502  0.2278  0.8634
    51 C(13)  Bbb    -0.0024    -0.322    -0.115    -0.107  0.7338  0.4566 -0.5030
              Bcc     0.0087     1.164     0.415     0.388 -0.5088  0.8600  0.0384
 
              Baa    -0.0030    -1.626    -0.580    -0.543  0.7998  0.4294  0.4194
    52 H(1)   Bbb    -0.0030    -1.596    -0.570    -0.532 -0.4298 -0.0782  0.8995
              Bcc     0.0060     3.223     1.150     1.075 -0.4190  0.8997 -0.1220
 
              Baa    -0.0042    -0.557    -0.199    -0.186 -0.5791 -0.5499  0.6019
    53 C(13)  Bbb     0.0003     0.038     0.013     0.013  0.0228  0.7271  0.6862
              Bcc     0.0039     0.519     0.185     0.173  0.8149 -0.4111  0.4086
 
              Baa    -0.0020    -1.045    -0.373    -0.348  0.5544  0.4808  0.6793
    54 H(1)   Bbb    -0.0016    -0.853    -0.304    -0.285 -0.3745 -0.5848  0.7196
              Bcc     0.0036     1.898     0.677     0.633  0.7432 -0.6533 -0.1441
 
              Baa    -0.0015    -0.819    -0.292    -0.273 -0.5479 -0.3733  0.7486
    55 H(1)   Bbb    -0.0014    -0.723    -0.258    -0.241  0.6382  0.3920  0.6626
              Bcc     0.0029     1.542     0.550     0.514 -0.5408  0.8408  0.0234
 
              Baa    -0.0039    -0.524    -0.187    -0.175 -0.0182  0.0851  0.9962
    56 C(13)  Bbb    -0.0036    -0.484    -0.173    -0.161  0.9477 -0.3162  0.0444
              Bcc     0.0075     1.008     0.360     0.336  0.3187  0.9449 -0.0749
 
              Baa    -0.0030    -1.594    -0.569    -0.532  0.5267 -0.2104  0.8236
    57 H(1)   Bbb    -0.0029    -1.533    -0.547    -0.511  0.8108 -0.1666 -0.5611
              Bcc     0.0059     3.127     1.116     1.043  0.2552  0.9633  0.0829
 
              Baa    -0.0030    -1.626    -0.580    -0.542 -0.5441  0.3382  0.7679
    58 H(1)   Bbb    -0.0029    -1.558    -0.556    -0.520  0.7979 -0.0745  0.5982
              Bcc     0.0060     3.184     1.136     1.062  0.2595  0.9381 -0.2293
 
              Baa    -0.0024    -1.271    -0.454    -0.424 -0.1119  0.1382  0.9841
    59 H(1)   Bbb    -0.0024    -1.258    -0.449    -0.420  0.8666 -0.4710  0.1647
              Bcc     0.0047     2.529     0.902     0.844  0.4863  0.8712 -0.0671
 
              Baa    -0.0040    -0.542    -0.193    -0.181 -0.0074  0.0574  0.9983
    60 C(13)  Bbb    -0.0035    -0.466    -0.166    -0.156 -0.5057  0.8611 -0.0533
              Bcc     0.0075     1.008     0.360     0.336  0.8627  0.5052 -0.0227
 
              Baa    -0.0024    -1.256    -0.448    -0.419 -0.0082  0.0616  0.9981
    61 H(1)   Bbb    -0.0022    -1.174    -0.419    -0.392 -0.6426  0.7644 -0.0525
              Bcc     0.0046     2.430     0.867     0.811  0.7662  0.6417 -0.0333
 
              Baa    -0.0030    -1.586    -0.566    -0.529 -0.4513  0.6556 -0.6055
    62 H(1)   Bbb    -0.0029    -1.555    -0.555    -0.519 -0.1581  0.6090  0.7772
              Bcc     0.0059     3.141     1.121     1.048  0.8783  0.4465 -0.1712
 
              Baa    -0.0029    -1.574    -0.562    -0.525 -0.4695  0.7554  0.4571
    63 H(1)   Bbb    -0.0029    -1.545    -0.551    -0.515  0.1154 -0.4608  0.8800
              Bcc     0.0058     3.119     1.113     1.040  0.8754  0.4659  0.1291
 
              Baa    -0.0947     6.856     2.446     2.287  0.7909 -0.5740  0.2124
    64 O(17)  Bbb    -0.0638     4.620     1.648     1.541  0.5890  0.8081 -0.0096
              Bcc     0.1586   -11.476    -4.095    -3.828 -0.1662  0.1327  0.9771
 
              Baa    -0.0346   -18.452    -6.584    -6.155  0.6423  0.7663  0.0148
    65 H(1)   Bbb    -0.0291   -15.519    -5.538    -5.177  0.6559 -0.5596  0.5067
              Bcc     0.0637    33.971    12.122    11.332 -0.3965  0.3158  0.8620
 
              Baa    -0.0258   -13.765    -4.912    -4.592  0.6941  0.7192  0.0313
    66 H(1)   Bbb    -0.0223   -11.887    -4.241    -3.965  0.7157 -0.6846 -0.1381
              Bcc     0.0481    25.652     9.153     8.557  0.0779 -0.1183  0.9899
 
              Baa    -0.0041    -0.548    -0.195    -0.183  0.0045  0.9999 -0.0131
    67 C(13)  Bbb    -0.0039    -0.527    -0.188    -0.176  0.9400  0.0002  0.3411
              Bcc     0.0080     1.075     0.383     0.358 -0.3411  0.0138  0.9399
 
              Baa    -0.0027    -1.424    -0.508    -0.475  0.8605 -0.4006  0.3148
    68 H(1)   Bbb    -0.0026    -1.374    -0.490    -0.458  0.4332  0.9005 -0.0381
              Bcc     0.0052     2.798     0.998     0.933 -0.2682  0.1692  0.9484
 
              Baa    -0.0027    -1.417    -0.506    -0.473  0.8305  0.4818  0.2796
    69 H(1)   Bbb    -0.0026    -1.377    -0.491    -0.459 -0.5011  0.8654 -0.0027
              Bcc     0.0052     2.794     0.997     0.932 -0.2433 -0.1379  0.9601
 
              Baa    -0.0033    -1.745    -0.623    -0.582 -0.0700  0.9970 -0.0342
    70 H(1)   Bbb    -0.0031    -1.660    -0.592    -0.554  0.8630  0.0778  0.4992
              Bcc     0.0064     3.405     1.215     1.136 -0.5004 -0.0054  0.8658
 
              Baa    -0.0115    -0.444    -0.159    -0.148  0.9206 -0.3831 -0.0761
    71 N(14)  Bbb    -0.0059    -0.227    -0.081    -0.076  0.3857  0.9223  0.0239
              Bcc     0.0174     0.672     0.240     0.224  0.0610 -0.0514  0.9968
 
              Baa    -0.0050    -2.685    -0.958    -0.896 -0.5257  0.8475  0.0741
    72 H(1)   Bbb    -0.0047    -2.524    -0.900    -0.842  0.8214  0.5283 -0.2149
              Bcc     0.0098     5.208     1.858     1.737  0.2212  0.0521  0.9738
 
              Baa    -0.0095    -1.271    -0.453    -0.424  0.9310 -0.3086  0.1951
    73 C(13)  Bbb    -0.0071    -0.949    -0.339    -0.317  0.3133  0.9496  0.0070
              Bcc     0.0165     2.220     0.792     0.741 -0.1875  0.0546  0.9808
 
              Baa    -0.0272    -3.655    -1.304    -1.219  0.2332  0.9715 -0.0424
    74 C(13)  Bbb    -0.0180    -2.415    -0.862    -0.805  0.8882 -0.2305 -0.3975
              Bcc     0.0452     6.069     2.166     2.025  0.3960 -0.0551  0.9166
 
              Baa    -0.0183    -9.783    -3.491    -3.263  0.2001  0.9510 -0.2358
    75 H(1)   Bbb    -0.0177    -9.463    -3.377    -3.156  0.7625 -0.3023 -0.5720
              Bcc     0.0361    19.246     6.867     6.420  0.6152  0.0654  0.7856
 
              Baa    -0.1223    -4.715    -1.683    -1.573  0.9832  0.1770  0.0451
    76 N(14)  Bbb    -0.1081    -4.168    -1.487    -1.390 -0.1754  0.9838 -0.0377
              Bcc     0.2303     8.883     3.170     2.963 -0.0510  0.0292  0.9983
 
              Baa    -0.0262    -3.512    -1.253    -1.171  0.1218  0.9924 -0.0182
    77 C(13)  Bbb    -0.0193    -2.587    -0.923    -0.863  0.8669 -0.0974  0.4888
              Bcc     0.0455     6.099     2.176     2.034 -0.4833  0.0753  0.8722
 
              Baa    -0.0185    -9.883    -3.526    -3.297  0.1816  0.9598  0.2139
    78 H(1)   Bbb    -0.0181    -9.638    -3.439    -3.215  0.6918 -0.2793  0.6658
              Bcc     0.0366    19.521     6.966     6.512 -0.6988 -0.0270  0.7148
 

 ---------------------------------------------------------------------------------

 Unable to Open any file for archive entry.
 1\1\GINC-BGN1009\SP\UAPFD\Gen\C34H36Fe1N6O1(5)\BECSLEIP\13-Nov-2024\0\
 \# apfd/gen scf=maxcycle=999 geom=check\\6m7e_II_Q\\0,5\Fe,0,9.5808805
 068,2.0114222711,25.7443354986\N,0,8.7420108524,2.1344396111,27.555188
 9988\N,0,9.6115942791,4.0354167389,25.6465652817\N,0,10.2170281851,1.9
 65032688,23.8236535996\N,0,9.4193202264,0.0433138329,25.7421755916\C,0
 ,8.395386492,1.0797879087,28.3428732282\C,0,7.9045745804,1.5396570578,
 29.6217464168\C,0,7.972961879,2.8991034423,29.5913758355\C,0,8.4931767
 76,3.2510821247,28.2899409065\C,0,9.1833383448,4.8995970146,26.6089390
 286\C,0,9.3336893148,6.2676293818,26.180274161\C,0,9.8489065651,6.2178
 03279,24.913591473\C,0,10.0093612868,4.8089187684,24.6044217214\C,0,10
 .6126092581,3.0124307427,23.0515443574\C,0,11.1928575177,2.554760688,2
 1.8150024839\C,0,11.1153704829,1.1875401635,21.8396356358\C,0,10.49582
 32333,0.8464326029,23.1056725458\C,0,9.6998965324,-0.8127953172,24.726
 8333049\C,0,9.3652195907,-2.1712595723,25.0944076716\C,0,8.8856798689,
 -2.1154336125,26.3655084802\C,0,8.9121024825,-0.7198934481,26.74838841
 74\C,0,8.4593063461,-0.2516376943,27.9687989683\H,0,8.1136652528,-0.98
 34761373,28.6834930689\C,0,8.6897929151,4.5457069539,27.8532268868\H,0
 ,8.4311300582,5.3434251254,28.5326012435\C,0,10.4955722991,4.346484337
 9,23.3984038644\H,0,10.8271833547,5.0794895011,22.6789369943\C,0,10.24
 43175086,-0.452066116,23.5097403444\H,0,10.4793214723,-1.2458588138,22
 .8170872572\C,0,7.5918446527,3.887933217,30.639216518\H,0,7.2449429992
 ,3.3855040001,31.5389437921\H,0,6.7932789835,4.5384833434,30.280977564
 \H,0,8.4442273518,4.5145716351,30.9021058088\C,0,7.4308930887,0.642229
 7375,30.7137741655\H,0,8.2215944149,-0.0436357975,31.0190864584\H,0,6.
 5802826342,0.0476257346,30.379119359\H,0,7.1234253681,1.2187650282,31.
 5827548382\C,0,8.9052589291,7.4634788769,26.9573688617\H,0,9.658900931
 3,7.7368694999,27.6978187312\H,0,7.9715008943,7.2687446574,27.48299593
 44\H,0,8.7579828333,8.3095130659,26.2890261307\C,0,10.1660241771,7.303
 1481493,24.0117765504\H,0,10.0028034997,7.1014263244,22.9593303336\C,0
 ,10.6351903523,8.4931620966,24.3728379387\H,0,10.8606670285,8.73296671
 73,25.3973860977\H,0,10.8361994976,9.2638132182,23.6471024056\C,0,11.6
 853642997,3.434974706,20.7196527696\H,0,12.6922824533,3.797142444,20.9
 342838113\H,0,11.0359184353,4.3007896056,20.5981356228\H,0,11.71081825
 83,2.8848725762,19.781123013\C,0,11.5359963492,0.2314015043,20.8394372
 375\H,0,10.9195448665,-0.6558466821,20.7501090791\C,0,12.5991772364,0.
 3578664382,20.0520496059\H,0,13.2732261514,1.1931687589,20.1303981959\
 H,0,12.8482063615,-0.3886282591,19.3160312634\C,0,9.5473556444,-3.3511
 571623,24.2025288398\H,0,10.5964726323,-3.4655456399,23.9282301292\H,0
 ,8.9704584704,-3.2299081907,23.2855577816\H,0,9.2200933529,-4.26385664
 63,24.6945998631\C,0,8.3897855938,-3.2184971068,27.2371626578\H,0,8.48
 64240669,-4.1791423862,26.7372954412\H,0,7.3396911404,-3.067201978,27.
 4887557426\H,0,8.9571848654,-3.258011019,28.1674775136\O,0,7.406,2.108
 ,25.054\H,0,6.955,2.184,25.895\H,0,7.022,2.045,24.255\C,0,15.019038563
 2,2.6953404859,26.7252279528\H,0,15.6753027677,1.8432800755,26.5483110
 727\H,0,15.3195688658,3.1688437386,27.6598674537\H,0,15.1484439308,3.4
 079690799,25.9168090096\N,0,13.1418813511,1.3607037255,27.7077564747\H
 ,0,13.6976036228,0.9118897276,28.417152304\C,0,13.599586492,2.26368626
 26,26.7841462185\C,0,11.8186105713,1.185225808,27.4883214019\H,0,11.19
 49796098,0.5313024458,28.0623265765\N,0,11.4117864498,1.9219107127,26.
 4826591414\C,0,12.508379825,2.5991310688,26.0348361807\H,0,12.43718489
 22,3.2777736237,25.210009947\\Version=ES64L-G16RevC.02\State=5-A\HF=-2
 983.3792695\S2=6.146144\S2-1=0.\S2A=6.000597\RMSD=2.028e-09\Dipole=0.8
 938201,-0.6069045,1.2373416\Quadrupole=6.4962742,-5.7590864,-0.7371878
 ,-0.3270581,5.5816187,-2.7413297\PG=C01 [X(C34H36Fe1N6O1)]\\@
 The archive entry for this job was punched.


 Once you get people laughing, they're
 listening and you can tell them almost anything.
                                 -- Herb Gardner
 Job cpu time:       0 days  5 hours 35 minutes 52.3 seconds.
 Elapsed time:       0 days  0 hours  5 minutes 41.8 seconds.
 File lengths (MBytes):  RWF=    430 Int=      0 D2E=      0 Chk=    155 Scr=      1
 Normal termination of Gaussian 16 at Wed Nov 13 13:36:00 2024.
