 Entering Gaussian System, Link 0=g16
 Input=6m7l12re.com
 Output=6m7l12re.log
 Initial command:
 /sw/chem/gaussian/g16_C02/a100/g16/l1.exe "/local/becsleip_8079130/Gau-1413539.inp" -scrdir="/local/becsleip_8079130/"
 Entering Link 1 = /sw/chem/gaussian/g16_C02/a100/g16/l1.exe PID=   1413540.
  
 Copyright (c) 1988-2021, Gaussian, Inc.  All Rights Reserved.
  
 This is part of the Gaussian(R) 16 program.  It is based on
 the Gaussian(R) 09 system (copyright 2009, Gaussian, Inc.),
 the Gaussian(R) 03 system (copyright 2003, Gaussian, Inc.),
 the Gaussian(R) 98 system (copyright 1998, Gaussian, Inc.),
 the Gaussian(R) 94 system (copyright 1995, Gaussian, Inc.),
 the Gaussian 92(TM) system (copyright 1992, Gaussian, Inc.),
 the Gaussian 90(TM) system (copyright 1990, Gaussian, Inc.),
 the Gaussian 88(TM) system (copyright 1988, Gaussian, Inc.),
 the Gaussian 86(TM) system (copyright 1986, Carnegie Mellon
 University), and the Gaussian 82(TM) system (copyright 1983,
 Carnegie Mellon University). Gaussian is a federally registered
 trademark of Gaussian, Inc.
  
 This software contains proprietary and confidential information,
 including trade secrets, belonging to Gaussian, Inc.
  
 This software is provided under written license and may be
 used, copied, transmitted, or stored only in accord with that
 written license.
  
 The following legend is applicable only to US Government
 contracts under FAR:
  
                    RESTRICTED RIGHTS LEGEND
  
 Use, reproduction and disclosure by the US Government is
 subject to restrictions as set forth in subparagraphs (a)
 and (c) of the Commercial Computer Software - Restricted
 Rights clause in FAR 52.227-19.
  
 Gaussian, Inc.
 340 Quinnipiac St., Bldg. 40, Wallingford CT 06492
  
  
 ---------------------------------------------------------------
 Warning -- This program may not be used in any manner that
 competes with the business of Gaussian, Inc. or will provide
 assistance to any competitor of Gaussian, Inc.  The licensee
 of this program is prohibited from giving any competitor of
 Gaussian, Inc. access to this program.  By using this program,
 the user acknowledges that Gaussian, Inc. is engaged in the
 business of creating and licensing software in the field of
 computational chemistry and represents and warrants to the
 licensee that it is not a competitor of Gaussian, Inc. and that
 it will not use this program in any manner prohibited above.
 ---------------------------------------------------------------
  

 Cite this work as:
 Gaussian 16, Revision C.02,
 M. J. Frisch, G. W. Trucks, H. B. Schlegel, G. E. Scuseria, 
 M. A. Robb, J. R. Cheeseman, G. Scalmani, V. Barone, 
 G. A. Petersson, H. Nakatsuji, X. Li, M. Caricato, A. V. Marenich, 
 J. Bloino, B. G. Janesko, R. Gomperts, B. Mennucci, H. P. Hratchian, 
 J. V. Ortiz, A. F. Izmaylov, J. L. Sonnenberg, D. Williams-Young, 
 F. Ding, F. Lipparini, F. Egidi, J. Goings, B. Peng, A. Petrone, 
 T. Henderson, D. Ranasinghe, V. G. Zakrzewski, J. Gao, N. Rega, 
 G. Zheng, W. Liang, M. Hada, M. Ehara, K. Toyota, R. Fukuda, 
 J. Hasegawa, M. Ishida, T. Nakajima, Y. Honda, O. Kitao, H. Nakai, 
 T. Vreven, K. Throssell, J. A. Montgomery, Jr., J. E. Peralta, 
 F. Ogliaro, M. J. Bearpark, J. J. Heyd, E. N. Brothers, K. N. Kudin, 
 V. N. Staroverov, T. A. Keith, R. Kobayashi, J. Normand, 
 K. Raghavachari, A. P. Rendell, J. C. Burant, S. S. Iyengar, 
 J. Tomasi, M. Cossi, J. M. Millam, M. Klene, C. Adamo, R. Cammi, 
 J. W. Ochterski, R. L. Martin, K. Morokuma, O. Farkas, 
 J. B. Foresman, and D. J. Fox, Gaussian, Inc., Wallingford CT, 2019.
 
 ******************************************
 Gaussian 16:  ES64L-G16RevC.02  7-Dec-2021
                13-Nov-2024 
 ******************************************
 %mem=16GB
 %CPU=0-71
 SetSPE:  set environment variable "OMP_PROC_BIND" = "true"
 SetSPE:  set environment variable "OMP_PLACES" = "{0},{1},{2},{3},{4},{5},{6},{7},{8},{9},{10},{11},{12},{13},{14},{15},{16},{17},{18},{19},{20},{21},{22},{23},{24},{25},{26},{27},{28},{29},{30},{31},{32},{33},{34},{35},{36},{37},{38},{39},{40},{41},{42},{43},{44},{45},{46},{47},{48},{49},{50},{51},{52},{53},{54},{55},{56},{57},{58},{59},{60},{61},{62},{63},{64},{65},{66},{67},{68},{69},{70},{71}"
 Will use up to   72 processors via shared memory.
 %gpucpu=0,1,2,3=0,1,2,3
 Will use    4 GPUs:
 Thread  CPU   GPU
      0    0     0
      1    1     1
      2    2     2
      3    3     3
      4    4    -1
      5    5    -1
      6    6    -1
      7    7    -1
      8    8    -1
      9    9    -1
     10   10    -1
     11   11    -1
     12   12    -1
     13   13    -1
     14   14    -1
     15   15    -1
     16   16    -1
     17   17    -1
     18   18    -1
     19   19    -1
     20   20    -1
     21   21    -1
     22   22    -1
     23   23    -1
     24   24    -1
     25   25    -1
     26   26    -1
     27   27    -1
     28   28    -1
     29   29    -1
     30   30    -1
     31   31    -1
     32   32    -1
     33   33    -1
     34   34    -1
     35   35    -1
     36   36    -1
     37   37    -1
     38   38    -1
     39   39    -1
     40   40    -1
     41   41    -1
     42   42    -1
     43   43    -1
     44   44    -1
     45   45    -1
     46   46    -1
     47   47    -1
     48   48    -1
     49   49    -1
     50   50    -1
     51   51    -1
     52   52    -1
     53   53    -1
     54   54    -1
     55   55    -1
     56   56    -1
     57   57    -1
     58   58    -1
     59   59    -1
     60   60    -1
     61   61    -1
     62   62    -1
     63   63    -1
     64   64    -1
     65   65    -1
     66   66    -1
     67   67    -1
     68   68    -1
     69   69    -1
     70   70    -1
     71   71    -1
 SetGPE:  set environment variable "OMP_PROC_BIND" = "true"
 SetGPE:  set environment variable "OMP_PLACES" = "{0},{1},{2},{3},{4},{5},{6},{7},{8},{9},{10},{11},{12},{13},{14},{15},{16},{17},{18},{19},{20},{21},{22},{23},{24},{25},{26},{27},{28},{29},{30},{31},{32},{33},{34},{35},{36},{37},{38},{39},{40},{41},{42},{43},{44},{45},{46},{47},{48},{49},{50},{51},{52},{53},{54},{55},{56},{57},{58},{59},{60},{61},{62},{63},{64},{65},{66},{67},{68},{69},{70},{71}"
 %oldchk=6m7l_II_S.chk
 %chk=6m7l_II_Sre.chk
 Properties for Device   0
 Minimum vector length:                              32
 Maximum vector length:                            1024
 Number of SMPs:                                    108
 Maximum number of threads per SMP:                2048
 Number of ASync Engines:                             5
 Memory:                                           9207742464
 Properties for Device   1
 Minimum vector length:                              32
 Maximum vector length:                            1024
 Number of SMPs:                                    108
 Maximum number of threads per SMP:                2048
 Number of ASync Engines:                             5
 Memory:                                           9207742464
 Properties for Device   2
 Minimum vector length:                              32
 Maximum vector length:                            1024
 Number of SMPs:                                    108
 Maximum number of threads per SMP:                2048
 Number of ASync Engines:                             5
 Memory:                                           9207742464
 Properties for Device   3
 Minimum vector length:                              32
 Maximum vector length:                            1024
 Number of SMPs:                                    108
 Maximum number of threads per SMP:                2048
 Number of ASync Engines:                             5
 Memory:                                           9207742464
   8286968217 words of memory will be used on each GPU.
 Copying data from "6m7l_II_S.chk" to current chk file "6m7l_II_Sre.chk"
 IOpt=  2 FromEx=T IUOpen= 4 IOptOp= 5 NList=   0 IFRang= 0 IUIn= 4 IUOut= 2.
 --------------------------------------
 # apfd/gen scf=maxcycle=999 geom=check
 --------------------------------------
 1/29=2,38=1,172=1/1;
 2/12=2,40=1/2;
 3/5=7,11=2,14=-4,25=1,30=1,74=-44/1,2,3;
 4//1;
 5/5=2,7=999,38=5/2;
 6/7=2,8=2,9=2,10=2,28=1/1;
 99/5=1,9=1/99;
 ----------
 6m7l_III_D
 ----------
 Structure from the checkpoint file:  "6m7l_II_Sre.chk"
 Charge =  1 Multiplicity = 2
 Z-Matrix found in chk file.
 Fe,0,28.5721737361,33.5728533311,-8.2644268709
 N,0,26.9260150815,32.7573169851,-7.5029064158
 N,0,28.7148729139,34.739178195,-6.6176475323
 N,0,30.2550810587,34.4120463642,-8.9624631523
 N,0,28.5167746453,32.3480338636,-9.815462096
 C,0,26.2031644191,31.7503586764,-8.0660373261
 C,0,25.0975005436,31.372950044,-7.2126719043
 C,0,25.167775128,32.1771293889,-6.1197832077
 C,0,26.3146451878,33.0351335903,-6.3207009048
 C,0,27.8253993175,34.8129431274,-5.5864741968
 C,0,28.1890932432,35.8532932191,-4.6605306153
 C,0,29.3297565131,36.426170581,-5.1546378314
 C,0,29.6335989858,35.7163245791,-6.3799785555
 C,0,31.0221788543,35.3672839135,-8.3655723061
 C,0,32.200914214,35.6387134431,-9.1427542225
 C,0,32.1450084883,34.8138951651,-10.2328391431
 C,0,30.9149431475,34.0622566264,-10.1029976103
 C,0,29.335814565,32.3663639824,-10.9034136566
 C,0,28.8439633547,31.4768538572,-11.9303973582
 C,0,27.7044409654,30.9196348596,-11.4387437161
 C,0,27.5134856459,31.480179453,-10.1203579719
 C,0,26.4563183499,31.1629516181,-9.2900141352
 H,0,25.7629077558,30.4109998507,-9.6331599484
 C,0,26.7177786147,34.0017615082,-5.4253611891
 H,0,26.1258893259,34.1351261115,-4.5337192321
 C,0,30.7232494311,36.0030010224,-7.1756689218
 H,0,31.4062314194,36.7658811598,-6.8366931318
 C,0,30.4782427941,33.1313909618,-11.0274547756
 H,0,31.0553666884,33.0271551868,-11.9326234283
 C,0,24.2866325778,32.2251757669,-4.9201091252
 H,0,23.4959977844,31.4826810453,-4.9914014524
 H,0,23.8264638945,33.2085884808,-4.8233332982
 H,0,24.8617294368,32.0292269569,-4.0151362898
 C,0,24.1159827387,30.2999977366,-7.5348566746
 H,0,24.6242233488,29.3469443248,-7.6805953539
 H,0,23.5745452729,30.5392812754,-8.4503631838
 H,0,23.3939040889,30.1839643243,-6.7307332421
 C,0,27.4047810157,36.2449819225,-3.4582793526
 H,0,27.632977912,35.5901256528,-2.616038615
 H,0,26.3362148142,36.1817088662,-3.6565343889
 H,0,27.6471044674,37.266869728,-3.1740821595
 C,0,30.097224279,37.5359034031,-4.6321303678
 H,0,30.5535387085,38.1813461961,-5.3738202147
 C,0,30.2771233614,37.8074424675,-3.3440952369
 H,0,29.8885076249,37.1758311122,-2.5646299961
 H,0,30.8483458509,38.6631696974,-3.0248292281
 C,0,33.265668884,36.6096950108,-8.7693851156
 H,0,33.7256114225,36.327710132,-7.8222150651
 H,0,32.8508829884,37.6120776506,-8.6571830117
 H,0,34.0409226263,36.6359481704,-9.5307803121
 C,0,33.1332453652,34.6979939574,-11.2885574814
 H,0,33.5598706641,35.636298022,-11.6265240829
 C,0,33.5655839515,33.56010285,-11.8174751561
 H,0,34.3109221961,33.546941515,-12.5951902569
 H,0,33.2142512414,32.6018337731,-11.4741875259
 C,0,29.5101808367,31.2673430657,-13.2458775018
 H,0,30.5213092243,30.8854887212,-13.1056542009
 H,0,29.5779686481,32.2063603055,-13.795836375
 H,0,28.9558609431,30.5541706176,-13.8505610429
 C,0,26.7846016726,29.9341886675,-12.0721106229
 H,0,27.1223353494,29.6783834295,-13.073170885
 H,0,25.7758423419,30.3412650695,-12.1424382404
 H,0,26.7395712932,29.0194749306,-11.4809408816
 C,0,27.6977096462,35.325941193,-11.0811645982
 H,0,28.7708670623,35.2395653593,-11.2153500133
 H,0,27.3231705836,36.2630716646,-11.4807076812
 H,0,27.1989894188,34.4896460533,-11.5597296674
 S,0,27.2870190563,35.232868329,-9.3001115306
 H,0,28.0187330198,36.3022118904,-8.9593892153
 Recover connectivity data from disk.
 Stoichiometry    C31H32FeN4S(1+,2)
 Framework group  C1[X(C31H32FeN4S)]
 Deg. of freedom   201
 Full point group                 C1      NOp   1
 Largest Abelian subgroup         C1      NOp   1
 Largest concise Abelian subgroup C1      NOp   1
                         Standard orientation:                         
 ---------------------------------------------------------------------
 Center     Atomic      Atomic             Coordinates (Angstroms)
 Number     Number       Type             X           Y           Z
 ---------------------------------------------------------------------
      1         26           0        0.013051    0.192936   -0.190007
      2          7           0       -0.626773    2.074989   -0.247893
      3          7           0       -1.912871   -0.426099   -0.203409
      4          7           0        0.593899   -1.726864   -0.164331
      5          7           0        1.896837    0.781307   -0.308872
      6          6           0        0.162758    3.182016   -0.316636
      7          6           0       -0.641641    4.382101   -0.393461
      8          6           0       -1.937537    3.974601   -0.368015
      9          6           0       -1.907142    2.531577   -0.275243
     10          6           0       -3.026351    0.360028   -0.157676
     11          6           0       -4.219856   -0.436450   -0.043044
     12          6           0       -3.809433   -1.741859   -0.013008
     13          6           0       -2.364672   -1.707607   -0.108680
     14          6           0       -0.194461   -2.838455   -0.171420
     15          6           0        0.602738   -4.032743   -0.243892
     16          6           0        1.907860   -3.625322   -0.292900
     17          6           0        1.878028   -2.179496   -0.233097
     18          6           0        3.006919   -0.003281   -0.225561
     19          6           0        4.199457    0.805541   -0.118309
     20          6           0        3.784666    2.101048   -0.136710
     21          6           0        2.344280    2.065461   -0.250013
     22          6           0        1.543660    3.189869   -0.299227
     23          1           0        2.035167    4.150278   -0.304936
     24          6           0       -3.034221    1.740933   -0.219607
     25          1           0       -3.992524    2.235679   -0.224812
     26          6           0       -1.575085   -2.838608   -0.114459
     27          1           0       -2.069660   -3.796894   -0.093530
     28          6           0        3.008805   -1.383769   -0.232042
     29          1           0        3.963592   -1.883821   -0.192067
     30          6           0       -3.186759    4.783515   -0.423168
     31          1           0       -2.957769    5.843529   -0.496774
     32          1           0       -3.785612    4.623018    0.473401
     33          1           0       -3.787604    4.500732   -1.287534
     34          6           0       -0.086300    5.761191   -0.483543
     35          1           0        0.551961    5.860647   -1.361375
     36          1           0        0.511695    5.991069    0.398569
     37          1           0       -0.885320    6.494552   -0.555822
     38          6           0       -5.600655    0.101050    0.092839
     39          1           0       -6.015920    0.354802   -0.883606
     40          1           0       -5.606765    0.999702    0.707272
     41          1           0       -6.244438   -0.643308    0.556755
     42          6           0       -4.598797   -2.946733    0.123775
     43          1           0       -4.134782   -3.750681    0.683490
     44          6           0       -5.815632   -3.129665   -0.377204
     45          1           0       -6.305711   -2.385843   -0.980589
     46          1           0       -6.354634   -4.049379   -0.221970
     47          6           0        0.062474   -5.418928   -0.294055
     48          1           0       -0.560876   -5.554883   -1.177879
     49          1           0       -0.549312   -5.626042    0.584711
     50          1           0        0.872910   -6.142162   -0.333493
     51          6           0        3.080360   -4.471622   -0.409539
     52          1           0        3.056640   -5.377854    0.186133
     53          6           0        4.121124   -4.241210   -1.200227
     54          1           0        4.957108   -4.919255   -1.244152
     55          1           0        4.163425   -3.385452   -1.852493
     56          6           0        5.578474    0.253490   -0.009771
     57          1           0        5.816442   -0.354639   -0.882357
     58          1           0        5.671348   -0.376428    0.875317
     59          1           0        6.31764    1.053781    0.059601
     60          6           0        4.588447    3.352165   -0.053021
     61          1           0        5.646454    3.125441    0.051094
     62          1           0        4.278486    3.950613    0.803739
     63          1           0        4.453218    3.953493   -0.952092
     64          6           0        1.568566   -0.320031    2.824831
     65          1           0        1.932979   -1.169149    2.256205
     66          1           0        1.443610   -0.570405    3.873557
     67          1           0        2.253653    0.514570    2.718844
     68         16           0       -0.040421    0.232419    2.149971
     69          1           0       -0.659177   -0.936936    2.361496
 ---------------------------------------------------------------------
 Rotational constants (GHZ):           0.1157273           0.1076374           0.0602939
 General basis read from cards:  (5D, 7F)
 There are   644 symmetry adapted cartesian basis functions of A   symmetry.
 There are   605 symmetry adapted basis functions of A   symmetry.
   605 basis functions,  1246 primitive gaussians,   644 cartesian basis functions
   144 alpha electrons      143 beta electrons
       nuclear repulsion energy      5053.1803253619 Hartrees.
 NAtoms=   69 NActive=   69 NUniq=   69 SFac= 1.00D+00 NAtFMM=   60 NAOKFM=T Big=T
 Integral buffers will be    131072 words long.
 Raffenetti 2 integral format.
 Two-electron integral symmetry is turned on.
 R6APFD:  NTU= -4 IXU= 1 FactS= 1.050
 Nuclear repulsion after empirical dispersion term =     5053.0465008495 Hartrees.
 One-electron integrals computed using PRISM.
 NBasis=   605 RedAO= T EigKep=  2.53D-04  NBF=   605
 NBsUse=   605 1.00D-06 EigRej= -1.00D+00 NBFU=   605
 ExpMin= 4.20D-02 ExpMax= 3.01D+05 ExpMxC= 3.30D+03 IAcc=3 IRadAn=         5 AccDes= 0.00D+00
 Harris functional with IExCor= 3731 and IRadAn=       5 diagonalized for initial guess.
 HarFok:  IExCor= 3731 AccDes= 0.00D+00 IRadAn=         5 IDoV= 1 UseB2=F ITyADJ=14
 ICtDFT=  3500011 ScaDFX=  1.000000  1.000000  1.000000  1.000000
 FoFCou: FMM=F IPFlag=           0 FMFlag=      100000 FMFlg1=        2001
         NFxFlg=           0 DoJE=T BraDBF=F KetDBF=T FulRan=T
         wScrn=  0.000000 ICntrl=       500 IOpCl=  0 I1Cent=   200000004 NGrid=           0
         NMat0=    1 NMatS0=      1 NMatT0=    0 NMatD0=    1 NMtDS0=    0 NMtDT0=    0
 Petite list used in FoFCou.
 Initial guess <Sx>= 0.0000 <Sy>= 0.0000 <Sz>= 0.5000 <S**2>= 0.7500 S= 0.5000
 Requested convergence on RMS density matrix=1.00D-08 within 999 cycles.
 Requested convergence on MAX density matrix=1.00D-06.
 Requested convergence on             energy=1.00D-06.
 No special actions if energy rises.
 EnCoef did   100 forward-backward iterations
 EnCoef did   100 forward-backward iterations
 EnCoef did   100 forward-backward iterations
 EnCoef did   100 forward-backward iterations
 Rare condition: small coef for last iteration:  0.000D+00
 Rare condition: small coef for last iteration:  0.000D+00
 Restarting incremental Fock formation.
 Restarting incremental Fock formation.
  Restarting incremental Fock formation.
 SCF Done:  E(UAPFD) =  -3080.03762211     A.U. after   76 cycles
            NFock= 76  Conv=0.50D-08     -V/T= 2.0033
 <Sx>= 0.0000 <Sy>= 0.0000 <Sz>= 0.5000 <S**2>= 1.3538 S= 0.7664
 <L.S>=  0.00000000000    
 Annihilation of the first spin contaminant:
 S**2 before annihilation     1.3538,   after     0.7886

 **********************************************************************

            Population analysis using the SCF Density.

 **********************************************************************

 Orbital symmetries:
 Alpha Orbitals:
       Occupied  (A) (A) (A) (A) (A) (A) (A) (A) (A) (A) (A) (A)
                 (A) (A) (A) (A) (A) (A) (A) (A) (A) (A) (A) (A)
                 (A) (A) (A) (A) (A) (A) (A) (A) (A) (A) (A) (A)
                 (A) (A) (A) (A) (A) (A) (A) (A) (A) (A) (A) (A)
                 (A) (A) (A) (A) (A) (A) (A) (A) (A) (A) (A) (A)
                 (A) (A) (A) (A) (A) (A) (A) (A) (A) (A) (A) (A)
                 (A) (A) (A) (A) (A) (A) (A) (A) (A) (A) (A) (A)
                 (A) (A) (A) (A) (A) (A) (A) (A) (A) (A) (A) (A)
                 (A) (A) (A) (A) (A) (A) (A) (A) (A) (A) (A) (A)
                 (A) (A) (A) (A) (A) (A) (A) (A) (A) (A) (A) (A)
                 (A) (A) (A) (A) (A) (A) (A) (A) (A) (A) (A) (A)
                 (A) (A) (A) (A) (A) (A) (A) (A) (A) (A) (A) (A)
       Virtual   (A) (A) (A) (A) (A) (A) (A) (A) (A) (A) (A) (A)
                 (A) (A) (A) (A) (A) (A) (A) (A) (A) (A) (A) (A)
                 (A) (A) (A) (A) (A) (A) (A) (A) (A) (A) (A) (A)
                 (A) (A) (A) (A) (A) (A) (A) (A) (A) (A) (A) (A)
                 (A) (A) (A) (A) (A) (A) (A) (A) (A) (A) (A) (A)
                 (A) (A) (A) (A) (A) (A) (A) (A) (A) (A) (A) (A)
                 (A) (A) (A) (A) (A) (A) (A) (A) (A) (A) (A) (A)
                 (A) (A) (A) (A) (A) (A) (A) (A) (A) (A) (A) (A)
                 (A) (A) (A) (A) (A) (A) (A) (A) (A) (A) (A) (A)
                 (A) (A) (A) (A) (A) (A) (A) (A) (A) (A) (A) (A)
                 (A) (A) (A) (A) (A) (A) (A) (A) (A) (A) (A) (A)
                 (A) (A) (A) (A) (A) (A) (A) (A) (A) (A) (A) (A)
                 (A) (A) (A) (A) (A) (A) (A) (A) (A) (A) (A) (A)
                 (A) (A) (A) (A) (A) (A) (A) (A) (A) (A) (A) (A)
                 (A) (A) (A) (A) (A) (A) (A) (A) (A) (A) (A) (A)
                 (A) (A) (A) (A) (A) (A) (A) (A) (A) (A) (A) (A)
                 (A) (A) (A) (A) (A) (A) (A) (A) (A) (A) (A) (A)
                 (A) (A) (A) (A) (A) (A) (A) (A) (A) (A) (A) (A)
                 (A) (A) (A) (A) (A) (A) (A) (A) (A) (A) (A) (A)
                 (A) (A) (A) (A) (A) (A) (A) (A) (A) (A) (A) (A)
                 (A) (A) (A) (A) (A) (A) (A) (A) (A) (A) (A) (A)
                 (A) (A) (A) (A) (A) (A) (A) (A) (A) (A) (A) (A)
                 (A) (A) (A) (A) (A) (A) (A) (A) (A) (A) (A) (A)
                 (A) (A) (A) (A) (A) (A) (A) (A) (A) (A) (A) (A)
                 (A) (A) (A) (A) (A) (A) (A) (A) (A) (A) (A) (A)
                 (A) (A) (A) (A) (A) (A) (A) (A) (A) (A) (A) (A)
                 (A) (A) (A) (A) (A) (A) (A) (A) (A) (A) (A) (A)
                 (A) (A) (A) (A) (A) (A) (A) (A) (A) (A) (A) (A)
                 (A) (A) (A) (A) (A) (A) (A) (A) (A) (A) (A) (A)
                 (A) (A) (A) (A) (A) (A) (A) (A) (A) (A) (A) (A)
                 (A) (A) (A) (A) (A) (A) (A) (A) (A) (A) (A) (A)
                 (A) (A) (A) (A) (A) (A) (A) (A) (A) (A) (A) (A)
                 (A) (A) (A) (A) (A) (A) (A) (A) (A) (A) (A) (A)
                 (A) (A) (A) (A) (A) (A) (A) (A) (A) (A) (A) (A)
                 (A) (A) (A) (A) (A) (A) (A) (A) (A) (A) (A) (A)
                 (A) (A) (A) (A) (A) (A) (A) (A) (A) (A) (A) (A)
                 (A) (A) (A) (A) (A) (A) (A) (A) (A) (A) (A) (A)
                 (A) (A) (A) (A) (A) (A) (A) (A) (A) (A) (A) (A)
                 (A) (A) (A) (A) (A)
 Beta  Orbitals:
       Occupied  (A) (A) (A) (A) (A) (A) (A) (A) (A) (A) (A) (A)
                 (A) (A) (A) (A) (A) (A) (A) (A) (A) (A) (A) (A)
                 (A) (A) (A) (A) (A) (A) (A) (A) (A) (A) (A) (A)
                 (A) (A) (A) (A) (A) (A) (A) (A) (A) (A) (A) (A)
                 (A) (A) (A) (A) (A) (A) (A) (A) (A) (A) (A) (A)
                 (A) (A) (A) (A) (A) (A) (A) (A) (A) (A) (A) (A)
                 (A) (A) (A) (A) (A) (A) (A) (A) (A) (A) (A) (A)
                 (A) (A) (A) (A) (A) (A) (A) (A) (A) (A) (A) (A)
                 (A) (A) (A) (A) (A) (A) (A) (A) (A) (A) (A) (A)
                 (A) (A) (A) (A) (A) (A) (A) (A) (A) (A) (A) (A)
                 (A) (A) (A) (A) (A) (A) (A) (A) (A) (A) (A) (A)
                 (A) (A) (A) (A) (A) (A) (A) (A) (A) (A) (A)
       Virtual   (A) (A) (A) (A) (A) (A) (A) (A) (A) (A) (A) (A)
                 (A) (A) (A) (A) (A) (A) (A) (A) (A) (A) (A) (A)
                 (A) (A) (A) (A) (A) (A) (A) (A) (A) (A) (A) (A)
                 (A) (A) (A) (A) (A) (A) (A) (A) (A) (A) (A) (A)
                 (A) (A) (A) (A) (A) (A) (A) (A) (A) (A) (A) (A)
                 (A) (A) (A) (A) (A) (A) (A) (A) (A) (A) (A) (A)
                 (A) (A) (A) (A) (A) (A) (A) (A) (A) (A) (A) (A)
                 (A) (A) (A) (A) (A) (A) (A) (A) (A) (A) (A) (A)
                 (A) (A) (A) (A) (A) (A) (A) (A) (A) (A) (A) (A)
                 (A) (A) (A) (A) (A) (A) (A) (A) (A) (A) (A) (A)
                 (A) (A) (A) (A) (A) (A) (A) (A) (A) (A) (A) (A)
                 (A) (A) (A) (A) (A) (A) (A) (A) (A) (A) (A) (A)
                 (A) (A) (A) (A) (A) (A) (A) (A) (A) (A) (A) (A)
                 (A) (A) (A) (A) (A) (A) (A) (A) (A) (A) (A) (A)
                 (A) (A) (A) (A) (A) (A) (A) (A) (A) (A) (A) (A)
                 (A) (A) (A) (A) (A) (A) (A) (A) (A) (A) (A) (A)
                 (A) (A) (A) (A) (A) (A) (A) (A) (A) (A) (A) (A)
                 (A) (A) (A) (A) (A) (A) (A) (A) (A) (A) (A) (A)
                 (A) (A) (A) (A) (A) (A) (A) (A) (A) (A) (A) (A)
                 (A) (A) (A) (A) (A) (A) (A) (A) (A) (A) (A) (A)
                 (A) (A) (A) (A) (A) (A) (A) (A) (A) (A) (A) (A)
                 (A) (A) (A) (A) (A) (A) (A) (A) (A) (A) (A) (A)
                 (A) (A) (A) (A) (A) (A) (A) (A) (A) (A) (A) (A)
                 (A) (A) (A) (A) (A) (A) (A) (A) (A) (A) (A) (A)
                 (A) (A) (A) (A) (A) (A) (A) (A) (A) (A) (A) (A)
                 (A) (A) (A) (A) (A) (A) (A) (A) (A) (A) (A) (A)
                 (A) (A) (A) (A) (A) (A) (A) (A) (A) (A) (A) (A)
                 (A) (A) (A) (A) (A) (A) (A) (A) (A) (A) (A) (A)
                 (A) (A) (A) (A) (A) (A) (A) (A) (A) (A) (A) (A)
                 (A) (A) (A) (A) (A) (A) (A) (A) (A) (A) (A) (A)
                 (A) (A) (A) (A) (A) (A) (A) (A) (A) (A) (A) (A)
                 (A) (A) (A) (A) (A) (A) (A) (A) (A) (A) (A) (A)
                 (A) (A) (A) (A) (A) (A) (A) (A) (A) (A) (A) (A)
                 (A) (A) (A) (A) (A) (A) (A) (A) (A) (A) (A) (A)
                 (A) (A) (A) (A) (A) (A) (A) (A) (A) (A) (A) (A)
                 (A) (A) (A) (A) (A) (A) (A) (A) (A) (A) (A) (A)
                 (A) (A) (A) (A) (A) (A) (A) (A) (A) (A) (A) (A)
                 (A) (A) (A) (A) (A) (A) (A) (A) (A) (A) (A) (A)
                 (A) (A) (A) (A) (A) (A)
 The electronic state is 2-A.
 Alpha  occ. eigenvalues -- -256.37387 -89.10983 -30.24331 -26.08396 -26.08053
 Alpha  occ. eigenvalues --  -26.07299 -14.49344 -14.49110 -14.49097 -14.49070
 Alpha  occ. eigenvalues --  -10.35195 -10.34977 -10.34852 -10.34743 -10.34661
 Alpha  occ. eigenvalues --  -10.34654 -10.34589 -10.34569 -10.34478 -10.32056
 Alpha  occ. eigenvalues --  -10.31927 -10.31924 -10.31809 -10.31451 -10.31447
 Alpha  occ. eigenvalues --  -10.31427 -10.31326 -10.31309 -10.31173 -10.31093
 Alpha  occ. eigenvalues --  -10.31044 -10.30399 -10.30105 -10.29189 -10.29109
 Alpha  occ. eigenvalues --  -10.29040 -10.29037 -10.28878 -10.28872 -10.28761
 Alpha  occ. eigenvalues --  -10.28731  -8.14103  -6.08657  -6.08373  -6.07842
 Alpha  occ. eigenvalues --   -3.64367  -2.42139  -2.40594  -2.39126  -1.10348
 Alpha  occ. eigenvalues --   -1.09339  -1.09290  -1.08323  -0.94918  -0.94380
 Alpha  occ. eigenvalues --   -0.93150  -0.92899  -0.92494  -0.92163  -0.92001
 Alpha  occ. eigenvalues --   -0.91917  -0.87869  -0.86698  -0.86438  -0.85245
 Alpha  occ. eigenvalues --   -0.83842  -0.82127  -0.80987  -0.79934  -0.79491
 Alpha  occ. eigenvalues --   -0.79343  -0.79007  -0.76514  -0.76316  -0.71949
 Alpha  occ. eigenvalues --   -0.71019  -0.69707  -0.69566  -0.66320  -0.66050
 Alpha  occ. eigenvalues --   -0.64893  -0.63921  -0.62949  -0.62707  -0.62173
 Alpha  occ. eigenvalues --   -0.60200  -0.59988  -0.59242  -0.59139  -0.57959
 Alpha  occ. eigenvalues --   -0.57298  -0.56423  -0.56100  -0.55431  -0.55064
 Alpha  occ. eigenvalues --   -0.54864  -0.54589  -0.54368  -0.53954  -0.53631
 Alpha  occ. eigenvalues --   -0.53335  -0.53038  -0.52038  -0.51763  -0.51632
 Alpha  occ. eigenvalues --   -0.51465  -0.51354  -0.51192  -0.51183  -0.51000
 Alpha  occ. eigenvalues --   -0.50780  -0.50539  -0.50219  -0.49816  -0.49576
 Alpha  occ. eigenvalues --   -0.49246  -0.48859  -0.48790  -0.48542  -0.48264
 Alpha  occ. eigenvalues --   -0.47501  -0.47293  -0.46699  -0.45957  -0.45906
 Alpha  occ. eigenvalues --   -0.45061  -0.44808  -0.44167  -0.43870  -0.43445
 Alpha  occ. eigenvalues --   -0.42894  -0.42459  -0.42115  -0.40725  -0.39888
 Alpha  occ. eigenvalues --   -0.39841  -0.38083  -0.38005  -0.35428  -0.34159
 Alpha  occ. eigenvalues --   -0.33122  -0.32810  -0.31248  -0.30033
 Alpha virt. eigenvalues --   -0.24621  -0.18254  -0.18205  -0.15791  -0.12363
 Alpha virt. eigenvalues --   -0.10414  -0.08765  -0.07942  -0.06223  -0.05744
 Alpha virt. eigenvalues --   -0.02832  -0.02759  -0.01956  -0.00461   0.00348
 Alpha virt. eigenvalues --    0.01185   0.01627   0.01733   0.02687   0.03026
 Alpha virt. eigenvalues --    0.03225   0.03679   0.04006   0.04100   0.04392
 Alpha virt. eigenvalues --    0.04919   0.05356   0.05604   0.05639   0.06434
 Alpha virt. eigenvalues --    0.06764   0.07168   0.07238   0.07342   0.07903
 Alpha virt. eigenvalues --    0.07954   0.08574   0.09214   0.09337   0.09577
 Alpha virt. eigenvalues --    0.10154   0.10845   0.10990   0.11107   0.11537
 Alpha virt. eigenvalues --    0.11784   0.12305   0.12421   0.12649   0.13150
 Alpha virt. eigenvalues --    0.13522   0.13705   0.14045   0.14877   0.15074
 Alpha virt. eigenvalues --    0.15259   0.15858   0.16371   0.16853   0.17142
 Alpha virt. eigenvalues --    0.18664   0.18913   0.19512   0.20275   0.21233
 Alpha virt. eigenvalues --    0.21700   0.22498   0.22526   0.23404   0.24114
 Alpha virt. eigenvalues --    0.24274   0.24664   0.24913   0.25627   0.26427
 Alpha virt. eigenvalues --    0.27219   0.28092   0.28579   0.31109   0.31455
 Alpha virt. eigenvalues --    0.31970   0.32679   0.33132   0.34293   0.35063
 Alpha virt. eigenvalues --    0.35966   0.36665   0.36924   0.37522   0.37953
 Alpha virt. eigenvalues --    0.38778   0.39065   0.39276   0.39865   0.40721
 Alpha virt. eigenvalues --    0.41146   0.41590   0.42085   0.42408   0.42795
 Alpha virt. eigenvalues --    0.43311   0.43914   0.44153   0.45073   0.45283
 Alpha virt. eigenvalues --    0.45588   0.46018   0.46867   0.47261   0.47579
 Alpha virt. eigenvalues --    0.48423   0.48990   0.49074   0.49465   0.49581
 Alpha virt. eigenvalues --    0.50968   0.51059   0.51492   0.51683   0.52166
 Alpha virt. eigenvalues --    0.52317   0.52571   0.52776   0.53952   0.54335
 Alpha virt. eigenvalues --    0.54848   0.55372   0.55904   0.56012   0.56179
 Alpha virt. eigenvalues --    0.56930   0.57211   0.57398   0.57934   0.58582
 Alpha virt. eigenvalues --    0.58654   0.59600   0.60183   0.60845   0.61343
 Alpha virt. eigenvalues --    0.61723   0.62003   0.62686   0.63766   0.64202
 Alpha virt. eigenvalues --    0.64402   0.64677   0.65116   0.65664   0.66075
 Alpha virt. eigenvalues --    0.66333   0.67044   0.67103   0.67453   0.67727
 Alpha virt. eigenvalues --    0.68129   0.68155   0.68303   0.68741   0.69809
 Alpha virt. eigenvalues --    0.69990   0.70403   0.70819   0.71374   0.72359
 Alpha virt. eigenvalues --    0.72895   0.73260   0.74756   0.75564   0.75713
 Alpha virt. eigenvalues --    0.76910   0.77152   0.77459   0.77865   0.78240
 Alpha virt. eigenvalues --    0.78365   0.79110   0.79230   0.79594   0.80080
 Alpha virt. eigenvalues --    0.80587   0.80795   0.81570   0.81897   0.82054
 Alpha virt. eigenvalues --    0.82549   0.82748   0.83082   0.83481   0.84006
 Alpha virt. eigenvalues --    0.84382   0.84789   0.85262   0.85907   0.86383
 Alpha virt. eigenvalues --    0.86749   0.86805   0.87674   0.88212   0.88869
 Alpha virt. eigenvalues --    0.89084   0.89634   0.89749   0.89980   0.90362
 Alpha virt. eigenvalues --    0.90682   0.90965   0.91483   0.92079   0.92762
 Alpha virt. eigenvalues --    0.93192   0.93591   0.94266   0.94865   0.95765
 Alpha virt. eigenvalues --    0.96563   0.96745   0.97080   0.98147   0.99736
 Alpha virt. eigenvalues --    1.00917   1.01191   1.03408   1.03713   1.04710
 Alpha virt. eigenvalues --    1.05524   1.06364   1.06590   1.07064   1.07638
 Alpha virt. eigenvalues --    1.07930   1.08373   1.09315   1.09810   1.10028
 Alpha virt. eigenvalues --    1.10236   1.11214   1.11751   1.12533   1.13074
 Alpha virt. eigenvalues --    1.13687   1.14471   1.15056   1.16118   1.16994
 Alpha virt. eigenvalues --    1.17404   1.18364   1.19170   1.20239   1.20821
 Alpha virt. eigenvalues --    1.22206   1.22812   1.24121   1.24988   1.25156
 Alpha virt. eigenvalues --    1.25855   1.26302   1.26785   1.27194   1.27383
 Alpha virt. eigenvalues --    1.27668   1.28047   1.28944   1.30779   1.32683
 Alpha virt. eigenvalues --    1.32774   1.34062   1.34710   1.36483   1.36804
 Alpha virt. eigenvalues --    1.37397   1.39304   1.40164   1.40296   1.41063
 Alpha virt. eigenvalues --    1.42489   1.43430   1.44015   1.44629   1.45282
 Alpha virt. eigenvalues --    1.45983   1.47717   1.48223   1.49103   1.49794
 Alpha virt. eigenvalues --    1.50839   1.51779   1.53421   1.54123   1.56310
 Alpha virt. eigenvalues --    1.57834   1.58330   1.58625   1.59022   1.59357
 Alpha virt. eigenvalues --    1.61088   1.61824   1.63861   1.65416   1.65992
 Alpha virt. eigenvalues --    1.67939   1.68551   1.69248   1.69514   1.69920
 Alpha virt. eigenvalues --    1.70113   1.70733   1.71506   1.72070   1.72694
 Alpha virt. eigenvalues --    1.73488   1.73621   1.74072   1.75144   1.75494
 Alpha virt. eigenvalues --    1.76141   1.76540   1.77265   1.78907   1.79920
 Alpha virt. eigenvalues --    1.80494   1.80809   1.81199   1.82059   1.83223
 Alpha virt. eigenvalues --    1.83582   1.84428   1.84867   1.85771   1.87267
 Alpha virt. eigenvalues --    1.88621   1.89288   1.89564   1.89675   1.89822
 Alpha virt. eigenvalues --    1.90630   1.92013   1.92546   1.92983   1.93638
 Alpha virt. eigenvalues --    1.94308   1.94828   1.95564   1.96946   1.97393
 Alpha virt. eigenvalues --    1.97669   1.99986   2.00777   2.01936   2.03462
 Alpha virt. eigenvalues --    2.04297   2.04544   2.05396   2.05907   2.07207
 Alpha virt. eigenvalues --    2.07846   2.08945   2.09432   2.09711   2.10333
 Alpha virt. eigenvalues --    2.11586   2.11835   2.12778   2.13747   2.13949
 Alpha virt. eigenvalues --    2.14161   2.14902   2.15190   2.15501   2.16346
 Alpha virt. eigenvalues --    2.17145   2.17244   2.18116   2.19325   2.19438
 Alpha virt. eigenvalues --    2.19802   2.20554   2.20824   2.21387   2.21994
 Alpha virt. eigenvalues --    2.23520   2.23887   2.24447   2.24703   2.25321
 Alpha virt. eigenvalues --    2.26409   2.26620   2.28367   2.29497   2.29769
 Alpha virt. eigenvalues --    2.29917   2.30970   2.31877   2.32615   2.33021
 Alpha virt. eigenvalues --    2.34014   2.34411   2.36134   2.37005   2.38370
 Alpha virt. eigenvalues --    2.39449   2.41616   2.42159   2.42381   2.42703
 Alpha virt. eigenvalues --    2.42802   2.43462   2.44842   2.45339   2.46057
 Alpha virt. eigenvalues --    2.47456   2.48570   2.49228   2.51160   2.53601
 Alpha virt. eigenvalues --    2.55411   2.55506   2.57120   2.57398   2.57903
 Alpha virt. eigenvalues --    2.59632   2.61079   2.65202   2.67490   2.67783
 Alpha virt. eigenvalues --    2.67947   2.69775   2.71486   2.75990   2.76845
 Alpha virt. eigenvalues --    2.77435   2.79552   2.80217   2.81685   2.83808
 Alpha virt. eigenvalues --    2.85065   2.86442   2.86460   2.87743   2.88895
 Alpha virt. eigenvalues --    2.90075   2.93146   2.95482   3.01900   3.02310
 Alpha virt. eigenvalues --    3.07375   3.12103   3.13911   3.17454   3.19177
 Alpha virt. eigenvalues --    3.24708   3.28446   3.29307   3.31155   3.34894
 Alpha virt. eigenvalues --    3.35011   3.36690   3.40388   3.75488   3.91623
 Alpha virt. eigenvalues --    4.11724
  Beta  occ. eigenvalues -- -256.37334 -89.11078 -30.21414 -26.05872 -26.05545
  Beta  occ. eigenvalues --  -26.05034 -14.49589 -14.49343 -14.49264 -14.49229
  Beta  occ. eigenvalues --  -10.35187 -10.34947 -10.34802 -10.34684 -10.34618
  Beta  occ. eigenvalues --  -10.34599 -10.34555 -10.34525 -10.34430 -10.32177
  Beta  occ. eigenvalues --  -10.32039 -10.32034 -10.31931 -10.31453 -10.31426
  Beta  occ. eigenvalues --  -10.31404 -10.31312 -10.31301 -10.31147 -10.31094
  Beta  occ. eigenvalues --  -10.31042 -10.30407 -10.30109 -10.29191 -10.29110
  Beta  occ. eigenvalues --  -10.29037 -10.29028 -10.28880 -10.28874 -10.28755
  Beta  occ. eigenvalues --  -10.28733  -8.14201  -6.08719  -6.08483  -6.08101
  Beta  occ. eigenvalues --   -3.57208  -2.33728  -2.33170  -2.31927  -1.10538
  Beta  occ. eigenvalues --   -1.09527  -1.09467  -1.08494  -0.95035  -0.94704
  Beta  occ. eigenvalues --   -0.93189  -0.92926  -0.92535  -0.92254  -0.92147
  Beta  occ. eigenvalues --   -0.92021  -0.87860  -0.86915  -0.86510  -0.85263
  Beta  occ. eigenvalues --   -0.83862  -0.82143  -0.81018  -0.80086  -0.79527
  Beta  occ. eigenvalues --   -0.79389  -0.79071  -0.76541  -0.76364  -0.71959
  Beta  occ. eigenvalues --   -0.71032  -0.69750  -0.69646  -0.66343  -0.66093
  Beta  occ. eigenvalues --   -0.64927  -0.63931  -0.63013  -0.62748  -0.62228
  Beta  occ. eigenvalues --   -0.60273  -0.59969  -0.59267  -0.59192  -0.58133
  Beta  occ. eigenvalues --   -0.57321  -0.56435  -0.56103  -0.55509  -0.55090
  Beta  occ. eigenvalues --   -0.54902  -0.54606  -0.54410  -0.53967  -0.53628
  Beta  occ. eigenvalues --   -0.53323  -0.53060  -0.52038  -0.51695  -0.51539
  Beta  occ. eigenvalues --   -0.51464  -0.51313  -0.51174  -0.51083  -0.50884
  Beta  occ. eigenvalues --   -0.50757  -0.50591  -0.50200  -0.49759  -0.49607
  Beta  occ. eigenvalues --   -0.49263  -0.48886  -0.48567  -0.48478  -0.48191
  Beta  occ. eigenvalues --   -0.47447  -0.47228  -0.46672  -0.45911  -0.45012
  Beta  occ. eigenvalues --   -0.44802  -0.44442  -0.43907  -0.43821  -0.43108
  Beta  occ. eigenvalues --   -0.42736  -0.40394  -0.40155  -0.39459  -0.38728
  Beta  occ. eigenvalues --   -0.37853  -0.37182  -0.35148  -0.34286  -0.33388
  Beta  occ. eigenvalues --   -0.32913  -0.31237  -0.29677
  Beta virt. eigenvalues --   -0.20521  -0.18787  -0.17082  -0.16655  -0.12533
  Beta virt. eigenvalues --   -0.12054  -0.10163  -0.08693  -0.07980  -0.06031
  Beta virt. eigenvalues --   -0.05858  -0.02611  -0.02266  -0.01692  -0.00342
  Beta virt. eigenvalues --    0.00444   0.01195   0.01645   0.01753   0.02661
  Beta virt. eigenvalues --    0.02982   0.03230   0.03647   0.03953   0.04019
  Beta virt. eigenvalues --    0.04361   0.04905   0.05323   0.05536   0.05643
  Beta virt. eigenvalues --    0.06434   0.06768   0.07160   0.07243   0.07332
  Beta virt. eigenvalues --    0.07912   0.07960   0.08579   0.09239   0.09344
  Beta virt. eigenvalues --    0.09604   0.10189   0.10874   0.10996   0.11158
  Beta virt. eigenvalues --    0.11574   0.12023   0.12321   0.12490   0.13016
  Beta virt. eigenvalues --    0.13160   0.13539   0.13740   0.14290   0.14894
  Beta virt. eigenvalues --    0.15151   0.15581   0.15906   0.16619   0.16875
  Beta virt. eigenvalues --    0.17193   0.18672   0.18939   0.19518   0.20372
  Beta virt. eigenvalues --    0.21384   0.21799   0.22456   0.22571   0.23386
  Beta virt. eigenvalues --    0.24103   0.24309   0.24669   0.24961   0.25649
  Beta virt. eigenvalues --    0.26348   0.27207   0.28086   0.28603   0.30997
  Beta virt. eigenvalues --    0.31456   0.31954   0.32628   0.33123   0.34320
  Beta virt. eigenvalues --    0.35129   0.36033   0.36698   0.37101   0.37567
  Beta virt. eigenvalues --    0.38024   0.38777   0.39076   0.39325   0.40040
  Beta virt. eigenvalues --    0.40761   0.41212   0.41620   0.42083   0.42430
  Beta virt. eigenvalues --    0.42784   0.43311   0.43928   0.44139   0.45068
  Beta virt. eigenvalues --    0.45274   0.45594   0.45981   0.46824   0.47234
  Beta virt. eigenvalues --    0.47573   0.48411   0.48878   0.49060   0.49412
  Beta virt. eigenvalues --    0.49511   0.50936   0.51076   0.51475   0.51643
  Beta virt. eigenvalues --    0.52179   0.52305   0.52704   0.52847   0.53922
  Beta virt. eigenvalues --    0.54367   0.55039   0.55464   0.55880   0.56006
  Beta virt. eigenvalues --    0.56183   0.56769   0.57143   0.57410   0.57934
  Beta virt. eigenvalues --    0.58672   0.58822   0.59823   0.60246   0.60909
  Beta virt. eigenvalues --    0.61334   0.61727   0.62056   0.62703   0.63912
  Beta virt. eigenvalues --    0.64220   0.64455   0.64668   0.65138   0.65689
  Beta virt. eigenvalues --    0.66111   0.66366   0.67011   0.67321   0.67603
  Beta virt. eigenvalues --    0.67726   0.68166   0.68281   0.68581   0.68884
  Beta virt. eigenvalues --    0.69844   0.70005   0.70352   0.70875   0.71530
  Beta virt. eigenvalues --    0.72457   0.73133   0.73385   0.74702   0.75664
  Beta virt. eigenvalues --    0.76048   0.76888   0.77102   0.77432   0.77832
  Beta virt. eigenvalues --    0.78233   0.78347   0.79088   0.79188   0.79595
  Beta virt. eigenvalues --    0.80175   0.80616   0.80786   0.81475   0.81856
  Beta virt. eigenvalues --    0.82003   0.82558   0.82728   0.83074   0.83470
  Beta virt. eigenvalues --    0.84012   0.84389   0.84794   0.85320   0.85908
  Beta virt. eigenvalues --    0.86394   0.86752   0.86788   0.87715   0.88213
  Beta virt. eigenvalues --    0.88869   0.89085   0.89760   0.89791   0.89998
  Beta virt. eigenvalues --    0.90390   0.90690   0.90968   0.91476   0.92111
  Beta virt. eigenvalues --    0.92728   0.93170   0.93618   0.94274   0.94843
  Beta virt. eigenvalues --    0.95840   0.96531   0.96736   0.97021   0.98403
  Beta virt. eigenvalues --    0.99730   1.00912   1.01407   1.03414   1.03700
  Beta virt. eigenvalues --    1.04735   1.05571   1.06374   1.06610   1.07082
  Beta virt. eigenvalues --    1.07639   1.07929   1.08355   1.09341   1.09809
  Beta virt. eigenvalues --    1.10064   1.10245   1.11230   1.11731   1.12603
  Beta virt. eigenvalues --    1.13323   1.14037   1.14502   1.15183   1.16502
  Beta virt. eigenvalues --    1.17083   1.17396   1.18317   1.19185   1.20273
  Beta virt. eigenvalues --    1.20824   1.22188   1.22806   1.24123   1.25023
  Beta virt. eigenvalues --    1.25177   1.25889   1.26302   1.26787   1.27191
  Beta virt. eigenvalues --    1.27391   1.27623   1.28024   1.28939   1.30710
  Beta virt. eigenvalues --    1.32564   1.32631   1.34046   1.34695   1.36506
  Beta virt. eigenvalues --    1.36616   1.37407   1.39429   1.40301   1.40576
  Beta virt. eigenvalues --    1.41208   1.42473   1.43419   1.44024   1.44724
  Beta virt. eigenvalues --    1.45285   1.46010   1.47798   1.48466   1.49280
  Beta virt. eigenvalues --    1.49791   1.50870   1.51910   1.53433   1.54137
  Beta virt. eigenvalues --    1.56304   1.57860   1.58370   1.58651   1.59045
  Beta virt. eigenvalues --    1.59371   1.61077   1.61850   1.63840   1.65454
  Beta virt. eigenvalues --    1.65970   1.67782   1.68533   1.69202   1.69469
  Beta virt. eigenvalues --    1.69890   1.70083   1.70686   1.71572   1.72028
  Beta virt. eigenvalues --    1.72715   1.73419   1.73612   1.74056   1.75140
  Beta virt. eigenvalues --    1.75372   1.76082   1.76480   1.77204   1.78903
  Beta virt. eigenvalues --    1.79991   1.80370   1.80870   1.81209   1.82167
  Beta virt. eigenvalues --    1.83243   1.83625   1.84454   1.84754   1.85882
  Beta virt. eigenvalues --    1.88379   1.89141   1.89426   1.89641   1.89771
  Beta virt. eigenvalues --    1.89952   1.90619   1.91988   1.92585   1.93091
  Beta virt. eigenvalues --    1.93650   1.94210   1.94840   1.95549   1.96939
  Beta virt. eigenvalues --    1.97321   1.97636   2.00618   2.00843   2.01955
  Beta virt. eigenvalues --    2.03446   2.04314   2.04562   2.05383   2.05925
  Beta virt. eigenvalues --    2.07214   2.07872   2.08942   2.09501   2.09734
  Beta virt. eigenvalues --    2.10598   2.11864   2.12440   2.12830   2.13815
  Beta virt. eigenvalues --    2.14082   2.14456   2.14955   2.15401   2.15674
  Beta virt. eigenvalues --    2.16502   2.17185   2.17344   2.18266   2.19271
  Beta virt. eigenvalues --    2.19414   2.19840   2.20622   2.20809   2.21382
  Beta virt. eigenvalues --    2.22014   2.23556   2.23929   2.24456   2.24714
  Beta virt. eigenvalues --    2.25329   2.26462   2.26622   2.28396   2.29477
  Beta virt. eigenvalues --    2.29758   2.29948   2.30946   2.31989   2.32639
  Beta virt. eigenvalues --    2.33064   2.34040   2.34436   2.36265   2.37086
  Beta virt. eigenvalues --    2.38364   2.39483   2.41583   2.42061   2.42409
  Beta virt. eigenvalues --    2.42746   2.42811   2.43420   2.44786   2.45337
  Beta virt. eigenvalues --    2.46072   2.47580   2.48611   2.49248   2.51176
  Beta virt. eigenvalues --    2.53507   2.55339   2.55391   2.57054   2.57261
  Beta virt. eigenvalues --    2.57771   2.59495   2.60918   2.65122   2.67482
  Beta virt. eigenvalues --    2.67760   2.67858   2.69776   2.71453   2.75897
  Beta virt. eigenvalues --    2.76792   2.77347   2.79516   2.80177   2.81721
  Beta virt. eigenvalues --    2.83701   2.85201   2.86400   2.86449   2.87698
  Beta virt. eigenvalues --    2.88863   2.90141   2.93108   2.95452   3.01873
  Beta virt. eigenvalues --    3.02301   3.07368   3.12150   3.13975   3.17459
  Beta virt. eigenvalues --    3.19184   3.25573   3.28444   3.29456   3.34775
  Beta virt. eigenvalues --    3.35011   3.35471   3.41915   3.45850   3.78138
  Beta virt. eigenvalues --    3.94420   4.14339
          Condensed to atoms (all electrons):
          Atomic-Atomic Spin Densities.
 Mulliken charges and spin densities:
               1          2
     1  Fe   0.657468   1.531699
     2  N   -0.681614  -0.114515
     3  N   -0.677669  -0.081902
     4  N   -0.677081  -0.078241
     5  N   -0.673019  -0.113600
     6  C    0.332174   0.040810
     7  C    0.044444  -0.001469
     8  C    0.047562   0.019269
     9  C    0.328811   0.033935
    10  C    0.318704   0.024114
    11  C    0.047475   0.016256
    12  C    0.013601  -0.001007
    13  C    0.309341   0.037898
    14  C    0.311728   0.035121
    15  C    0.043700  -0.006273
    16  C    0.002221   0.018920
    17  C    0.314231   0.020248
    18  C    0.309709   0.030477
    19  C    0.044997   0.018965
    20  C    0.041028  -0.004473
    21  C    0.314410   0.042262
    22  C   -0.280298  -0.082436
    23  H    0.201804   0.003862
    24  C   -0.276931  -0.091492
    25  H    0.202330   0.004234
    26  C   -0.278696  -0.091390
    27  H    0.203870   0.004153
    28  C   -0.294486  -0.086426
    29  H    0.207360   0.004104
    30  C   -0.613621  -0.001759
    31  H    0.208066  -0.000111
    32  H    0.206272   0.001148
    33  H    0.209813   0.001094
    34  C   -0.613427  -0.000793
    35  H    0.208705   0.000304
    36  H    0.204784   0.000365
    37  H    0.208061  -0.000196
    38  C   -0.615871  -0.001531
    39  H    0.212571   0.001197
    40  H    0.196865   0.000414
    41  H    0.214919   0.000157
    42  C   -0.155856  -0.002682
    43  H    0.178311   0.000064
    44  C   -0.385911   0.004534
    45  H    0.193106  -0.000227
    46  H    0.197606  -0.000286
    47  C   -0.606147  -0.000212
    48  H    0.215795   0.000066
    49  H    0.200634   0.000032
    50  H    0.207848  -0.000199
    51  C   -0.161431  -0.005934
    52  H    0.192014   0.000720
    53  C   -0.391107   0.008776
    54  H    0.199350  -0.000463
    55  H    0.188725  -0.000505
    56  C   -0.611622  -0.001645
    57  H    0.210323   0.001005
    58  H    0.203191   0.001088
    59  H    0.208111  -0.000074
    60  C   -0.612629  -0.000451
    61  H    0.207450  -0.000166
    62  H    0.203062   0.000229
    63  H    0.210916   0.000139
    64  C   -0.701020   0.007186
    65  H    0.253804  -0.001345
    66  H    0.252265  -0.004744
    67  H    0.252401   0.000030
    68  S    0.185469  -0.143476
    69  H    0.181028   0.005150
 Sum of Mulliken charges =   1.00000   1.00000
 Mulliken charges and spin densities with hydrogens summed into heavy atoms:
               1          2
     1  Fe   0.657468   1.531699
     2  N   -0.681614  -0.114515
     3  N   -0.677669  -0.081902
     4  N   -0.677081  -0.078241
     5  N   -0.673019  -0.113600
     6  C    0.332174   0.040810
     7  C    0.044444  -0.001469
     8  C    0.047562   0.019269
     9  C    0.328811   0.033935
    10  C    0.318704   0.024114
    11  C    0.047475   0.016256
    12  C    0.013601  -0.001007
    13  C    0.309341   0.037898
    14  C    0.311728   0.035121
    15  C    0.043700  -0.006273
    16  C    0.002221   0.018920
    17  C    0.314231   0.020248
    18  C    0.309709   0.030477
    19  C    0.044997   0.018965
    20  C    0.041028  -0.004473
    21  C    0.314410   0.042262
    22  C   -0.078494  -0.078575
    24  C   -0.074602  -0.087258
    26  C   -0.074826  -0.087237
    28  C   -0.087126  -0.082323
    30  C    0.010530   0.000372
    34  C    0.008123  -0.000320
    38  C    0.008484   0.000237
    42  C    0.022456  -0.002618
    44  C    0.004802   0.004021
    47  C    0.018130  -0.000313
    51  C    0.030583  -0.005214
    53  C   -0.003032   0.007808
    56  C    0.010003   0.000373
    60  C    0.008800  -0.000249
    64  C    0.057450   0.001127
    68  S    0.366497  -0.138326
 Electronic spatial extent (au):  <R**2>=          17825.1313
 Charge=              1.0000 electrons
 Dipole moment (field-independent basis, Debye):
    X=              0.9358    Y=              0.1659    Z=              3.0316  Tot=              3.1770
 Quadrupole moment (field-independent basis, Debye-Ang):
   XX=           -152.7139   YY=           -157.1280   ZZ=           -218.5737
   XY=              0.2938   XZ=              3.6573   YZ=             -5.1256
 Traceless Quadrupole moment (field-independent basis, Debye-Ang):
   XX=             23.4246   YY=             19.0105   ZZ=            -42.4352
   XY=              0.2938   XZ=              3.6573   YZ=             -5.1256
 Octapole moment (field-independent basis, Debye-Ang**2):
  XXX=            -16.6012  YYY=             29.5075  ZZZ=             44.3492  XYY=             -1.6781
  XXY=            -12.7728  XXZ=            -22.6471  XZZ=             18.7018  YZZ=             -2.9611
  YYZ=            -13.7128  XYZ=             12.2616
 Hexadecapole moment (field-independent basis, Debye-Ang**3):
 XXXX=          -9949.2149 YYYY=          -9269.3430 ZZZZ=          -1012.7010 XXXY=            156.8210
 XXXZ=             49.6521 YYYX=           -115.3061 YYYZ=           -101.6555 ZZZX=             52.7615
 ZZZY=            -40.3017 XXYY=          -3137.3840 XXZZ=          -2193.3281 YYZZ=          -2077.0217
 XXYZ=             48.5344 YYXZ=            -21.2562 ZZXY=            -13.1033
 N-N= 5.053046500849D+03 E-N=-1.732309413645D+04  KE= 3.069918367243D+03
                          Isotropic Fermi Contact Couplings
        Atom                 a.u.       MegaHertz       Gauss      10(-4) cm-1
     1  Fe(57)             0.26381      38.26341      13.65334      12.76330
     2  N(14)             -0.05055     -16.33414      -5.82843      -5.44848
     3  N(14)             -0.03948     -12.75602      -4.55167      -4.25495
     4  N(14)             -0.04276     -13.81558      -4.92974      -4.60838
     5  N(14)             -0.04396     -14.20213      -5.06767      -4.73732
     6  C(13)              0.00566       6.36824       2.27235       2.12422
     7  C(13)             -0.00164      -1.84521      -0.65842      -0.61549
     8  C(13)              0.00177       1.98728       0.70911       0.66289
     9  C(13)              0.00655       7.35913       2.62592       2.45474
    10  C(13)              0.00477       5.35782       1.91180       1.78718
    11  C(13)              0.00142       1.59539       0.56927       0.53216
    12  C(13)             -0.00145      -1.62932      -0.58138      -0.54348
    13  C(13)              0.00532       5.98448       2.13541       1.99621
    14  C(13)              0.00431       4.84755       1.72973       1.61697
    15  C(13)             -0.00224      -2.51702      -0.89814      -0.83959
    16  C(13)              0.00193       2.16449       0.77234       0.72199
    17  C(13)              0.00464       5.21863       1.86214       1.74075
    18  C(13)              0.00631       7.09110       2.53028       2.36534
    19  C(13)              0.00192       2.15832       0.77014       0.71994
    20  C(13)             -0.00186      -2.09601      -0.74791      -0.69915
    21  C(13)              0.00649       7.29913       2.60451       2.43473
    22  C(13)             -0.01098     -12.34604      -4.40537      -4.11820
    23  H(1)               0.00132       5.88187       2.09880       1.96198
    24  C(13)             -0.01215     -13.66407      -4.87568      -4.55784
    25  H(1)               0.00144       6.42534       2.29272       2.14326
    26  C(13)             -0.01208     -13.58193      -4.84637      -4.53044
    27  H(1)               0.00142       6.32570       2.25717       2.11003
    28  C(13)             -0.01119     -12.57975      -4.48877      -4.19615
    29  H(1)               0.00139       6.22329       2.22062       2.07586
    30  C(13)             -0.00067      -0.74826      -0.26700      -0.24959
    31  H(1)              -0.00005      -0.21754      -0.07762      -0.07256
    32  H(1)               0.00055       2.44140       0.87115       0.81436
    33  H(1)               0.00051       2.27058       0.81020       0.75738
    34  C(13)             -0.00035      -0.38906      -0.13883      -0.12978
    35  H(1)               0.00004       0.19074       0.06806       0.06362
    36  H(1)               0.00010       0.44991       0.16054       0.15007
    37  H(1)              -0.00009      -0.39688      -0.14162      -0.13239
    38  C(13)             -0.00049      -0.54678      -0.19511      -0.18239
    39  H(1)               0.00065       2.89585       1.03331       0.96595
    40  H(1)               0.00026       1.14304       0.40787       0.38128
    41  H(1)               0.00007       0.32572       0.11623       0.10865
    42  C(13)             -0.00048      -0.53921      -0.19240      -0.17986
    43  H(1)               0.00007       0.31983       0.11412       0.10668
    44  C(13)              0.00055       0.62327       0.22240       0.20790
    45  H(1)              -0.00007      -0.32103      -0.11455      -0.10708
    46  H(1)              -0.00010      -0.45019      -0.16064      -0.15017
    47  C(13)             -0.00017      -0.19085      -0.06810      -0.06366
    48  H(1)               0.00009       0.39513       0.14099       0.13180
    49  H(1)               0.00004       0.17638       0.06294       0.05883
    50  H(1)              -0.00009      -0.40647      -0.14504      -0.13558
    51  C(13)             -0.00126      -1.41945      -0.50650      -0.47348
    52  H(1)               0.00034       1.51515       0.54064       0.50540
    53  C(13)              0.00146       1.64631       0.58745       0.54915
    54  H(1)              -0.00015      -0.67071      -0.23933      -0.22373
    55  H(1)              -0.00016      -0.70679      -0.25220      -0.23576
    56  C(13)             -0.00057      -0.64112      -0.22877      -0.21385
    57  H(1)               0.00046       2.04157       0.72848       0.68100
    58  H(1)               0.00049       2.20993       0.78856       0.73715
    59  H(1)              -0.00003      -0.15537      -0.05544      -0.05183
    60  C(13)             -0.00015      -0.16875      -0.06021      -0.05629
    61  H(1)              -0.00008      -0.35647      -0.12720      -0.11891
    62  H(1)               0.00000       0.01312       0.00468       0.00438
    63  H(1)              -0.00004      -0.17434      -0.06221      -0.05815
    64  C(13)              0.00191       2.14593       0.76572       0.71581
    65  H(1)              -0.00146      -6.50944      -2.32273      -2.17132
    66  H(1)              -0.00289     -12.91929      -4.60993      -4.30941
    67  H(1)               0.00009       0.40449       0.14433       0.13492
    68  S(33)             -0.03958     -13.59312      -4.85036      -4.53418
    69  H(1)               0.00168       7.49047       2.67279       2.49855
 --------------------------------------------------------
       Center         ----  Spin Dipole Couplings  ----
                      3XX-RR        3YY-RR        3ZZ-RR
 --------------------------------------------------------
     1   Atom       -0.648779     -0.931954      1.580733
     2   Atom        0.088094      0.080349     -0.168443
     3   Atom        0.030764      0.040791     -0.071555
     4   Atom        0.041803      0.032698     -0.074501
     5   Atom        0.078585      0.086319     -0.164904
     6   Atom       -0.025966     -0.007581      0.033547
     7   Atom       -0.004533     -0.001022      0.005555
     8   Atom       -0.011663     -0.010838      0.022501
     9   Atom       -0.016608     -0.004965      0.021573
    10   Atom        0.003972     -0.017181      0.013209
    11   Atom       -0.006633     -0.012302      0.018935
    12   Atom       -0.002795     -0.001943      0.004738
    13   Atom       -0.008470     -0.021016      0.029486
    14   Atom       -0.022689     -0.004604      0.027293
    15   Atom       -0.001675      0.003358     -0.001682
    16   Atom       -0.010894     -0.008602      0.019496
    17   Atom       -0.007782      0.000192      0.007589
    18   Atom        0.002916     -0.019966      0.017050
    19   Atom       -0.007643     -0.013066      0.020709
    20   Atom       -0.000988     -0.000343      0.001331
    21   Atom       -0.009340     -0.023890      0.033230
    22   Atom        0.034905      0.042370     -0.077275
    23   Atom        0.002015     -0.000204     -0.001811
    24   Atom        0.047603      0.040970     -0.088573
    25   Atom       -0.000656      0.002420     -0.001764
    26   Atom        0.040274      0.047362     -0.087636
    27   Atom        0.002388     -0.000672     -0.001716
    28   Atom        0.046125      0.038819     -0.084944
    29   Atom       -0.000840      0.002667     -0.001827
    30   Atom        0.000232      0.000129     -0.000361
    31   Atom       -0.000208      0.000856     -0.000648
    32   Atom        0.000651     -0.000022     -0.000629
    33   Atom        0.000658      0.000029     -0.000688
    34   Atom       -0.000433      0.001302     -0.000868
    35   Atom       -0.000636      0.001307     -0.000671
    36   Atom       -0.000599      0.001260     -0.000660
    37   Atom       -0.000753      0.001348     -0.000596
    38   Atom        0.001336     -0.001161     -0.000176
    39   Atom        0.001344     -0.000758     -0.000586
    40   Atom        0.001019     -0.000371     -0.000648
    41   Atom        0.001348     -0.000716     -0.000632
    42   Atom        0.001073      0.000654     -0.001727
    43   Atom       -0.000007      0.000617     -0.000610
    44   Atom       -0.000225     -0.001434      0.001659
    45   Atom        0.000667     -0.000182     -0.000484
    46   Atom        0.000199      0.000213     -0.000412
    47   Atom       -0.000640      0.001053     -0.000413
    48   Atom       -0.000633      0.001295     -0.000662
    49   Atom       -0.000585      0.001133     -0.000548
    50   Atom       -0.000700      0.001259     -0.000558
    51   Atom        0.001219      0.000677     -0.001896
    52   Atom        0.000063      0.000611     -0.000675
    53   Atom        0.000821     -0.001289      0.000468
    54   Atom        0.000517      0.000142     -0.000660
    55   Atom        0.000499      0.000145     -0.000644
    56   Atom        0.001651     -0.001072     -0.000579
    57   Atom        0.001299     -0.000618     -0.000680
    58   Atom        0.001246     -0.000620     -0.000626
    59   Atom        0.001415     -0.000785     -0.000629
    60   Atom        0.000606      0.000538     -0.001144
    61   Atom        0.000621     -0.000047     -0.000574
    62   Atom        0.000106      0.000534     -0.000640
    63   Atom        0.000229      0.000426     -0.000655
    64   Atom        0.004961     -0.002053     -0.002908
    65   Atom       -0.000779     -0.002626      0.003405
    66   Atom       -0.001781     -0.001240      0.003022
    67   Atom       -0.000510     -0.002550      0.003061
    68   Atom        0.255720      0.311768     -0.567488
    69   Atom       -0.004788     -0.007241      0.012030
 --------------------------------------------------------
                        XY            XZ            YZ
 --------------------------------------------------------
     1   Atom       -0.126992      0.386057      0.524197
     2   Atom       -0.000116     -0.016412      0.055180
     3   Atom       -0.008134     -0.049393     -0.023648
     4   Atom       -0.001567     -0.000454     -0.031261
     5   Atom       -0.005315      0.085636      0.031331
     6   Atom       -0.005000      0.000687      0.004572
     7   Atom        0.001433      0.000557     -0.000762
     8   Atom       -0.002260      0.000081      0.001570
     9   Atom       -0.009318      0.002032      0.001562
    10   Atom        0.001063     -0.004386      0.003610
    11   Atom       -0.000544      0.000717      0.000252
    12   Atom        0.002484     -0.001887     -0.000147
    13   Atom        0.008058      0.001654      0.001729
    14   Atom       -0.003548      0.000726     -0.005198
    15   Atom        0.001035      0.001917     -0.003886
    16   Atom       -0.003281      0.002801     -0.004808
    17   Atom       -0.011541      0.006879     -0.005407
    18   Atom        0.002020     -0.004024      0.000780
    19   Atom       -0.000091     -0.004559     -0.001470
    20   Atom        0.002362     -0.003074     -0.000095
    21   Atom        0.007633     -0.005160     -0.002935
    22   Atom        0.004993      0.003515     -0.000444
    23   Atom       -0.001685      0.000334      0.000271
    24   Atom       -0.005290     -0.005981     -0.003421
    25   Atom        0.002593     -0.000489     -0.000047
    26   Atom        0.004808     -0.005713     -0.004661
    27   Atom       -0.002175     -0.000374     -0.000446
    28   Atom       -0.005096      0.008140     -0.003768
    29   Atom        0.002007     -0.000079      0.000191
    30   Atom       -0.001360      0.000108     -0.000070
    31   Atom       -0.001015      0.000035     -0.000012
    32   Atom       -0.001096     -0.000382      0.000185
    33   Atom       -0.001128      0.000356     -0.000076
    34   Atom        0.000345     -0.000001     -0.000412
    35   Atom        0.000513     -0.000062     -0.000229
    36   Atom        0.000539      0.000038      0.000256
    37   Atom       -0.000005     -0.000034     -0.000046
    38   Atom       -0.000465     -0.000099      0.000015
    39   Atom       -0.000464      0.000244     -0.000131
    40   Atom       -0.000802     -0.000333      0.000232
    41   Atom        0.000163     -0.000350      0.000028
    42   Atom        0.001558      0.000932     -0.000900
    43   Atom        0.001039     -0.000161     -0.000254
    44   Atom       -0.000332     -0.002698      0.001673
    45   Atom        0.000387      0.000146     -0.000037
    46   Atom        0.000683     -0.000170     -0.000010
    47   Atom        0.000298      0.000035     -0.000191
    48   Atom        0.000527      0.000103      0.000140
    49   Atom        0.000485     -0.000086     -0.000282
    50   Atom       -0.000051      0.000011     -0.000046
    51   Atom       -0.002680     -0.002150     -0.002379
    52   Atom       -0.000934     -0.000032     -0.000143
    53   Atom        0.002783      0.004664      0.004439
    54   Atom       -0.000971      0.000084      0.000260
    55   Atom       -0.000601     -0.000208     -0.000270
    56   Atom       -0.000464     -0.000134     -0.000021
    57   Atom       -0.000615     -0.000169      0.000165
    58   Atom       -0.000652      0.000472     -0.000241
    59   Atom        0.000183      0.000157      0.000032
    60   Atom        0.001067     -0.000187     -0.000207
    61   Atom        0.000953      0.000115      0.000062
    62   Atom        0.001080      0.000259      0.000262
    63   Atom        0.001045     -0.000086     -0.000069
    64   Atom       -0.003797      0.005673     -0.004807
    65   Atom       -0.001524      0.006523     -0.004189
    66   Atom        0.000090      0.001544     -0.000039
    67   Atom        0.000432      0.004858      0.000750
    68   Atom        0.033295      0.212286     -0.178273
    69   Atom       -0.002565     -0.002866     -0.007811
 --------------------------------------------------------


 ---------------------------------------------------------------------------------
              Anisotropic Spin Dipole Couplings in Principal Axis System
 ---------------------------------------------------------------------------------

       Atom             a.u.   MegaHertz   Gauss  10(-4) cm-1        Axes

              Baa    -1.1290   -19.546    -6.975    -6.520  0.4171  0.8794 -0.2295
     1 Fe(57) Bbb    -0.6094   -10.550    -3.765    -3.519  0.8968 -0.4392 -0.0530
              Bcc     1.7384    30.097    10.739    10.039  0.1474  0.1838  0.9719
 
              Baa    -0.1811    -6.984    -2.492    -2.330  0.0595 -0.2061  0.9767
     2 N(14)  Bbb     0.0867     3.345     1.194     1.116  0.8328  0.5498  0.0653
              Bcc     0.0944     3.639     1.299     1.214 -0.5504  0.8095  0.2043
 
              Baa    -0.0961    -3.705    -1.322    -1.236  0.3670  0.1795  0.9127
     3 N(14)  Bbb     0.0451     1.738     0.620     0.580 -0.2723  0.9590 -0.0792
              Bcc     0.0510     1.967     0.702     0.656  0.8895  0.2195 -0.4008
 
              Baa    -0.0830    -3.199    -1.142    -1.067  0.0068  0.2610  0.9653
     4 N(14)  Bbb     0.0400     1.544     0.551     0.515  0.6202  0.7561 -0.2088
              Bcc     0.0429     1.655     0.591     0.552  0.7844 -0.6001  0.1568
 
              Baa    -0.1955    -7.541    -2.691    -2.515 -0.2983 -0.1110  0.9480
     5 N(14)  Bbb     0.0887     3.421     1.221     1.141 -0.2697  0.9625  0.0278
              Bcc     0.1068     4.119     1.470     1.374  0.9156  0.2474  0.3171
 
              Baa    -0.0273    -3.662    -1.307    -1.222  0.9672  0.2523 -0.0299
     6 C(13)  Bbb    -0.0068    -0.907    -0.324    -0.303 -0.2540  0.9615 -0.1047
              Bcc     0.0340     4.569     1.630     1.524  0.0023  0.1089  0.9941
 
              Baa    -0.0051    -0.685    -0.244    -0.228  0.9366 -0.3427 -0.0734
     7 C(13)  Bbb    -0.0006    -0.075    -0.027    -0.025  0.3483  0.9336  0.0847
              Bcc     0.0057     0.759     0.271     0.253  0.0396 -0.1049  0.9937
 
              Baa    -0.0136    -1.822    -0.650    -0.608  0.7628  0.6459 -0.0298
     8 C(13)  Bbb    -0.0090    -1.207    -0.431    -0.403 -0.6466  0.7620 -0.0363
              Bcc     0.0226     3.029     1.081     1.010 -0.0008  0.0470  0.9989
 
              Baa    -0.0219    -2.942    -1.050    -0.981  0.8726  0.4849 -0.0582
     9 C(13)  Bbb     0.0002     0.026     0.009     0.009 -0.4865  0.8735 -0.0176
              Bcc     0.0217     2.916     1.040     0.973  0.0423  0.0437  0.9982
 
              Baa    -0.0177    -2.378    -0.848    -0.793 -0.0739  0.9893 -0.1259
    10 C(13)  Bbb     0.0025     0.334     0.119     0.111  0.9324  0.1134  0.3432
              Bcc     0.0152     2.044     0.729     0.682 -0.3538  0.0921  0.9308
 
              Baa    -0.0124    -1.658    -0.592    -0.553  0.0958  0.9953 -0.0102
    11 C(13)  Bbb    -0.0066    -0.886    -0.316    -0.295  0.9950 -0.0961 -0.0270
              Bcc     0.0190     2.544     0.908     0.849  0.0279  0.0076  0.9996
 
              Baa    -0.0051    -0.682    -0.243    -0.227  0.7795 -0.6105  0.1406
    12 C(13)  Bbb    -0.0002    -0.024    -0.009    -0.008  0.5707  0.7846  0.2423
              Bcc     0.0053     0.706     0.252     0.236 -0.2582 -0.1086  0.9600
 
              Baa    -0.0250    -3.350    -1.195    -1.118 -0.4376  0.8990 -0.0153
    13 C(13)  Bbb    -0.0047    -0.628    -0.224    -0.209  0.8976  0.4358 -0.0655
              Bcc     0.0296     3.978     1.420     1.327  0.0523  0.0424  0.9977
 
              Baa    -0.0234    -3.135    -1.119    -1.046  0.9823  0.1872  0.0051
    14 C(13)  Bbb    -0.0048    -0.643    -0.229    -0.214 -0.1856  0.9693  0.1612
              Bcc     0.0282     3.778     1.348     1.260  0.0252 -0.1593  0.9869
 
              Baa    -0.0052    -0.692    -0.247    -0.231 -0.5305  0.4044  0.7450
    15 C(13)  Bbb    -0.0003    -0.042    -0.015    -0.014  0.8477  0.2541  0.4657
              Bcc     0.0055     0.734     0.262     0.245 -0.0010  0.8786 -0.4776
 
              Baa    -0.0132    -1.776    -0.634    -0.592  0.8071  0.5902  0.0176
    16 C(13)  Bbb    -0.0074    -0.995    -0.355    -0.332 -0.5810  0.7886  0.2014
              Bcc     0.0206     2.770     0.989     0.924  0.1049 -0.1728  0.9794
 
              Baa    -0.0163    -2.186    -0.780    -0.729  0.8312  0.5437 -0.1163
    17 C(13)  Bbb    -0.0002    -0.027    -0.010    -0.009 -0.3119  0.6292  0.7119
              Bcc     0.0165     2.214     0.790     0.738  0.4603 -0.5554  0.6926
 
              Baa    -0.0202    -2.708    -0.966    -0.903 -0.0924  0.9952 -0.0308
    18 C(13)  Bbb     0.0021     0.277     0.099     0.092  0.9625  0.0973  0.2533
              Bcc     0.0181     2.431     0.867     0.811 -0.2551  0.0063  0.9669
 
              Baa    -0.0131    -1.764    -0.630    -0.588  0.0590  0.9969  0.0512
    19 C(13)  Bbb    -0.0083    -1.119    -0.399    -0.373  0.9862 -0.0661  0.1515
              Bcc     0.0215     2.883     1.029     0.962 -0.1544 -0.0416  0.9871
 
              Baa    -0.0041    -0.554    -0.198    -0.185  0.7721 -0.4711  0.4266
    20 C(13)  Bbb     0.0001     0.019     0.007     0.006  0.1889  0.8110  0.5536
              Bcc     0.0040     0.535     0.191     0.178 -0.6068 -0.3469  0.7152
 
              Baa    -0.0272    -3.646    -1.301    -1.216 -0.3908  0.9204  0.0113
    21 C(13)  Bbb    -0.0069    -0.931    -0.332    -0.310  0.9113  0.3852  0.1452
              Bcc     0.0341     4.576     1.633     1.527 -0.1293 -0.0671  0.9893
 
              Baa    -0.0774   -10.385    -3.706    -3.464 -0.0315  0.0050  0.9995
    22 C(13)  Bbb     0.0325     4.362     1.556     1.455  0.8924 -0.4503  0.0304
              Bcc     0.0449     6.023     2.149     2.009  0.4502  0.8929  0.0097
 
              Baa    -0.0020    -1.065    -0.380    -0.355 -0.2215 -0.3462  0.9116
    23 H(1)   Bbb    -0.0009    -0.498    -0.178    -0.166  0.4172  0.8113  0.4095
              Bcc     0.0029     1.563     0.558     0.521  0.8814 -0.4711  0.0352
 
              Baa    -0.0889   -11.935    -4.259    -3.981  0.0448  0.0281  0.9986
    24 C(13)  Bbb     0.0383     5.141     1.835     1.715  0.4718  0.8805 -0.0460
              Bcc     0.0506     6.793     2.424     2.266  0.8805 -0.4732 -0.0262
 
              Baa    -0.0024    -1.278    -0.456    -0.426  0.7401 -0.3934  0.5455
    25 H(1)   Bbb    -0.0015    -0.809    -0.289    -0.270 -0.4528  0.3082  0.8366
              Bcc     0.0039     2.087     0.745     0.696  0.4972  0.8662 -0.0500
 
              Baa    -0.0880   -11.814    -4.215    -3.941  0.0432  0.0328  0.9985
    26 C(13)  Bbb     0.0379     5.088     1.815     1.697  0.8863 -0.4625 -0.0232
              Bcc     0.0501     6.726     2.400     2.244  0.4610  0.8860 -0.0491
 
              Baa    -0.0023    -1.243    -0.444    -0.415  0.3504  0.6431  0.6809
    27 H(1)   Bbb    -0.0012    -0.635    -0.227    -0.212 -0.2964 -0.6135  0.7320
              Bcc     0.0035     1.878     0.670     0.627  0.8885 -0.4583 -0.0244
 
              Baa    -0.0855   -11.479    -4.096    -3.829 -0.0606  0.0277  0.9978
    28 C(13)  Bbb     0.0362     4.858     1.734     1.620  0.4550  0.8905  0.0029
              Bcc     0.0493     6.621     2.363     2.209  0.8884 -0.4541  0.0666
 
              Baa    -0.0019    -1.039    -0.371    -0.347  0.5474 -0.2708  0.7919
    29 H(1)   Bbb    -0.0016    -0.872    -0.311    -0.291  0.7281 -0.3125 -0.6101
              Bcc     0.0036     1.911     0.682     0.638  0.4127  0.9105  0.0261
 
              Baa    -0.0012    -0.158    -0.057    -0.053  0.6943  0.7190 -0.0301
    30 C(13)  Bbb    -0.0004    -0.050    -0.018    -0.017 -0.0269  0.0676  0.9973
              Bcc     0.0016     0.208     0.074     0.069  0.7192 -0.6917  0.0663
 
              Baa    -0.0008    -0.440    -0.157    -0.147  0.8488  0.5117 -0.1332
    31 H(1)   Bbb    -0.0006    -0.344    -0.123    -0.115  0.1071  0.0803  0.9910
              Bcc     0.0015     0.784     0.280     0.262 -0.5177  0.8554 -0.0134
 
              Baa    -0.0009    -0.464    -0.165    -0.155  0.5969  0.6787  0.4279
    32 H(1)   Bbb    -0.0007    -0.359    -0.128    -0.120 -0.1194 -0.4523  0.8839
              Bcc     0.0015     0.822     0.293     0.274  0.7934 -0.5787 -0.1889
 
              Baa    -0.0009    -0.503    -0.179    -0.168 -0.5482 -0.5908  0.5920
    33 H(1)   Bbb    -0.0006    -0.332    -0.118    -0.111  0.2638  0.5496  0.7927
              Bcc     0.0016     0.834     0.298     0.278  0.7936 -0.5907  0.1454
 
              Baa    -0.0010    -0.128    -0.046    -0.043 -0.1298  0.1977  0.9716
    34 C(13)  Bbb    -0.0005    -0.065    -0.023    -0.022  0.9754 -0.1508  0.1610
              Bcc     0.0014     0.193     0.069     0.064  0.1784  0.9686 -0.1732
 
              Baa    -0.0008    -0.407    -0.145    -0.136  0.9696 -0.2311  0.0804
    35 H(1)   Bbb    -0.0007    -0.372    -0.133    -0.124 -0.0520  0.1265  0.9906
              Bcc     0.0015     0.779     0.278     0.260  0.2391  0.9647 -0.1106
 
              Baa    -0.0008    -0.404    -0.144    -0.135  0.8678 -0.2836  0.4080
    36 H(1)   Bbb    -0.0007    -0.362    -0.129    -0.121 -0.4257 -0.0009  0.9049
              Bcc     0.0014     0.766     0.273     0.256  0.2563  0.9589  0.1215
 
              Baa    -0.0008    -0.405    -0.145    -0.135  0.9794  0.0067  0.2020
    37 H(1)   Bbb    -0.0006    -0.315    -0.112    -0.105 -0.2021  0.0225  0.9791
              Bcc     0.0013     0.720     0.257     0.240 -0.0020  0.9997 -0.0234
 
              Baa    -0.0012    -0.167    -0.060    -0.056  0.1774  0.9841  0.0024
    38 C(13)  Bbb    -0.0002    -0.024    -0.009    -0.008  0.0608 -0.0134  0.9981
              Bcc     0.0014     0.191     0.068     0.064  0.9823 -0.1769 -0.0622
 
              Baa    -0.0009    -0.469    -0.167    -0.156  0.1661  0.9442  0.2845
    39 H(1)   Bbb    -0.0006    -0.319    -0.114    -0.106 -0.1804 -0.2546  0.9501
              Bcc     0.0015     0.788     0.281     0.263  0.9695 -0.2091  0.1281
 
              Baa    -0.0008    -0.428    -0.153    -0.143  0.1977  0.7232 -0.6617
    40 H(1)   Bbb    -0.0007    -0.351    -0.125    -0.117  0.4086  0.5528  0.7263
              Bcc     0.0015     0.780     0.278     0.260  0.8911 -0.4139 -0.1863
 
              Baa    -0.0008    -0.409    -0.146    -0.137 -0.1564  0.8071 -0.5694
    41 H(1)   Bbb    -0.0007    -0.348    -0.124    -0.116  0.0931  0.5859  0.8050
              Bcc     0.0014     0.757     0.270     0.253  0.9833  0.0729 -0.1668
 
              Baa    -0.0026    -0.350    -0.125    -0.117 -0.3836  0.4115  0.8267
    42 C(13)  Bbb     0.0002     0.023     0.008     0.008 -0.5241  0.6401 -0.5618
              Bcc     0.0024     0.327     0.117     0.109  0.7604  0.6488  0.0298
 
              Baa    -0.0008    -0.418    -0.149    -0.139  0.7766 -0.6068 -0.1692
    43 H(1)   Bbb    -0.0007    -0.347    -0.124    -0.116  0.2226  0.0131  0.9748
              Bcc     0.0014     0.765     0.273     0.255  0.5894  0.7947 -0.1452
 
              Baa    -0.0027    -0.362    -0.129    -0.121 -0.5419  0.6156 -0.5722
    44 C(13)  Bbb    -0.0013    -0.178    -0.064    -0.059  0.6521  0.7375  0.1759
              Bcc     0.0040     0.540     0.193     0.180 -0.5302  0.2778  0.8011
 
              Baa    -0.0005    -0.284    -0.101    -0.095 -0.2208  0.3399  0.9142
    45 H(1)   Bbb    -0.0003    -0.157    -0.056    -0.052 -0.2909  0.8717 -0.3944
              Bcc     0.0008     0.442     0.158     0.147  0.9309  0.3530  0.0935
 
              Baa    -0.0006    -0.303    -0.108    -0.101  0.5955 -0.5137  0.6176
    46 H(1)   Bbb    -0.0003    -0.178    -0.064    -0.060 -0.3839  0.4933  0.7805
              Bcc     0.0009     0.481     0.172     0.160  0.7057  0.7019 -0.0966
 
              Baa    -0.0007    -0.095    -0.034    -0.032  0.9544 -0.1868 -0.2330
    47 C(13)  Bbb    -0.0004    -0.056    -0.020    -0.019  0.2502  0.0744  0.9653
              Bcc     0.0011     0.151     0.054     0.050  0.1630  0.9796 -0.1177
 
              Baa    -0.0008    -0.427    -0.153    -0.143  0.8702 -0.1882 -0.4553
    48 H(1)   Bbb    -0.0006    -0.342    -0.122    -0.114  0.4252 -0.1799  0.8870
              Bcc     0.0014     0.770     0.275     0.257  0.2489  0.9655  0.0765
 
              Baa    -0.0007    -0.381    -0.136    -0.127  0.9664 -0.2397  0.0931
    49 H(1)   Bbb    -0.0006    -0.317    -0.113    -0.106 -0.0513  0.1751  0.9832
              Bcc     0.0013     0.698     0.249     0.233  0.2520  0.9549 -0.1569
 
              Baa    -0.0007    -0.375    -0.134    -0.125  0.9973  0.0242 -0.0697
    50 H(1)   Bbb    -0.0006    -0.298    -0.106    -0.099  0.0690  0.0273  0.9972
              Bcc     0.0013     0.673     0.240     0.224 -0.0260  0.9993 -0.0255
 
              Baa    -0.0050    -0.675    -0.241    -0.225  0.4686  0.5184  0.7154
    51 C(13)  Bbb     0.0014     0.186     0.066     0.062 -0.4799 -0.5305  0.6988
              Bcc     0.0036     0.489     0.174     0.163  0.7417 -0.6707  0.0002
 
              Baa    -0.0008    -0.412    -0.147    -0.137  0.4885  0.4099  0.7703
    52 H(1)   Bbb    -0.0005    -0.290    -0.104    -0.097  0.6368  0.4361 -0.6359
              Bcc     0.0013     0.702     0.250     0.234 -0.5965  0.8012 -0.0480
 
              Baa    -0.0052    -0.693    -0.247    -0.231 -0.2678 -0.6364  0.7234
    53 C(13)  Bbb    -0.0029    -0.394    -0.141    -0.132  0.7572 -0.6032 -0.2505
              Bcc     0.0081     1.087     0.388     0.363  0.5958  0.4807  0.6434
 
              Baa    -0.0009    -0.488    -0.174    -0.163 -0.4230 -0.5626  0.7103
    54 H(1)   Bbb    -0.0004    -0.218    -0.078    -0.073  0.4841  0.5223  0.7020
              Bcc     0.0013     0.706     0.252     0.236  0.7660 -0.6408 -0.0514
 
              Baa    -0.0009    -0.456    -0.163    -0.152  0.3171  0.4203  0.8502
    55 H(1)   Bbb    -0.0001    -0.050    -0.018    -0.017  0.5072  0.6823 -0.5265
              Bcc     0.0009     0.506     0.181     0.169  0.8014 -0.5982 -0.0032
 
              Baa    -0.0012    -0.155    -0.055    -0.052  0.1663  0.9832  0.0752
    56 C(13)  Bbb    -0.0006    -0.078    -0.028    -0.026  0.0426 -0.0834  0.9956
              Bcc     0.0017     0.233     0.083     0.078  0.9852 -0.1623 -0.0558
 
              Baa    -0.0009    -0.465    -0.166    -0.155  0.1900  0.8186 -0.5421
    57 H(1)   Bbb    -0.0006    -0.335    -0.120    -0.112  0.2323  0.4990  0.8349
              Bcc     0.0015     0.800     0.285     0.267  0.9539 -0.2845 -0.0954
 
              Baa    -0.0009    -0.470    -0.168    -0.157  0.1366  0.8337  0.5351
    58 H(1)   Bbb    -0.0007    -0.370    -0.132    -0.124 -0.3533 -0.4637  0.8125
              Bcc     0.0016     0.841     0.300     0.280  0.9255 -0.3001  0.2312
 
              Baa    -0.0008    -0.428    -0.153    -0.143 -0.0735  0.9907 -0.1142
    59 H(1)   Bbb    -0.0006    -0.341    -0.122    -0.114 -0.0854  0.1078  0.9905
              Bcc     0.0014     0.769     0.275     0.257  0.9936  0.0826  0.0767
 
              Baa    -0.0012    -0.157    -0.056    -0.052  0.0513  0.0885  0.9948
    60 C(13)  Bbb    -0.0005    -0.066    -0.024    -0.022 -0.6981  0.7155 -0.0276
              Bcc     0.0017     0.224     0.080     0.075  0.7142  0.6930 -0.0985
 
              Baa    -0.0007    -0.386    -0.138    -0.129 -0.5807  0.8068  0.1086
    61 H(1)   Bbb    -0.0006    -0.310    -0.111    -0.103  0.0070 -0.1284  0.9917
              Bcc     0.0013     0.697     0.249     0.232  0.8141  0.5767  0.0689
 
              Baa    -0.0008    -0.424    -0.151    -0.141  0.7606 -0.5511 -0.3432
    62 H(1)   Bbb    -0.0007    -0.368    -0.131    -0.123  0.1669 -0.3448  0.9237
              Bcc     0.0015     0.792     0.283     0.264  0.6274  0.7599  0.1703
 
              Baa    -0.0007    -0.388    -0.138    -0.129  0.7257 -0.6434  0.2438
    63 H(1)   Bbb    -0.0007    -0.350    -0.125    -0.117 -0.1456  0.2027  0.9684
              Bcc     0.0014     0.738     0.263     0.246  0.6725  0.7382 -0.0534
 
              Baa    -0.0076    -1.024    -0.365    -0.341 -0.1930  0.5620  0.8043
    64 C(13)  Bbb    -0.0029    -0.385    -0.138    -0.129  0.6031  0.7145 -0.3546
              Bcc     0.0105     1.409     0.503     0.470  0.7739 -0.4167  0.4769
 
              Baa    -0.0062    -3.309    -1.181    -1.104 -0.6221  0.4691  0.6269
    65 H(1)   Bbb    -0.0035    -1.848    -0.660    -0.617  0.5725  0.8187 -0.0444
              Bcc     0.0097     5.158     1.840     1.720  0.5341 -0.3313  0.7778
 
              Baa    -0.0022    -1.197    -0.427    -0.399  0.9549 -0.0968 -0.2807
    66 H(1)   Bbb    -0.0012    -0.657    -0.234    -0.219  0.0936  0.9953 -0.0249
              Bcc     0.0035     1.854     0.662     0.618  0.2818 -0.0025  0.9595
 
              Baa    -0.0039    -2.084    -0.744    -0.695  0.8159  0.0582 -0.5753
    67 H(1)   Bbb    -0.0026    -1.402    -0.500    -0.468 -0.1020  0.9938 -0.0440
              Bcc     0.0065     3.486     1.244     1.163  0.5692  0.0946  0.8168
 
              Baa    -0.6530   -26.773    -9.553    -8.930 -0.2300  0.1845  0.9555
    68 S(33)  Bbb     0.3050    12.505     4.462     4.171  0.9566  0.2233  0.1871
              Bcc     0.3480    14.267     5.091     4.759 -0.1789  0.9571 -0.2279
 
              Baa    -0.0117    -6.238    -2.226    -2.081  0.4457  0.8329  0.3281
    69 H(1)   Bbb    -0.0033    -1.752    -0.625    -0.584  0.8901 -0.4513 -0.0636
              Bcc     0.0150     7.989     2.851     2.665 -0.0951 -0.3204  0.9425
 

 ---------------------------------------------------------------------------------

 Unable to Open any file for archive entry.
 1\1\GINC-BGN1009\SP\UAPFD\Gen\C31H32Fe1N4S1(1+,2)\BECSLEIP\13-Nov-2024
 \0\\# apfd/gen scf=maxcycle=999 geom=check\\6m7l_III_D\\1,2\Fe,0,28.57
 21737361,33.5728533311,-8.2644268709\N,0,26.9260150815,32.7573169851,-
 7.5029064158\N,0,28.7148729139,34.739178195,-6.6176475323\N,0,30.25508
 10587,34.4120463642,-8.9624631523\N,0,28.5167746453,32.3480338636,-9.8
 15462096\C,0,26.2031644191,31.7503586764,-8.0660373261\C,0,25.09750054
 36,31.372950044,-7.2126719043\C,0,25.167775128,32.1771293889,-6.119783
 2077\C,0,26.3146451878,33.0351335903,-6.3207009048\C,0,27.8253993175,3
 4.8129431274,-5.5864741968\C,0,28.1890932432,35.8532932191,-4.66053061
 53\C,0,29.3297565131,36.426170581,-5.1546378314\C,0,29.6335989858,35.7
 163245791,-6.3799785555\C,0,31.0221788543,35.3672839135,-8.3655723061\
 C,0,32.200914214,35.6387134431,-9.1427542225\C,0,32.1450084883,34.8138
 951651,-10.2328391431\C,0,30.9149431475,34.0622566264,-10.1029976103\C
 ,0,29.335814565,32.3663639824,-10.9034136566\C,0,28.8439633547,31.4768
 538572,-11.9303973582\C,0,27.7044409654,30.9196348596,-11.4387437161\C
 ,0,27.5134856459,31.480179453,-10.1203579719\C,0,26.4563183499,31.1629
 516181,-9.2900141352\H,0,25.7629077558,30.4109998507,-9.6331599484\C,0
 ,26.7177786147,34.0017615082,-5.4253611891\H,0,26.1258893259,34.135126
 1115,-4.5337192321\C,0,30.7232494311,36.0030010224,-7.1756689218\H,0,3
 1.4062314194,36.7658811598,-6.8366931318\C,0,30.4782427941,33.13139096
 18,-11.0274547756\H,0,31.0553666884,33.0271551868,-11.9326234283\C,0,2
 4.2866325778,32.2251757669,-4.9201091252\H,0,23.4959977844,31.48268104
 53,-4.9914014524\H,0,23.8264638945,33.2085884808,-4.8233332982\H,0,24.
 8617294368,32.0292269569,-4.0151362898\C,0,24.1159827387,30.2999977366
 ,-7.5348566746\H,0,24.6242233488,29.3469443248,-7.6805953539\H,0,23.57
 45452729,30.5392812754,-8.4503631838\H,0,23.3939040889,30.1839643243,-
 6.7307332421\C,0,27.4047810157,36.2449819225,-3.4582793526\H,0,27.6329
 77912,35.5901256528,-2.616038615\H,0,26.3362148142,36.1817088662,-3.65
 65343889\H,0,27.6471044674,37.266869728,-3.1740821595\C,0,30.097224279
 ,37.5359034031,-4.6321303678\H,0,30.5535387085,38.1813461961,-5.373820
 2147\C,0,30.2771233614,37.8074424675,-3.3440952369\H,0,29.8885076249,3
 7.1758311122,-2.5646299961\H,0,30.8483458509,38.6631696974,-3.02482922
 81\C,0,33.265668884,36.6096950108,-8.7693851156\H,0,33.7256114225,36.3
 27710132,-7.8222150651\H,0,32.8508829884,37.6120776506,-8.6571830117\H
 ,0,34.0409226263,36.6359481704,-9.5307803121\C,0,33.1332453652,34.6979
 939574,-11.2885574814\H,0,33.5598706641,35.636298022,-11.6265240829\C,
 0,33.5655839515,33.56010285,-11.8174751561\H,0,34.3109221961,33.546941
 515,-12.5951902569\H,0,33.2142512414,32.6018337731,-11.4741875259\C,0,
 29.5101808367,31.2673430657,-13.2458775018\H,0,30.5213092243,30.885488
 7212,-13.1056542009\H,0,29.5779686481,32.2063603055,-13.795836375\H,0,
 28.9558609431,30.5541706176,-13.8505610429\C,0,26.7846016726,29.934188
 6675,-12.0721106229\H,0,27.1223353494,29.6783834295,-13.073170885\H,0,
 25.7758423419,30.3412650695,-12.1424382404\H,0,26.7395712932,29.019474
 9306,-11.4809408816\C,0,27.6977096462,35.325941193,-11.0811645982\H,0,
 28.7708670623,35.2395653593,-11.2153500133\H,0,27.3231705836,36.263071
 6646,-11.4807076812\H,0,27.1989894188,34.4896460533,-11.5597296674\S,0
 ,27.2870190563,35.232868329,-9.3001115306\H,0,28.0187330198,36.3022118
 904,-8.9593892153\\Version=ES64L-G16RevC.02\State=2-A\HF=-3080.0376221
 \S2=1.35382\S2-1=0.\S2A=0.788573\RMSD=5.016e-09\Dipole=-0.6152938,0.65
 04618,-0.8721681\Quadrupole=-2.5846634,-6.7604862,9.3451496,19.069027,
 -11.908994,13.9955252\PG=C01 [X(C31H32Fe1N4S1)]\\@
 The archive entry for this job was punched.


       THE DEATH-KNELL OF THE ATOM

 SO THE ATOMS IN TURN, WE NOW CLEARLY DISCERN,
 FLY TO BITS WITH THE UTMOST FACILITY;
 THEY WEND ON THEIR WAY, AND, IN SPLITTING, DISPLAY
 AN ABSOLUTE LACK OF STABILITY.

          SIR WM. RAMSAY, 1905
 Job cpu time:       0 days  3 hours 18 minutes  0.2 seconds.
 Elapsed time:       0 days  0 hours  3 minutes 23.3 seconds.
 File lengths (MBytes):  RWF=    343 Int=      0 D2E=      0 Chk=    150 Scr=      1
 Normal termination of Gaussian 16 at Wed Nov 13 13:29:42 2024.
