 Entering Gaussian System, Link 0=g16
 Input=6m7l16re.com
 Output=6m7l16re.log
 Initial command:
 /sw/chem/gaussian/g16_C02/a100/g16/l1.exe "/local/becsleip_8079399/Gau-1415096.inp" -scrdir="/local/becsleip_8079399/"
 Entering Link 1 = /sw/chem/gaussian/g16_C02/a100/g16/l1.exe PID=   1415097.
  
 Copyright (c) 1988-2021, Gaussian, Inc.  All Rights Reserved.
  
 This is part of the Gaussian(R) 16 program.  It is based on
 the Gaussian(R) 09 system (copyright 2009, Gaussian, Inc.),
 the Gaussian(R) 03 system (copyright 2003, Gaussian, Inc.),
 the Gaussian(R) 98 system (copyright 1998, Gaussian, Inc.),
 the Gaussian(R) 94 system (copyright 1995, Gaussian, Inc.),
 the Gaussian 92(TM) system (copyright 1992, Gaussian, Inc.),
 the Gaussian 90(TM) system (copyright 1990, Gaussian, Inc.),
 the Gaussian 88(TM) system (copyright 1988, Gaussian, Inc.),
 the Gaussian 86(TM) system (copyright 1986, Carnegie Mellon
 University), and the Gaussian 82(TM) system (copyright 1983,
 Carnegie Mellon University). Gaussian is a federally registered
 trademark of Gaussian, Inc.
  
 This software contains proprietary and confidential information,
 including trade secrets, belonging to Gaussian, Inc.
  
 This software is provided under written license and may be
 used, copied, transmitted, or stored only in accord with that
 written license.
  
 The following legend is applicable only to US Government
 contracts under FAR:
  
                    RESTRICTED RIGHTS LEGEND
  
 Use, reproduction and disclosure by the US Government is
 subject to restrictions as set forth in subparagraphs (a)
 and (c) of the Commercial Computer Software - Restricted
 Rights clause in FAR 52.227-19.
  
 Gaussian, Inc.
 340 Quinnipiac St., Bldg. 40, Wallingford CT 06492
  
  
 ---------------------------------------------------------------
 Warning -- This program may not be used in any manner that
 competes with the business of Gaussian, Inc. or will provide
 assistance to any competitor of Gaussian, Inc.  The licensee
 of this program is prohibited from giving any competitor of
 Gaussian, Inc. access to this program.  By using this program,
 the user acknowledges that Gaussian, Inc. is engaged in the
 business of creating and licensing software in the field of
 computational chemistry and represents and warrants to the
 licensee that it is not a competitor of Gaussian, Inc. and that
 it will not use this program in any manner prohibited above.
 ---------------------------------------------------------------
  

 Cite this work as:
 Gaussian 16, Revision C.02,
 M. J. Frisch, G. W. Trucks, H. B. Schlegel, G. E. Scuseria, 
 M. A. Robb, J. R. Cheeseman, G. Scalmani, V. Barone, 
 G. A. Petersson, H. Nakatsuji, X. Li, M. Caricato, A. V. Marenich, 
 J. Bloino, B. G. Janesko, R. Gomperts, B. Mennucci, H. P. Hratchian, 
 J. V. Ortiz, A. F. Izmaylov, J. L. Sonnenberg, D. Williams-Young, 
 F. Ding, F. Lipparini, F. Egidi, J. Goings, B. Peng, A. Petrone, 
 T. Henderson, D. Ranasinghe, V. G. Zakrzewski, J. Gao, N. Rega, 
 G. Zheng, W. Liang, M. Hada, M. Ehara, K. Toyota, R. Fukuda, 
 J. Hasegawa, M. Ishida, T. Nakajima, Y. Honda, O. Kitao, H. Nakai, 
 T. Vreven, K. Throssell, J. A. Montgomery, Jr., J. E. Peralta, 
 F. Ogliaro, M. J. Bearpark, J. J. Heyd, E. N. Brothers, K. N. Kudin, 
 V. N. Staroverov, T. A. Keith, R. Kobayashi, J. Normand, 
 K. Raghavachari, A. P. Rendell, J. C. Burant, S. S. Iyengar, 
 J. Tomasi, M. Cossi, J. M. Millam, M. Klene, C. Adamo, R. Cammi, 
 J. W. Ochterski, R. L. Martin, K. Morokuma, O. Farkas, 
 J. B. Foresman, and D. J. Fox, Gaussian, Inc., Wallingford CT, 2019.
 
 ******************************************
 Gaussian 16:  ES64L-G16RevC.02  7-Dec-2021
                13-Nov-2024 
 ******************************************
 %mem=16GB
 %CPU=0-71
 SetSPE:  set environment variable "OMP_PROC_BIND" = "true"
 SetSPE:  set environment variable "OMP_PLACES" = "{0},{1},{2},{3},{4},{5},{6},{7},{8},{9},{10},{11},{12},{13},{14},{15},{16},{17},{18},{19},{20},{21},{22},{23},{24},{25},{26},{27},{28},{29},{30},{31},{32},{33},{34},{35},{36},{37},{38},{39},{40},{41},{42},{43},{44},{45},{46},{47},{48},{49},{50},{51},{52},{53},{54},{55},{56},{57},{58},{59},{60},{61},{62},{63},{64},{65},{66},{67},{68},{69},{70},{71}"
 Will use up to   72 processors via shared memory.
 %gpucpu=0,1,2,3=0,1,2,3
 Will use    4 GPUs:
 Thread  CPU   GPU
      0    0     0
      1    1     1
      2    2     2
      3    3     3
      4    4    -1
      5    5    -1
      6    6    -1
      7    7    -1
      8    8    -1
      9    9    -1
     10   10    -1
     11   11    -1
     12   12    -1
     13   13    -1
     14   14    -1
     15   15    -1
     16   16    -1
     17   17    -1
     18   18    -1
     19   19    -1
     20   20    -1
     21   21    -1
     22   22    -1
     23   23    -1
     24   24    -1
     25   25    -1
     26   26    -1
     27   27    -1
     28   28    -1
     29   29    -1
     30   30    -1
     31   31    -1
     32   32    -1
     33   33    -1
     34   34    -1
     35   35    -1
     36   36    -1
     37   37    -1
     38   38    -1
     39   39    -1
     40   40    -1
     41   41    -1
     42   42    -1
     43   43    -1
     44   44    -1
     45   45    -1
     46   46    -1
     47   47    -1
     48   48    -1
     49   49    -1
     50   50    -1
     51   51    -1
     52   52    -1
     53   53    -1
     54   54    -1
     55   55    -1
     56   56    -1
     57   57    -1
     58   58    -1
     59   59    -1
     60   60    -1
     61   61    -1
     62   62    -1
     63   63    -1
     64   64    -1
     65   65    -1
     66   66    -1
     67   67    -1
     68   68    -1
     69   69    -1
     70   70    -1
     71   71    -1
 SetGPE:  set environment variable "OMP_PROC_BIND" = "true"
 SetGPE:  set environment variable "OMP_PLACES" = "{0},{1},{2},{3},{4},{5},{6},{7},{8},{9},{10},{11},{12},{13},{14},{15},{16},{17},{18},{19},{20},{21},{22},{23},{24},{25},{26},{27},{28},{29},{30},{31},{32},{33},{34},{35},{36},{37},{38},{39},{40},{41},{42},{43},{44},{45},{46},{47},{48},{49},{50},{51},{52},{53},{54},{55},{56},{57},{58},{59},{60},{61},{62},{63},{64},{65},{66},{67},{68},{69},{70},{71}"
 %oldchk=6m7l_III_D.chk
 %chk=6m7l_III_Dre.chk
 Properties for Device   0
 Minimum vector length:                              32
 Maximum vector length:                            1024
 Number of SMPs:                                    108
 Maximum number of threads per SMP:                2048
 Number of ASync Engines:                             5
 Memory:                                           9207742464
 Properties for Device   1
 Minimum vector length:                              32
 Maximum vector length:                            1024
 Number of SMPs:                                    108
 Maximum number of threads per SMP:                2048
 Number of ASync Engines:                             5
 Memory:                                           9207742464
 Properties for Device   2
 Minimum vector length:                              32
 Maximum vector length:                            1024
 Number of SMPs:                                    108
 Maximum number of threads per SMP:                2048
 Number of ASync Engines:                             5
 Memory:                                           9207742464
 Properties for Device   3
 Minimum vector length:                              32
 Maximum vector length:                            1024
 Number of SMPs:                                    108
 Maximum number of threads per SMP:                2048
 Number of ASync Engines:                             5
 Memory:                                           9207742464
   8286968217 words of memory will be used on each GPU.
 Copying data from "6m7l_III_D.chk" to current chk file "6m7l_III_Dre.chk"
 IOpt=  2 FromEx=T IUOpen= 4 IOptOp= 5 NList=   0 IFRang= 0 IUIn= 4 IUOut= 2.
 --------------------------------------
 # apfd/gen scf=maxcycle=999 geom=check
 --------------------------------------
 1/29=2,38=1,172=1/1;
 2/12=2,40=1/2;
 3/5=7,11=2,14=-4,25=1,30=1,74=-44/1,2,3;
 4//1;
 5/5=2,7=999,38=5/2;
 6/7=2,8=2,9=2,10=2,28=1/1;
 99/5=1,9=1/99;
 ----------
 6m7l_III_H
 ----------
 Structure from the checkpoint file:  "6m7l_III_Dre.chk"
 Charge =  1 Multiplicity = 6
 Z-Matrix found in chk file.
 Fe,0,28.5721737361,33.5728533311,-8.2644268709
 N,0,26.9260150815,32.7573169851,-7.5029064158
 N,0,28.7148729139,34.739178195,-6.6176475323
 N,0,30.2550810587,34.4120463642,-8.9624631523
 N,0,28.5167746453,32.3480338636,-9.815462096
 C,0,26.2031644191,31.7503586764,-8.0660373261
 C,0,25.0975005436,31.372950044,-7.2126719043
 C,0,25.167775128,32.1771293889,-6.1197832077
 C,0,26.3146451878,33.0351335903,-6.3207009048
 C,0,27.8253993175,34.8129431274,-5.5864741968
 C,0,28.1890932432,35.8532932191,-4.6605306153
 C,0,29.3297565131,36.426170581,-5.1546378314
 C,0,29.6335989858,35.7163245791,-6.3799785555
 C,0,31.0221788543,35.3672839135,-8.3655723061
 C,0,32.200914214,35.6387134431,-9.1427542225
 C,0,32.1450084883,34.8138951651,-10.2328391431
 C,0,30.9149431475,34.0622566264,-10.1029976103
 C,0,29.335814565,32.3663639824,-10.9034136566
 C,0,28.8439633547,31.4768538572,-11.9303973582
 C,0,27.7044409654,30.9196348596,-11.4387437161
 C,0,27.5134856459,31.480179453,-10.1203579719
 C,0,26.4563183499,31.1629516181,-9.2900141352
 H,0,25.7629077558,30.4109998507,-9.6331599484
 C,0,26.7177786147,34.0017615082,-5.4253611891
 H,0,26.1258893259,34.1351261115,-4.5337192321
 C,0,30.7232494311,36.0030010224,-7.1756689218
 H,0,31.4062314194,36.7658811598,-6.8366931318
 C,0,30.4782427941,33.1313909618,-11.0274547756
 H,0,31.0553666884,33.0271551868,-11.9326234283
 C,0,24.2866325778,32.2251757669,-4.9201091252
 H,0,23.4959977844,31.4826810453,-4.9914014524
 H,0,23.8264638945,33.2085884808,-4.8233332982
 H,0,24.8617294368,32.0292269569,-4.0151362898
 C,0,24.1159827387,30.2999977366,-7.5348566746
 H,0,24.6242233488,29.3469443248,-7.6805953539
 H,0,23.5745452729,30.5392812754,-8.4503631838
 H,0,23.3939040889,30.1839643243,-6.7307332421
 C,0,27.4047810157,36.2449819225,-3.4582793526
 H,0,27.632977912,35.5901256528,-2.616038615
 H,0,26.3362148142,36.1817088662,-3.6565343889
 H,0,27.6471044674,37.266869728,-3.1740821595
 C,0,30.097224279,37.5359034031,-4.6321303678
 H,0,30.5535387085,38.1813461961,-5.3738202147
 C,0,30.2771233614,37.8074424675,-3.3440952369
 H,0,29.8885076249,37.1758311122,-2.5646299961
 H,0,30.8483458509,38.6631696974,-3.0248292281
 C,0,33.265668884,36.6096950108,-8.7693851156
 H,0,33.7256114225,36.327710132,-7.8222150651
 H,0,32.8508829884,37.6120776506,-8.6571830117
 H,0,34.0409226263,36.6359481704,-9.5307803121
 C,0,33.1332453652,34.6979939574,-11.2885574814
 H,0,33.5598706641,35.636298022,-11.6265240829
 C,0,33.5655839515,33.56010285,-11.8174751561
 H,0,34.3109221961,33.546941515,-12.5951902569
 H,0,33.2142512414,32.6018337731,-11.4741875259
 C,0,29.5101808367,31.2673430657,-13.2458775018
 H,0,30.5213092243,30.8854887212,-13.1056542009
 H,0,29.5779686481,32.2063603055,-13.795836375
 H,0,28.9558609431,30.5541706176,-13.8505610429
 C,0,26.7846016726,29.9341886675,-12.0721106229
 H,0,27.1223353494,29.6783834295,-13.073170885
 H,0,25.7758423419,30.3412650695,-12.1424382404
 H,0,26.7395712932,29.0194749306,-11.4809408816
 C,0,27.6977096462,35.325941193,-11.0811645982
 H,0,28.7708670623,35.2395653593,-11.2153500133
 H,0,27.3231705836,36.2630716646,-11.4807076812
 H,0,27.1989894188,34.4896460533,-11.5597296674
 S,0,27.2870190563,35.232868329,-9.3001115306
 H,0,28.0187330198,36.3022118904,-8.9593892153
 Recover connectivity data from disk.
 Stoichiometry    C31H32FeN4S(1+,6)
 Framework group  C1[X(C31H32FeN4S)]
 Deg. of freedom   201
 Full point group                 C1      NOp   1
 Largest Abelian subgroup         C1      NOp   1
 Largest concise Abelian subgroup C1      NOp   1
                         Standard orientation:                         
 ---------------------------------------------------------------------
 Center     Atomic      Atomic             Coordinates (Angstroms)
 Number     Number       Type             X           Y           Z
 ---------------------------------------------------------------------
      1         26           0        0.013051    0.192936   -0.190007
      2          7           0       -0.626773    2.074989   -0.247893
      3          7           0       -1.912871   -0.426099   -0.203409
      4          7           0        0.593899   -1.726864   -0.164331
      5          7           0        1.896837    0.781307   -0.308872
      6          6           0        0.162758    3.182016   -0.316636
      7          6           0       -0.641641    4.382101   -0.393461
      8          6           0       -1.937537    3.974601   -0.368015
      9          6           0       -1.907142    2.531577   -0.275243
     10          6           0       -3.026351    0.360028   -0.157676
     11          6           0       -4.219856   -0.436450   -0.043044
     12          6           0       -3.809433   -1.741859   -0.013008
     13          6           0       -2.364672   -1.707607   -0.108680
     14          6           0       -0.194461   -2.838455   -0.171420
     15          6           0        0.602738   -4.032743   -0.243892
     16          6           0        1.907860   -3.625322   -0.292900
     17          6           0        1.878028   -2.179496   -0.233097
     18          6           0        3.006919   -0.003281   -0.225561
     19          6           0        4.199457    0.805541   -0.118309
     20          6           0        3.784666    2.101048   -0.136710
     21          6           0        2.344280    2.065461   -0.250013
     22          6           0        1.543660    3.189869   -0.299227
     23          1           0        2.035167    4.150278   -0.304936
     24          6           0       -3.034221    1.740933   -0.219607
     25          1           0       -3.992524    2.235679   -0.224812
     26          6           0       -1.575085   -2.838608   -0.114459
     27          1           0       -2.069660   -3.796894   -0.093530
     28          6           0        3.008805   -1.383769   -0.232042
     29          1           0        3.963592   -1.883821   -0.192067
     30          6           0       -3.186759    4.783515   -0.423168
     31          1           0       -2.957769    5.843529   -0.496774
     32          1           0       -3.785612    4.623018    0.473401
     33          1           0       -3.787604    4.500732   -1.287534
     34          6           0       -0.086300    5.761191   -0.483543
     35          1           0        0.551961    5.860647   -1.361375
     36          1           0        0.511695    5.991069    0.398569
     37          1           0       -0.885320    6.494552   -0.555822
     38          6           0       -5.600655    0.101050    0.092839
     39          1           0       -6.015920    0.354802   -0.883606
     40          1           0       -5.606765    0.999702    0.707272
     41          1           0       -6.244438   -0.643308    0.556755
     42          6           0       -4.598797   -2.946733    0.123775
     43          1           0       -4.134782   -3.750681    0.683490
     44          6           0       -5.815632   -3.129665   -0.377204
     45          1           0       -6.305711   -2.385843   -0.980589
     46          1           0       -6.354634   -4.049379   -0.221970
     47          6           0        0.062474   -5.418928   -0.294055
     48          1           0       -0.560876   -5.554883   -1.177879
     49          1           0       -0.549312   -5.626042    0.584711
     50          1           0        0.872910   -6.142162   -0.333493
     51          6           0        3.080360   -4.471622   -0.409539
     52          1           0        3.056640   -5.377854    0.186133
     53          6           0        4.121124   -4.241210   -1.200227
     54          1           0        4.957108   -4.919255   -1.244152
     55          1           0        4.163425   -3.385452   -1.852493
     56          6           0        5.578474    0.253490   -0.009771
     57          1           0        5.816442   -0.354639   -0.882357
     58          1           0        5.671348   -0.376428    0.875317
     59          1           0        6.310764    1.053781    0.059601
     60          6           0        4.588447    3.352165   -0.053021
     61          1           0        5.646454    3.125441    0.051094
     62          1           0        4.278486    3.950613    0.803739
     63          1           0        4.453218    3.953493   -0.952092
     64          6           0        1.568566   -0.320031    2.824831
     65          1           0        1.932979   -1.169149    2.256205
     66          1           0        1.443610   -0.570405    3.873557
     67          1           0        2.253653    0.514570    2.718844
     68         16           0       -0.040421    0.232419    2.149971
     69          1           0       -0.659177   -0.936936    2.361496
 ---------------------------------------------------------------------
 Rotational constants (GHZ):           0.1157273           0.1076374           0.0602939
 General basis read from cards:  (5D, 7F)
 There are   644 symmetry adapted cartesian basis functions of A   symmetry.
 There are   605 symmetry adapted basis functions of A   symmetry.
   605 basis functions,  1246 primitive gaussians,   644 cartesian basis functions
   146 alpha electrons      141 beta electrons
       nuclear repulsion energy      5053.1803253619 Hartrees.
 NAtoms=   69 NActive=   69 NUniq=   69 SFac= 1.00D+00 NAtFMM=   60 NAOKFM=T Big=T
 Integral buffers will be    131072 words long.
 Raffenetti 2 integral format.
 Two-electron integral symmetry is turned on.
 R6APFD:  NTU= -4 IXU= 1 FactS= 1.050
 Nuclear repulsion after empirical dispersion term =     5053.0465008495 Hartrees.
 One-electron integrals computed using PRISM.
 NBasis=   605 RedAO= T EigKep=  2.53D-04  NBF=   605
 NBsUse=   605 1.00D-06 EigRej= -1.00D+00 NBFU=   605
 ExpMin= 4.20D-02 ExpMax= 3.01D+05 ExpMxC= 3.30D+03 IAcc=3 IRadAn=         5 AccDes= 0.00D+00
 Harris functional with IExCor= 3731 and IRadAn=       5 diagonalized for initial guess.
 HarFok:  IExCor= 3731 AccDes= 0.00D+00 IRadAn=         5 IDoV= 1 UseB2=F ITyADJ=14
 ICtDFT=  3500011 ScaDFX=  1.000000  1.000000  1.000000  1.000000
 FoFCou: FMM=F IPFlag=           0 FMFlag=      100000 FMFlg1=        2001
         NFxFlg=           0 DoJE=T BraDBF=F KetDBF=T FulRan=T
         wScrn=  0.000000 ICntrl=       500 IOpCl=  0 I1Cent=   200000004 NGrid=           0
         NMat0=    1 NMatS0=      1 NMatT0=    0 NMatD0=    1 NMtDS0=    0 NMtDT0=    0
 Petite list used in FoFCou.
 Initial guess <Sx>= 0.0000 <Sy>= 0.0000 <Sz>= 2.5000 <S**2>= 8.7500 S= 2.5000
 Requested convergence on RMS density matrix=1.00D-08 within 999 cycles.
 Requested convergence on MAX density matrix=1.00D-06.
 Requested convergence on             energy=1.00D-06.
 No special actions if energy rises.
 EnCoef did   100 forward-backward iterations
 EnCoef did   100 forward-backward iterations
 EnCoef did   100 forward-backward iterations
 EnCoef did   100 forward-backward iterations
 EnCoef did   100 forward-backward iterations
 EnCoef did     6 forward-backward iterations
 EnCoef did   100 forward-backward iterations
 Restarting incremental Fock formation.
 SCF Done:  E(UAPFD) =  -3080.04131407     A.U. after   31 cycles
            NFock= 31  Conv=0.84D-08     -V/T= 2.0030
 <Sx>= 0.0000 <Sy>= 0.0000 <Sz>= 2.5000 <S**2>= 8.7640 S= 2.5023
 <L.S>=  0.00000000000    
 Annihilation of the first spin contaminant:
 S**2 before annihilation     8.7640,   after     8.7501

 **********************************************************************

            Population analysis using the SCF Density.

 **********************************************************************

 Orbital symmetries:
 Alpha Orbitals:
       Occupied  (A) (A) (A) (A) (A) (A) (A) (A) (A) (A) (A) (A)
                 (A) (A) (A) (A) (A) (A) (A) (A) (A) (A) (A) (A)
                 (A) (A) (A) (A) (A) (A) (A) (A) (A) (A) (A) (A)
                 (A) (A) (A) (A) (A) (A) (A) (A) (A) (A) (A) (A)
                 (A) (A) (A) (A) (A) (A) (A) (A) (A) (A) (A) (A)
                 (A) (A) (A) (A) (A) (A) (A) (A) (A) (A) (A) (A)
                 (A) (A) (A) (A) (A) (A) (A) (A) (A) (A) (A) (A)
                 (A) (A) (A) (A) (A) (A) (A) (A) (A) (A) (A) (A)
                 (A) (A) (A) (A) (A) (A) (A) (A) (A) (A) (A) (A)
                 (A) (A) (A) (A) (A) (A) (A) (A) (A) (A) (A) (A)
                 (A) (A) (A) (A) (A) (A) (A) (A) (A) (A) (A) (A)
                 (A) (A) (A) (A) (A) (A) (A) (A) (A) (A) (A) (A)
                 (A) (A)
       Virtual   (A) (A) (A) (A) (A) (A) (A) (A) (A) (A) (A) (A)
                 (A) (A) (A) (A) (A) (A) (A) (A) (A) (A) (A) (A)
                 (A) (A) (A) (A) (A) (A) (A) (A) (A) (A) (A) (A)
                 (A) (A) (A) (A) (A) (A) (A) (A) (A) (A) (A) (A)
                 (A) (A) (A) (A) (A) (A) (A) (A) (A) (A) (A) (A)
                 (A) (A) (A) (A) (A) (A) (A) (A) (A) (A) (A) (A)
                 (A) (A) (A) (A) (A) (A) (A) (A) (A) (A) (A) (A)
                 (A) (A) (A) (A) (A) (A) (A) (A) (A) (A) (A) (A)
                 (A) (A) (A) (A) (A) (A) (A) (A) (A) (A) (A) (A)
                 (A) (A) (A) (A) (A) (A) (A) (A) (A) (A) (A) (A)
                 (A) (A) (A) (A) (A) (A) (A) (A) (A) (A) (A) (A)
                 (A) (A) (A) (A) (A) (A) (A) (A) (A) (A) (A) (A)
                 (A) (A) (A) (A) (A) (A) (A) (A) (A) (A) (A) (A)
                 (A) (A) (A) (A) (A) (A) (A) (A) (A) (A) (A) (A)
                 (A) (A) (A) (A) (A) (A) (A) (A) (A) (A) (A) (A)
                 (A) (A) (A) (A) (A) (A) (A) (A) (A) (A) (A) (A)
                 (A) (A) (A) (A) (A) (A) (A) (A) (A) (A) (A) (A)
                 (A) (A) (A) (A) (A) (A) (A) (A) (A) (A) (A) (A)
                 (A) (A) (A) (A) (A) (A) (A) (A) (A) (A) (A) (A)
                 (A) (A) (A) (A) (A) (A) (A) (A) (A) (A) (A) (A)
                 (A) (A) (A) (A) (A) (A) (A) (A) (A) (A) (A) (A)
                 (A) (A) (A) (A) (A) (A) (A) (A) (A) (A) (A) (A)
                 (A) (A) (A) (A) (A) (A) (A) (A) (A) (A) (A) (A)
                 (A) (A) (A) (A) (A) (A) (A) (A) (A) (A) (A) (A)
                 (A) (A) (A) (A) (A) (A) (A) (A) (A) (A) (A) (A)
                 (A) (A) (A) (A) (A) (A) (A) (A) (A) (A) (A) (A)
                 (A) (A) (A) (A) (A) (A) (A) (A) (A) (A) (A) (A)
                 (A) (A) (A) (A) (A) (A) (A) (A) (A) (A) (A) (A)
                 (A) (A) (A) (A) (A) (A) (A) (A) (A) (A) (A) (A)
                 (A) (A) (A) (A) (A) (A) (A) (A) (A) (A) (A) (A)
                 (A) (A) (A) (A) (A) (A) (A) (A) (A) (A) (A) (A)
                 (A) (A) (A) (A) (A) (A) (A) (A) (A) (A) (A) (A)
                 (A) (A) (A) (A) (A) (A) (A) (A) (A) (A) (A) (A)
                 (A) (A) (A) (A) (A) (A) (A) (A) (A) (A) (A) (A)
                 (A) (A) (A) (A) (A) (A) (A) (A) (A) (A) (A) (A)
                 (A) (A) (A) (A) (A) (A) (A) (A) (A) (A) (A) (A)
                 (A) (A) (A) (A) (A) (A) (A) (A) (A) (A) (A) (A)
                 (A) (A) (A) (A) (A) (A) (A) (A) (A) (A) (A) (A)
                 (A) (A) (A)
 Beta  Orbitals:
       Occupied  (A) (A) (A) (A) (A) (A) (A) (A) (A) (A) (A) (A)
                 (A) (A) (A) (A) (A) (A) (A) (A) (A) (A) (A) (A)
                 (A) (A) (A) (A) (A) (A) (A) (A) (A) (A) (A) (A)
                 (A) (A) (A) (A) (A) (A) (A) (A) (A) (A) (A) (A)
                 (A) (A) (A) (A) (A) (A) (A) (A) (A) (A) (A) (A)
                 (A) (A) (A) (A) (A) (A) (A) (A) (A) (A) (A) (A)
                 (A) (A) (A) (A) (A) (A) (A) (A) (A) (A) (A) (A)
                 (A) (A) (A) (A) (A) (A) (A) (A) (A) (A) (A) (A)
                 (A) (A) (A) (A) (A) (A) (A) (A) (A) (A) (A) (A)
                 (A) (A) (A) (A) (A) (A) (A) (A) (A) (A) (A) (A)
                 (A) (A) (A) (A) (A) (A) (A) (A) (A) (A) (A) (A)
                 (A) (A) (A) (A) (A) (A) (A) (A) (A)
       Virtual   (A) (A) (A) (A) (A) (A) (A) (A) (A) (A) (A) (A)
                 (A) (A) (A) (A) (A) (A) (A) (A) (A) (A) (A) (A)
                 (A) (A) (A) (A) (A) (A) (A) (A) (A) (A) (A) (A)
                 (A) (A) (A) (A) (A) (A) (A) (A) (A) (A) (A) (A)
                 (A) (A) (A) (A) (A) (A) (A) (A) (A) (A) (A) (A)
                 (A) (A) (A) (A) (A) (A) (A) (A) (A) (A) (A) (A)
                 (A) (A) (A) (A) (A) (A) (A) (A) (A) (A) (A) (A)
                 (A) (A) (A) (A) (A) (A) (A) (A) (A) (A) (A) (A)
                 (A) (A) (A) (A) (A) (A) (A) (A) (A) (A) (A) (A)
                 (A) (A) (A) (A) (A) (A) (A) (A) (A) (A) (A) (A)
                 (A) (A) (A) (A) (A) (A) (A) (A) (A) (A) (A) (A)
                 (A) (A) (A) (A) (A) (A) (A) (A) (A) (A) (A) (A)
                 (A) (A) (A) (A) (A) (A) (A) (A) (A) (A) (A) (A)
                 (A) (A) (A) (A) (A) (A) (A) (A) (A) (A) (A) (A)
                 (A) (A) (A) (A) (A) (A) (A) (A) (A) (A) (A) (A)
                 (A) (A) (A) (A) (A) (A) (A) (A) (A) (A) (A) (A)
                 (A) (A) (A) (A) (A) (A) (A) (A) (A) (A) (A) (A)
                 (A) (A) (A) (A) (A) (A) (A) (A) (A) (A) (A) (A)
                 (A) (A) (A) (A) (A) (A) (A) (A) (A) (A) (A) (A)
                 (A) (A) (A) (A) (A) (A) (A) (A) (A) (A) (A) (A)
                 (A) (A) (A) (A) (A) (A) (A) (A) (A) (A) (A) (A)
                 (A) (A) (A) (A) (A) (A) (A) (A) (A) (A) (A) (A)
                 (A) (A) (A) (A) (A) (A) (A) (A) (A) (A) (A) (A)
                 (A) (A) (A) (A) (A) (A) (A) (A) (A) (A) (A) (A)
                 (A) (A) (A) (A) (A) (A) (A) (A) (A) (A) (A) (A)
                 (A) (A) (A) (A) (A) (A) (A) (A) (A) (A) (A) (A)
                 (A) (A) (A) (A) (A) (A) (A) (A) (A) (A) (A) (A)
                 (A) (A) (A) (A) (A) (A) (A) (A) (A) (A) (A) (A)
                 (A) (A) (A) (A) (A) (A) (A) (A) (A) (A) (A) (A)
                 (A) (A) (A) (A) (A) (A) (A) (A) (A) (A) (A) (A)
                 (A) (A) (A) (A) (A) (A) (A) (A) (A) (A) (A) (A)
                 (A) (A) (A) (A) (A) (A) (A) (A) (A) (A) (A) (A)
                 (A) (A) (A) (A) (A) (A) (A) (A) (A) (A) (A) (A)
                 (A) (A) (A) (A) (A) (A) (A) (A) (A) (A) (A) (A)
                 (A) (A) (A) (A) (A) (A) (A) (A) (A) (A) (A) (A)
                 (A) (A) (A) (A) (A) (A) (A) (A) (A) (A) (A) (A)
                 (A) (A) (A) (A) (A) (A) (A) (A) (A) (A) (A) (A)
                 (A) (A) (A) (A) (A) (A) (A) (A) (A) (A) (A) (A)
                 (A) (A) (A) (A) (A) (A) (A) (A)
 The electronic state is 6-A.
 Alpha  occ. eigenvalues -- -256.43206 -89.09237 -30.33935 -26.16970 -26.16879
 Alpha  occ. eigenvalues --  -26.16853 -14.48397 -14.48313 -14.48230 -14.48066
 Alpha  occ. eigenvalues --  -10.34974 -10.34788 -10.34752 -10.34673 -10.34614
 Alpha  occ. eigenvalues --  -10.34609 -10.34574 -10.34560 -10.34511 -10.31691
 Alpha  occ. eigenvalues --  -10.31642 -10.31639 -10.31600 -10.31551 -10.31455
 Alpha  occ. eigenvalues --  -10.31427 -10.31414 -10.31408 -10.31362 -10.31314
 Alpha  occ. eigenvalues --  -10.31295 -10.30443 -10.30294 -10.29256 -10.29203
 Alpha  occ. eigenvalues --  -10.29113 -10.29091 -10.29043 -10.28957 -10.28922
 Alpha  occ. eigenvalues --  -10.28819  -8.12611  -6.07138  -6.06896  -6.06452
 Alpha  occ. eigenvalues --   -3.79233  -2.55927  -2.55809  -2.55743  -1.10595
 Alpha  occ. eigenvalues --   -1.09587  -1.09470  -1.08552  -0.94845  -0.94136
 Alpha  occ. eigenvalues --   -0.93345  -0.93125  -0.92737  -0.92332  -0.92001
 Alpha  occ. eigenvalues --   -0.91995  -0.87948  -0.86759  -0.86453  -0.85343
 Alpha  occ. eigenvalues --   -0.83928  -0.82259  -0.81179  -0.79866  -0.79548
 Alpha  occ. eigenvalues --   -0.79430  -0.79246  -0.76478  -0.76284  -0.72177
 Alpha  occ. eigenvalues --   -0.71244  -0.69753  -0.69720  -0.66428  -0.66159
 Alpha  occ. eigenvalues --   -0.65076  -0.64798  -0.63402  -0.63112  -0.62818
 Alpha  occ. eigenvalues --   -0.62311  -0.60530  -0.59700  -0.59341  -0.58642
 Alpha  occ. eigenvalues --   -0.58431  -0.57785  -0.56954  -0.56882  -0.56559
 Alpha  occ. eigenvalues --   -0.56009  -0.55731  -0.55218  -0.55033  -0.54635
 Alpha  occ. eigenvalues --   -0.54451  -0.54353  -0.54169  -0.53805  -0.53406
 Alpha  occ. eigenvalues --   -0.53127  -0.52603  -0.51914  -0.51800  -0.51565
 Alpha  occ. eigenvalues --   -0.51313  -0.51259  -0.51221  -0.50783  -0.50584
 Alpha  occ. eigenvalues --   -0.50205  -0.50082  -0.49945  -0.49805  -0.49294
 Alpha  occ. eigenvalues --   -0.49087  -0.48680  -0.48335  -0.47932  -0.47383
 Alpha  occ. eigenvalues --   -0.46714  -0.46280  -0.46159  -0.45857  -0.44899
 Alpha  occ. eigenvalues --   -0.44641  -0.43892  -0.43641  -0.43403  -0.40769
 Alpha  occ. eigenvalues --   -0.40111  -0.39089  -0.38480  -0.38347  -0.35054
 Alpha  occ. eigenvalues --   -0.34752  -0.34121  -0.33436  -0.33288  -0.30662
 Alpha  occ. eigenvalues --   -0.29864
 Alpha virt. eigenvalues --   -0.18680  -0.18558  -0.12561  -0.10210  -0.08869
 Alpha virt. eigenvalues --   -0.08133  -0.06534  -0.05995  -0.03922  -0.03007
 Alpha virt. eigenvalues --   -0.02188  -0.00595   0.00215   0.01187   0.01554
 Alpha virt. eigenvalues --    0.01744   0.02674   0.02935   0.03224   0.03625
 Alpha virt. eigenvalues --    0.03936   0.04052   0.04515   0.04847   0.05353
 Alpha virt. eigenvalues --    0.05450   0.05754   0.06370   0.06709   0.07058
 Alpha virt. eigenvalues --    0.07154   0.07243   0.07738   0.07867   0.08472
 Alpha virt. eigenvalues --    0.09008   0.09255   0.09293   0.09934   0.10378
 Alpha virt. eigenvalues --    0.10814   0.10915   0.11214   0.11444   0.11858
 Alpha virt. eigenvalues --    0.12177   0.12271   0.12856   0.13361   0.13497
 Alpha virt. eigenvalues --    0.13586   0.14326   0.14792   0.14862   0.15738
 Alpha virt. eigenvalues --    0.16029   0.16710   0.17024   0.18469   0.18616
 Alpha virt. eigenvalues --    0.19283   0.19865   0.20814   0.21268   0.22332
 Alpha virt. eigenvalues --    0.22411   0.23273   0.23974   0.24153   0.24379
 Alpha virt. eigenvalues --    0.24709   0.25433   0.26296   0.27091   0.27930
 Alpha virt. eigenvalues --    0.28386   0.30724   0.31454   0.31956   0.32639
 Alpha virt. eigenvalues --    0.32988   0.34005   0.34788   0.35572   0.36409
 Alpha virt. eigenvalues --    0.36511   0.37338   0.37738   0.38633   0.38945
 Alpha virt. eigenvalues --    0.39237   0.39445   0.40586   0.41026   0.41296
 Alpha virt. eigenvalues --    0.41902   0.42257   0.42640   0.43159   0.43608
 Alpha virt. eigenvalues --    0.44047   0.44910   0.45056   0.45374   0.46028
 Alpha virt. eigenvalues --    0.46783   0.47200   0.47507   0.48407   0.48847
 Alpha virt. eigenvalues --    0.49007   0.49414   0.49588   0.50798   0.50919
 Alpha virt. eigenvalues --    0.51423   0.51594   0.51782   0.52275   0.52326
 Alpha virt. eigenvalues --    0.52712   0.53860   0.54219   0.54502   0.55144
 Alpha virt. eigenvalues --    0.55711   0.55826   0.56000   0.56786   0.57075
 Alpha virt. eigenvalues --    0.57276   0.57704   0.58195   0.58460   0.58953
 Alpha virt. eigenvalues --    0.59918   0.60666   0.61188   0.61606   0.61762
 Alpha virt. eigenvalues --    0.62518   0.63241   0.63877   0.64248   0.64617
 Alpha virt. eigenvalues --    0.64917   0.65524   0.65851   0.66121   0.66630
 Alpha virt. eigenvalues --    0.67056   0.67286   0.67586   0.67891   0.68058
 Alpha virt. eigenvalues --    0.68086   0.68617   0.69643   0.69874   0.70436
 Alpha virt. eigenvalues --    0.70635   0.71083   0.72055   0.72633   0.73005
 Alpha virt. eigenvalues --    0.73874   0.74407   0.75500   0.76780   0.77102
 Alpha virt. eigenvalues --    0.77282   0.77799   0.78188   0.78332   0.79102
 Alpha virt. eigenvalues --    0.79142   0.79473   0.79708   0.80547   0.80730
 Alpha virt. eigenvalues --    0.81513   0.81827   0.81948   0.82401   0.82630
 Alpha virt. eigenvalues --    0.82986   0.83348   0.83886   0.84266   0.84643
 Alpha virt. eigenvalues --    0.85097   0.85760   0.86179   0.86647   0.86713
 Alpha virt. eigenvalues --    0.87577   0.88210   0.88793   0.88979   0.89452
 Alpha virt. eigenvalues --    0.89656   0.89850   0.90256   0.90445   0.90872
 Alpha virt. eigenvalues --    0.91434   0.91805   0.92454   0.92731   0.93379
 Alpha virt. eigenvalues --    0.94127   0.94596   0.95542   0.96455   0.96543
 Alpha virt. eigenvalues --    0.96900   0.97269   0.99649   1.00647   1.00991
 Alpha virt. eigenvalues --    1.03029   1.03549   1.04416   1.04907   1.06177
 Alpha virt. eigenvalues --    1.06366   1.06744   1.07368   1.07693   1.08319
 Alpha virt. eigenvalues --    1.09083   1.09408   1.09823   1.10192   1.10713
 Alpha virt. eigenvalues --    1.11161   1.11605   1.12394   1.12562   1.14299
 Alpha virt. eigenvalues --    1.14480   1.14838   1.16678   1.17275   1.18263
 Alpha virt. eigenvalues --    1.18921   1.20054   1.20681   1.22006   1.22663
 Alpha virt. eigenvalues --    1.23948   1.24807   1.25018   1.25631   1.26208
 Alpha virt. eigenvalues --    1.26655   1.27031   1.27268   1.27481   1.27890
 Alpha virt. eigenvalues --    1.28804   1.30476   1.32600   1.32708   1.33892
 Alpha virt. eigenvalues --    1.34676   1.36236   1.36687   1.37176   1.38477
 Alpha virt. eigenvalues --    1.39403   1.39501   1.40133   1.42192   1.43282
 Alpha virt. eigenvalues --    1.43776   1.44245   1.45041   1.45749   1.47326
 Alpha virt. eigenvalues --    1.47826   1.48509   1.49468   1.50567   1.51470
 Alpha virt. eigenvalues --    1.53230   1.53986   1.56268   1.57650   1.58321
 Alpha virt. eigenvalues --    1.58695   1.59194   1.59370   1.61016   1.61695
 Alpha virt. eigenvalues --    1.63629   1.65153   1.65694   1.67632   1.68395
 Alpha virt. eigenvalues --    1.69128   1.69395   1.69676   1.69931   1.70451
 Alpha virt. eigenvalues --    1.70921   1.71793   1.72387   1.73297   1.73391
 Alpha virt. eigenvalues --    1.73940   1.74841   1.75386   1.76028   1.76418
 Alpha virt. eigenvalues --    1.77153   1.78565   1.78883   1.80298   1.80420
 Alpha virt. eigenvalues --    1.81057   1.81673   1.83023   1.83372   1.83842
 Alpha virt. eigenvalues --    1.84279   1.84799   1.85430   1.88369   1.89096
 Alpha virt. eigenvalues --    1.89401   1.89520   1.89697   1.90435   1.91720
 Alpha virt. eigenvalues --    1.92166   1.92579   1.93406   1.94072   1.94641
 Alpha virt. eigenvalues --    1.95269   1.96717   1.97151   1.97345   1.98534
 Alpha virt. eigenvalues --    2.00685   2.01784   2.03340   2.04424   2.04612
 Alpha virt. eigenvalues --    2.05288   2.05451   2.06882   2.07414   2.07789
 Alpha virt. eigenvalues --    2.08636   2.08871   2.09241   2.09738   2.10742
 Alpha virt. eigenvalues --    2.12456   2.12974   2.13882   2.14173   2.14735
 Alpha virt. eigenvalues --    2.14901   2.15314   2.16193   2.16797   2.17123
 Alpha virt. eigenvalues --    2.17867   2.19178   2.19337   2.19591   2.20315
 Alpha virt. eigenvalues --    2.20691   2.21222   2.21885   2.23489   2.23794
 Alpha virt. eigenvalues --    2.24292   2.24663   2.25251   2.26126   2.26456
 Alpha virt. eigenvalues --    2.28260   2.29365   2.29584   2.29708   2.30865
 Alpha virt. eigenvalues --    2.31665   2.32516   2.32957   2.33755   2.34144
 Alpha virt. eigenvalues --    2.35666   2.36552   2.38253   2.39125   2.41413
 Alpha virt. eigenvalues --    2.42043   2.42161   2.42444   2.42646   2.43356
 Alpha virt. eigenvalues --    2.44753   2.45207   2.45847   2.46825   2.48426
 Alpha virt. eigenvalues --    2.49078   2.51029   2.53385   2.55193   2.55373
 Alpha virt. eigenvalues --    2.56994   2.57199   2.57680   2.59487   2.60937
 Alpha virt. eigenvalues --    2.64974   2.67248   2.67461   2.67693   2.69591
 Alpha virt. eigenvalues --    2.71323   2.75828   2.76703   2.77245   2.79318
 Alpha virt. eigenvalues --    2.79975   2.81437   2.83534   2.84433   2.86150
 Alpha virt. eigenvalues --    2.86271   2.87689   2.88817   2.89939   2.92913
 Alpha virt. eigenvalues --    2.95332   3.01685   3.02128   3.07180   3.11855
 Alpha virt. eigenvalues --    3.13368   3.17415   3.19010   3.20667   3.27451
 Alpha virt. eigenvalues --    3.28126   3.28789   3.28866   3.29786   3.35056
 Alpha virt. eigenvalues --    3.35087   3.66368   3.82427   4.02022
  Beta  occ. eigenvalues -- -256.43046 -89.09105 -30.24656 -26.09378 -26.09033
  Beta  occ. eigenvalues --  -26.09022 -14.48062 -14.47988 -14.47913 -14.47730
  Beta  occ. eigenvalues --  -10.34963 -10.34786 -10.34730 -10.34653 -10.34604
  Beta  occ. eigenvalues --  -10.34594 -10.34579 -10.34553 -10.34493 -10.31640
  Beta  occ. eigenvalues --  -10.31606 -10.31601 -10.31562 -10.31533 -10.31417
  Beta  occ. eigenvalues --  -10.31412 -10.31391 -10.31375 -10.31320 -10.31305
  Beta  occ. eigenvalues --  -10.31254 -10.30450 -10.30308 -10.29257 -10.29203
  Beta  occ. eigenvalues --  -10.29096 -10.29091 -10.29014 -10.28958 -10.28922
  Beta  occ. eigenvalues --  -10.28819  -8.12468  -6.07043  -6.06736  -6.06133
  Beta  occ. eigenvalues --   -3.57354  -2.33129  -2.32148  -2.32098  -1.10156
  Beta  occ. eigenvalues --   -1.09150  -1.09046  -1.08095  -0.94769  -0.93683
  Beta  occ. eigenvalues --   -0.93093  -0.92928  -0.92508  -0.92127  -0.91871
  Beta  occ. eigenvalues --   -0.91837  -0.87884  -0.86670  -0.86365  -0.85273
  Beta  occ. eigenvalues --   -0.83887  -0.82147  -0.81028  -0.79683  -0.79379
  Beta  occ. eigenvalues --   -0.79168  -0.78977  -0.76373  -0.76183  -0.71975
  Beta  occ. eigenvalues --   -0.71078  -0.69598  -0.69285  -0.66291  -0.65959
  Beta  occ. eigenvalues --   -0.64872  -0.64017  -0.62939  -0.62644  -0.62143
  Beta  occ. eigenvalues --   -0.60069  -0.59559  -0.59153  -0.59038  -0.57567
  Beta  occ. eigenvalues --   -0.57201  -0.56272  -0.55838  -0.55361  -0.54908
  Beta  occ. eigenvalues --   -0.54702  -0.54476  -0.54328  -0.53835  -0.53572
  Beta  occ. eigenvalues --   -0.53116  -0.52756  -0.51982  -0.51628  -0.51537
  Beta  occ. eigenvalues --   -0.51343  -0.51219  -0.51148  -0.50994  -0.50705
  Beta  occ. eigenvalues --   -0.50623  -0.50356  -0.50128  -0.49634  -0.49407
  Beta  occ. eigenvalues --   -0.49232  -0.48649  -0.48571  -0.48355  -0.48178
  Beta  occ. eigenvalues --   -0.47411  -0.47213  -0.46680  -0.45934  -0.45054
  Beta  occ. eigenvalues --   -0.44819  -0.44069  -0.43800  -0.43188  -0.43067
  Beta  occ. eigenvalues --   -0.41816  -0.40122  -0.39797  -0.38562  -0.38414
  Beta  occ. eigenvalues --   -0.35541  -0.34934  -0.33827  -0.33121  -0.30776
  Beta  occ. eigenvalues --   -0.29789
  Beta virt. eigenvalues --   -0.23004  -0.22691  -0.21085  -0.20196  -0.17464
  Beta virt. eigenvalues --   -0.17357  -0.12678  -0.12360  -0.09540  -0.08703
  Beta virt. eigenvalues --   -0.07867  -0.05751  -0.05498  -0.02545  -0.02347
  Beta virt. eigenvalues --   -0.01713  -0.00351   0.00409   0.01292   0.01714
  Beta virt. eigenvalues --    0.01905   0.02727   0.03097   0.03437   0.03738
  Beta virt. eigenvalues --    0.04195   0.04225   0.04674   0.04992   0.05436
  Beta virt. eigenvalues --    0.05688   0.05937   0.06419   0.06748   0.07154
  Beta virt. eigenvalues --    0.07210   0.07322   0.07912   0.07953   0.08614
  Beta virt. eigenvalues --    0.09209   0.09332   0.09533   0.10168   0.10846
  Beta virt. eigenvalues --    0.11007   0.11133   0.11538   0.11867   0.12303
  Beta virt. eigenvalues --    0.12460   0.12998   0.13148   0.13593   0.13831
  Beta virt. eigenvalues --    0.14233   0.14960   0.15103   0.15383   0.15884
  Beta virt. eigenvalues --    0.16459   0.16829   0.17161   0.18685   0.19067
  Beta virt. eigenvalues --    0.19587   0.20360   0.21329   0.21799   0.22592
  Beta virt. eigenvalues --    0.22751   0.23681   0.24219   0.24395   0.24709
  Beta virt. eigenvalues --    0.24983   0.25667   0.26735   0.27314   0.28133
  Beta virt. eigenvalues --    0.28561   0.31368   0.31623   0.32138   0.32738
  Beta virt. eigenvalues --    0.33225   0.34522   0.35275   0.36139   0.36756
  Beta virt. eigenvalues --    0.37062   0.37562   0.38014   0.38892   0.39342
  Beta virt. eigenvalues --    0.39412   0.40068   0.40851   0.41238   0.41724
  Beta virt. eigenvalues --    0.42166   0.42472   0.42838   0.43321   0.43948
  Beta virt. eigenvalues --    0.44192   0.45074   0.45376   0.45605   0.46135
  Beta virt. eigenvalues --    0.46902   0.47323   0.47603   0.48614   0.49033
  Beta virt. eigenvalues --    0.49138   0.49522   0.49684   0.50996   0.51172
  Beta virt. eigenvalues --    0.51551   0.51792   0.52270   0.52388   0.52828
  Beta virt. eigenvalues --    0.52867   0.53996   0.54372   0.54956   0.55513
  Beta virt. eigenvalues --    0.55930   0.56088   0.56258   0.56933   0.57237
  Beta virt. eigenvalues --    0.57440   0.57992   0.58702   0.58754   0.59704
  Beta virt. eigenvalues --    0.60328   0.60918   0.61346   0.61683   0.62044
  Beta virt. eigenvalues --    0.62726   0.63936   0.64315   0.64458   0.64753
  Beta virt. eigenvalues --    0.65202   0.65721   0.66183   0.66538   0.67185
  Beta virt. eigenvalues --    0.67328   0.67550   0.67746   0.68203   0.68281
  Beta virt. eigenvalues --    0.68576   0.68845   0.69809   0.70068   0.70775
  Beta virt. eigenvalues --    0.70908   0.71564   0.72544   0.73181   0.73373
  Beta virt. eigenvalues --    0.75024   0.75653   0.76193   0.76968   0.77247
  Beta virt. eigenvalues --    0.77498   0.77914   0.78257   0.78441   0.79189
  Beta virt. eigenvalues --    0.79261   0.79651   0.80266   0.80669   0.80803
  Beta virt. eigenvalues --    0.81681   0.81957   0.82114   0.82527   0.82781
  Beta virt. eigenvalues --    0.83081   0.83503   0.83992   0.84417   0.84834
  Beta virt. eigenvalues --    0.85353   0.85937   0.86443   0.86788   0.86869
  Beta virt. eigenvalues --    0.87748   0.88429   0.88903   0.89094   0.89742
  Beta virt. eigenvalues --    0.89858   0.89995   0.90403   0.90658   0.90963
  Beta virt. eigenvalues --    0.91530   0.92103   0.92777   0.93472   0.93674
  Beta virt. eigenvalues --    0.94286   0.94860   0.95914   0.96640   0.96817
  Beta virt. eigenvalues --    0.97213   0.98337   0.99748   1.00992   1.01452
  Beta virt. eigenvalues --    1.03498   1.03813   1.04785   1.05648   1.06424
  Beta virt. eigenvalues --    1.06745   1.07128   1.07638   1.07918   1.08419
  Beta virt. eigenvalues --    1.09260   1.09817   1.10074   1.10278   1.11181
  Beta virt. eigenvalues --    1.11754   1.12550   1.12993   1.14045   1.14506
  Beta virt. eigenvalues --    1.15138   1.15972   1.17158   1.17417   1.18478
  Beta virt. eigenvalues --    1.19319   1.20270   1.20874   1.22157   1.22843
  Beta virt. eigenvalues --    1.24091   1.24944   1.25176   1.25885   1.26365
  Beta virt. eigenvalues --    1.26802   1.27174   1.27383   1.27645   1.28048
  Beta virt. eigenvalues --    1.28970   1.30733   1.32836   1.32951   1.34102
  Beta virt. eigenvalues --    1.34827   1.36441   1.36966   1.37372   1.39447
  Beta virt. eigenvalues --    1.40074   1.40466   1.40917   1.42331   1.43395
  Beta virt. eigenvalues --    1.44034   1.44698   1.45305   1.45996   1.47757
  Beta virt. eigenvalues --    1.48380   1.49235   1.49835   1.50836   1.51885
  Beta virt. eigenvalues --    1.53422   1.54134   1.56399   1.58013   1.58511
  Beta virt. eigenvalues --    1.58894   1.59341   1.59543   1.61201   1.61895
  Beta virt. eigenvalues --    1.63876   1.65379   1.65939   1.67915   1.68568
  Beta virt. eigenvalues --    1.69259   1.69543   1.69938   1.70170   1.70736
  Beta virt. eigenvalues --    1.71503   1.72051   1.72672   1.73549   1.73656
  Beta virt. eigenvalues --    1.74101   1.75202   1.75529   1.76184   1.76592
  Beta virt. eigenvalues --    1.77270   1.78992   1.80080   1.80570   1.80935
  Beta virt. eigenvalues --    1.81258   1.82174   1.83254   1.83596   1.84428
  Beta virt. eigenvalues --    1.84935   1.85997   1.88043   1.88780   1.89290
  Beta virt. eigenvalues --    1.89529   1.89686   1.89796   1.90625   1.91984
  Beta virt. eigenvalues --    1.92606   1.93080   1.93668   1.94354   1.94811
  Beta virt. eigenvalues --    1.95605   1.97027   1.97440   1.97729   2.00309
  Beta virt. eigenvalues --    2.00849   2.01974   2.03462   2.04573   2.04827
  Beta virt. eigenvalues --    2.05489   2.05915   2.07209   2.07920   2.08977
  Beta virt. eigenvalues --    2.09538   2.09753   2.10523   2.11772   2.12250
  Beta virt. eigenvalues --    2.12938   2.13884   2.14351   2.14398   2.14983
  Beta virt. eigenvalues --    2.15400   2.15661   2.16489   2.17243   2.17270
  Beta virt. eigenvalues --    2.18227   2.19327   2.19468   2.19844   2.20574
  Beta virt. eigenvalues --    2.20821   2.21439   2.22020   2.23599   2.23966
  Beta virt. eigenvalues --    2.24480   2.24752   2.25320   2.26460   2.26659
  Beta virt. eigenvalues --    2.28393   2.29470   2.29781   2.29915   2.30982
  Beta virt. eigenvalues --    2.31929   2.32630   2.33038   2.33990   2.34369
  Beta virt. eigenvalues --    2.36274   2.37097   2.38397   2.39467   2.41651
  Beta virt. eigenvalues --    2.42216   2.42351   2.42704   2.42814   2.43547
  Beta virt. eigenvalues --    2.44915   2.45378   2.46076   2.47546   2.48615
  Beta virt. eigenvalues --    2.49242   2.51152   2.53692   2.55464   2.55623
  Beta virt. eigenvalues --    2.57279   2.57518   2.58058   2.59701   2.61146
  Beta virt. eigenvalues --    2.65175   2.67465   2.67761   2.67972   2.69656
  Beta virt. eigenvalues --    2.71473   2.76058   2.76927   2.77474   2.79542
  Beta virt. eigenvalues --    2.80211   2.81728   2.83850   2.85216   2.86434
  Beta virt. eigenvalues --    2.86454   2.87780   2.88928   2.90059   2.93127
  Beta virt. eigenvalues --    2.95498   3.01916   3.02334   3.07354   3.12109
  Beta virt. eigenvalues --    3.14046   3.17501   3.19146   3.25394   3.28509
  Beta virt. eigenvalues --    3.29575   3.33089   3.35086   3.35196   3.42193
  Beta virt. eigenvalues --    3.42503   3.78154   3.92643   4.12243
          Condensed to atoms (all electrons):
          Atomic-Atomic Spin Densities.
 Mulliken charges and spin densities:
               1          2
     1  Fe   0.909575   4.175882
     2  N   -0.752260   0.101402
     3  N   -0.739843   0.095768
     4  N   -0.739495   0.093636
     5  N   -0.748977   0.102517
     6  C    0.340113   0.005447
     7  C    0.047455   0.023586
     8  C    0.047948   0.025270
     9  C    0.340815   0.003359
    10  C    0.329739   0.005985
    11  C    0.048644   0.018256
    12  C    0.016186   0.032737
    13  C    0.317653  -0.006679
    14  C    0.319062  -0.003799
    15  C    0.046079   0.024717
    16  C    0.003233   0.021886
    17  C    0.323854  -0.001154
    18  C    0.321560  -0.006180
    19  C    0.046600   0.033439
    20  C    0.043757   0.019597
    21  C    0.323786   0.006467
    22  C   -0.289553   0.002622
    23  H    0.197779   0.000125
    24  C   -0.288113   0.006658
    25  H    0.198608  -0.000065
    26  C   -0.287831   0.014294
    27  H    0.199641  -0.000400
    28  C   -0.304052   0.012902
    29  H    0.203869  -0.000284
    30  C   -0.613829  -0.001223
    31  H    0.207723   0.000403
    32  H    0.208085   0.001176
    33  H    0.210772   0.001198
    34  C   -0.613835  -0.001105
    35  H    0.210223   0.001110
    36  H    0.207117   0.001152
    37  H    0.208163   0.000385
    38  C   -0.616305  -0.000841
    39  H    0.213328   0.001152
    40  H    0.199339   0.000681
    41  H    0.214475   0.000528
    42  C   -0.155266  -0.011046
    43  H    0.181246   0.000944
    44  C   -0.384034   0.020474
    45  H    0.194340  -0.000997
    46  H    0.199267  -0.000862
    47  C   -0.606533  -0.001176
    48  H    0.216764   0.001150
    49  H    0.202551   0.001109
    50  H    0.207691   0.000375
    51  C   -0.161618  -0.006060
    52  H    0.192506   0.000964
    53  C   -0.389440   0.011805
    54  H    0.199662  -0.000588
    55  H    0.189544  -0.000507
    56  C   -0.612017  -0.001846
    57  H    0.211600   0.001536
    58  H    0.205666   0.001486
    59  H    0.207964   0.000400
    60  C   -0.613069  -0.000882
    61  H    0.207602   0.000366
    62  H    0.205674   0.000966
    63  H    0.212529   0.001056
    64  C   -0.696226  -0.003113
    65  H    0.249634   0.002205
    66  H    0.249303   0.004784
    67  H    0.248092   0.000083
    68  S    0.143124   0.170382
    69  H    0.182356  -0.005615
 Sum of Mulliken charges =   1.00000   5.00000
 Mulliken charges and spin densities with hydrogens summed into heavy atoms:
               1          2
     1  Fe   0.909575   4.175882
     2  N   -0.752260   0.101402
     3  N   -0.739843   0.095768
     4  N   -0.739495   0.093636
     5  N   -0.748977   0.102517
     6  C    0.340113   0.005447
     7  C    0.047455   0.023586
     8  C    0.047948   0.025270
     9  C    0.340815   0.003359
    10  C    0.329739   0.005985
    11  C    0.048644   0.018256
    12  C    0.016186   0.032737
    13  C    0.317653  -0.006679
    14  C    0.319062  -0.003799
    15  C    0.046079   0.024717
    16  C    0.003233   0.021886
    17  C    0.323854  -0.001154
    18  C    0.321560  -0.006180
    19  C    0.046600   0.033439
    20  C    0.043757   0.019597
    21  C    0.323786   0.006467
    22  C   -0.091774   0.002747
    24  C   -0.089505   0.006593
    26  C   -0.088190   0.013895
    28  C   -0.100183   0.012618
    30  C    0.012752   0.001554
    34  C    0.011668   0.001543
    38  C    0.010837   0.001519
    42  C    0.025980  -0.010102
    44  C    0.009573   0.018616
    47  C    0.020473   0.001458
    51  C    0.030888  -0.005096
    53  C   -0.000234   0.010709
    56  C    0.013212   0.001577
    60  C    0.012735   0.001506
    64  C    0.050803   0.003959
    68  S    0.325480   0.164768
 Electronic spatial extent (au):  <R**2>=          17825.6293
 Charge=              1.0000 electrons
 Dipole moment (field-independent basis, Debye):
    X=              0.8220    Y=              0.1169    Z=              2.3969  Tot=              2.5366
 Quadrupole moment (field-independent basis, Debye-Ang):
   XX=           -151.6456   YY=           -156.7477   ZZ=           -220.6922
   XY=              0.9829   XZ=              3.5665   YZ=             -5.1657
 Traceless Quadrupole moment (field-independent basis, Debye-Ang):
   XX=             24.7162   YY=             19.6142   ZZ=            -44.3304
   XY=              0.9829   XZ=              3.5665   YZ=             -5.1657
 Octapole moment (field-independent basis, Debye-Ang**2):
  XXX=            -20.6976  YYY=             29.3303  ZZZ=             38.8994  XYY=             -2.5774
  XXY=            -15.7520  XXZ=            -22.7961  XZZ=             18.2489  YZZ=             -3.4303
  YYZ=            -13.8181  XYZ=             12.5936
 Hexadecapole moment (field-independent basis, Debye-Ang**3):
 XXXX=          -9868.8627 YYYY=          -9222.1201 ZZZZ=          -1032.0794 XXXY=            186.4272
 XXXZ=             49.2613 YYYX=           -117.0125 YYYZ=           -101.2097 ZZZX=             51.2173
 ZZZY=            -41.0310 XXYY=          -3116.5107 XXZZ=          -2193.6197 YYZZ=          -2076.5226
 XXYZ=             50.4758 YYXZ=            -21.6504 ZZXY=            -12.2018
 N-N= 5.053046500849D+03 E-N=-1.732232726693D+04  KE= 3.070710042428D+03
                          Isotropic Fermi Contact Couplings
        Atom                 a.u.       MegaHertz       Gauss      10(-4) cm-1
     1  Fe(57)             0.60520      17.55575       6.26433       5.85597
     2  N(14)              0.12787       8.26313       2.94849       2.75628
     3  N(14)              0.12653       8.17657       2.91760       2.72741
     4  N(14)              0.12784       8.26118       2.94779       2.75563
     5  N(14)              0.12083       7.80811       2.78613       2.60451
     6  C(13)              0.00475       1.06856       0.38129       0.35643
     7  C(13)              0.00611       1.37384       0.49022       0.45826
     8  C(13)              0.00641       1.44166       0.51442       0.48089
     9  C(13)              0.00513       1.15449       0.41195       0.38509
    10  C(13)              0.00476       1.06955       0.38164       0.35676
    11  C(13)              0.00531       1.19348       0.42586       0.39810
    12  C(13)              0.00750       1.68739       0.60210       0.56285
    13  C(13)              0.00309       0.69408       0.24767       0.23152
    14  C(13)              0.00399       0.89699       0.32007       0.29920
    15  C(13)              0.00649       1.45929       0.52071       0.48677
    16  C(13)              0.00613       1.37910       0.49210       0.46002
    17  C(13)              0.00429       0.96409       0.34401       0.32159
    18  C(13)              0.00335       0.75403       0.26906       0.25152
    19  C(13)              0.00749       1.68422       0.60097       0.56180
    20  C(13)              0.00544       1.22251       0.43622       0.40778
    21  C(13)              0.00494       1.11178       0.39671       0.37085
    22  C(13)             -0.00058      -0.13069      -0.04663      -0.04359
    23  H(1)               0.00004       0.03977       0.01419       0.01327
    24  C(13)              0.00014       0.03193       0.01139       0.01065
    25  H(1)              -0.00002      -0.01871      -0.00668      -0.00624
    26  C(13)              0.00134       0.30114       0.10745       0.10045
    27  H(1)              -0.00013      -0.11225      -0.04005      -0.03744
    28  C(13)              0.00129       0.28935       0.10325       0.09652
    29  H(1)              -0.00009      -0.08174      -0.02917      -0.02727
    30  C(13)             -0.00032      -0.07116      -0.02539      -0.02374
    31  H(1)               0.00016       0.14236       0.05080       0.04749
    32  H(1)               0.00062       0.55507       0.19806       0.18515
    33  H(1)               0.00064       0.57126       0.20384       0.19055
    34  C(13)             -0.00030      -0.06788      -0.02422      -0.02264
    35  H(1)               0.00059       0.52794       0.18838       0.17610
    36  H(1)               0.00061       0.54752       0.19537       0.18263
    37  H(1)               0.00015       0.13668       0.04877       0.04559
    38  C(13)             -0.00020      -0.04450      -0.01588      -0.01484
    39  H(1)               0.00062       0.55477       0.19796       0.18505
    40  H(1)               0.00031       0.27997       0.09990       0.09339
    41  H(1)               0.00017       0.15547       0.05548       0.05186
    42  C(13)             -0.00189      -0.42547      -0.15182      -0.14192
    43  H(1)               0.00036       0.32293       0.11523       0.10772
    44  C(13)              0.00308       0.69262       0.24715       0.23103
    45  H(1)              -0.00031      -0.27347      -0.09758      -0.09122
    46  H(1)              -0.00026      -0.22822      -0.08143      -0.07613
    47  C(13)             -0.00028      -0.06298      -0.02247      -0.02101
    48  H(1)               0.00057       0.51343       0.18320       0.17126
    49  H(1)               0.00054       0.48667       0.17366       0.16234
    50  H(1)               0.00016       0.14049       0.05013       0.04686
    51  C(13)             -0.00085      -0.19014      -0.06785      -0.06343
    52  H(1)               0.00044       0.39293       0.14021       0.13107
    53  C(13)              0.00181       0.40639       0.14501       0.13556
    54  H(1)              -0.00018      -0.16245      -0.05797      -0.05419
    55  H(1)              -0.00016      -0.14270      -0.05092      -0.04760
    56  C(13)             -0.00058      -0.12965      -0.04626      -0.04325
    57  H(1)               0.00082       0.73140       0.26098       0.24397
    58  H(1)               0.00079       0.70541       0.25171       0.23530
    59  H(1)               0.00016       0.14249       0.05085       0.04753
    60  C(13)             -0.00023      -0.05252      -0.01874      -0.01752
    61  H(1)               0.00015       0.13069       0.04663       0.04359
    62  H(1)               0.00051       0.45645       0.16287       0.15226
    63  H(1)               0.00056       0.49752       0.17753       0.16595
    64  C(13)             -0.00337      -0.75772      -0.27038      -0.25275
    65  H(1)               0.00131       1.17511       0.41931       0.39197
    66  H(1)               0.00336       3.00446       1.07207       1.00218
    67  H(1)               0.00007       0.05848       0.02087       0.01951
    68  S(33)              0.17104      11.74925       4.19242       3.91913
    69  H(1)              -0.00225      -2.00834      -0.71662      -0.66991
 --------------------------------------------------------
       Center         ----  Spin Dipole Couplings  ----
                      3XX-RR        3YY-RR        3ZZ-RR
 --------------------------------------------------------
     1   Atom        0.216918      0.290592     -0.507510
     2   Atom       -0.156302      0.186777     -0.030475
     3   Atom        0.189527     -0.149486     -0.040041
     4   Atom       -0.148727      0.198235     -0.049508
     5   Atom        0.187557     -0.162424     -0.025133
     6   Atom       -0.027048      0.053244     -0.026196
     7   Atom       -0.019760      0.009726      0.010035
     8   Atom       -0.017190      0.005825      0.011365
     9   Atom        0.015273      0.012061     -0.027334
    10   Atom        0.049392     -0.026195     -0.023198
    11   Atom        0.011179     -0.017455      0.006276
    12   Atom        0.002084     -0.020231      0.018147
    13   Atom        0.016834      0.017716     -0.034550
    14   Atom       -0.021108      0.055115     -0.034007
    15   Atom       -0.020042      0.008922      0.011120
    16   Atom       -0.014980      0.007385      0.007595
    17   Atom        0.015882      0.015897     -0.031779
    18   Atom        0.058258     -0.021431     -0.036828
    19   Atom        0.005439     -0.024180      0.018740
    20   Atom        0.008189     -0.014918      0.006728
    21   Atom        0.011760      0.013074     -0.024834
    22   Atom       -0.004619      0.023185     -0.018566
    23   Atom       -0.002506      0.011067     -0.008561
    24   Atom        0.020452     -0.006929     -0.013523
    25   Atom        0.010855     -0.002544     -0.008312
    26   Atom       -0.009383      0.016649     -0.007266
    27   Atom       -0.002634      0.010808     -0.008173
    28   Atom        0.017844     -0.008972     -0.008872
    29   Atom        0.011039     -0.002575     -0.008464
    30   Atom        0.000457      0.003668     -0.004125
    31   Atom       -0.000824      0.004013     -0.003189
    32   Atom        0.001423      0.002230     -0.003652
    33   Atom        0.001484      0.001915     -0.003399
    34   Atom       -0.004985      0.009150     -0.004165
    35   Atom       -0.003376      0.006744     -0.003368
    36   Atom       -0.003387      0.007119     -0.003732
    37   Atom       -0.002817      0.006011     -0.003194
    38   Atom        0.008919     -0.004600     -0.004319
    39   Atom        0.006460     -0.003239     -0.003221
    40   Atom        0.007074     -0.003230     -0.003844
    41   Atom        0.005800     -0.002667     -0.003133
    42   Atom        0.006440      0.002763     -0.009203
    43   Atom        0.002253      0.001733     -0.003986
    44   Atom       -0.000009     -0.006655      0.006663
    45   Atom        0.003216     -0.001061     -0.002155
    46   Atom        0.001333      0.000795     -0.002128
    47   Atom       -0.004801      0.009093     -0.004292
    48   Atom       -0.003283      0.006703     -0.003420
    49   Atom       -0.003269      0.006826     -0.003556
    50   Atom       -0.002784      0.005940     -0.003156
    51   Atom        0.001664      0.004169     -0.005833
    52   Atom       -0.000460      0.003665     -0.003205
    53   Atom        0.000976      0.000969     -0.001945
    54   Atom        0.001266      0.001056     -0.002322
    55   Atom        0.001725      0.001029     -0.002754
    56   Atom        0.009044     -0.005073     -0.003971
    57   Atom        0.006945     -0.003267     -0.003677
    58   Atom        0.006946     -0.003424     -0.003522
    59   Atom        0.006156     -0.002898     -0.003258
    60   Atom        0.003748      0.000536     -0.004283
    61   Atom        0.004043     -0.000794     -0.003249
    62   Atom        0.002098      0.001522     -0.003621
    63   Atom        0.002225      0.001363     -0.003588
    64   Atom       -0.007891     -0.017936      0.025827
    65   Atom       -0.000187     -0.008508      0.008695
    66   Atom       -0.004561     -0.008700      0.013261
    67   Atom        0.003159     -0.014289      0.011130
    68   Atom       -0.391861     -0.425260      0.817121
    69   Atom       -0.025324     -0.010751      0.036075
 --------------------------------------------------------
                        XY            XZ            YZ
 --------------------------------------------------------
     1   Atom       -0.021855     -0.016457     -0.002411
     2   Atom       -0.125666      0.015708     -0.038048
     3   Atom        0.122360      0.040526      0.018508
     4   Atom       -0.118306     -0.005938      0.030714
     5   Atom        0.121886     -0.055160     -0.014556
     6   Atom        0.014053      0.000627     -0.000978
     7   Atom       -0.007235      0.000234      0.000995
     8   Atom       -0.011528      0.000367      0.002057
     9   Atom       -0.041957     -0.000507     -0.000259
    10   Atom       -0.012987      0.001593     -0.000137
    11   Atom        0.006616      0.001356      0.000208
    12   Atom        0.011328      0.001291      0.002424
    13   Atom        0.039873     -0.001654     -0.000925
    14   Atom        0.014544     -0.001394     -0.001550
    15   Atom       -0.006490      0.000671     -0.001276
    16   Atom       -0.011072      0.002248     -0.001009
    17   Atom       -0.040964      0.000594      0.000830
    18   Atom       -0.015476     -0.001412      0.000511
    19   Atom        0.006989     -0.002174      0.000489
    20   Atom        0.011507     -0.001050     -0.000299
    21   Atom        0.042882     -0.002795     -0.002194
    22   Atom        0.019127     -0.000470     -0.003458
    23   Atom        0.009382     -0.000364     -0.000822
    24   Atom       -0.018322      0.001455     -0.002094
    25   Atom       -0.009329      0.000392     -0.000282
    26   Atom        0.019025     -0.000324      0.001274
    27   Atom        0.009677     -0.000128     -0.000170
    28   Atom       -0.019699     -0.002874      0.002584
    29   Atom       -0.009942     -0.000171      0.000202
    30   Atom       -0.006882      0.000338     -0.000341
    31   Atom       -0.003836      0.000237     -0.000463
    32   Atom       -0.005352     -0.001176      0.000877
    33   Atom       -0.005210      0.001843     -0.001582
    34   Atom        0.000670     -0.000042     -0.000719
    35   Atom        0.001402     -0.000597     -0.002529
    36   Atom        0.001365      0.000415      0.001262
    37   Atom       -0.001068      0.000074     -0.000615
    38   Atom       -0.000611     -0.000649      0.000276
    39   Atom       -0.000627      0.001475     -0.000275
    40   Atom       -0.001872     -0.001872      0.000480
    41   Atom        0.000971     -0.001184     -0.000044
    42   Atom        0.008837      0.004096     -0.004096
    43   Atom        0.005666     -0.001047     -0.001166
    44   Atom       -0.001202     -0.010901      0.008276
    45   Atom        0.001488      0.001148     -0.000187
    46   Atom        0.003272     -0.000559      0.000050
    47   Atom        0.000686      0.000022      0.000328
    48   Atom        0.001379      0.000502      0.002120
    49   Atom        0.001356     -0.000416     -0.001540
    50   Atom       -0.001039     -0.000030      0.000280
    51   Atom       -0.008189     -0.002921     -0.002356
    52   Atom       -0.003815      0.000056     -0.000477
    53   Atom        0.000531      0.004794      0.006960
    54   Atom       -0.003432     -0.000489      0.000940
    55   Atom       -0.004810     -0.002469      0.001689
    56   Atom       -0.000770      0.000552     -0.000099
    57   Atom       -0.001495     -0.001596      0.000489
    58   Atom       -0.001494      0.002258     -0.000619
    59   Atom        0.001068      0.000386      0.000029
    60   Atom        0.006902      0.000273      0.000326
    61   Atom        0.003895      0.000316      0.000184
    62   Atom        0.005435      0.001392      0.001660
    63   Atom        0.005286     -0.001126     -0.001345
    64   Atom       -0.004726      0.022545     -0.007489
    65   Atom       -0.012680      0.020240     -0.013951
    66   Atom       -0.002259      0.007636     -0.004913
    67   Atom        0.002719      0.018905      0.002397
    68   Atom       -0.020768     -0.224382      0.102951
    69   Atom        0.013675     -0.018458     -0.028136
 --------------------------------------------------------


 ---------------------------------------------------------------------------------
              Anisotropic Spin Dipole Couplings in Principal Axis System
 ---------------------------------------------------------------------------------

       Atom             a.u.   MegaHertz   Gauss  10(-4) cm-1        Axes

              Baa    -0.5079    -8.793    -3.138    -2.933  0.0228  0.0036  0.9997
     1 Fe(57) Bbb     0.2113     3.658     1.305     1.220  0.9640  0.2650 -0.0230
              Bcc     0.2966     5.135     1.832     1.713 -0.2650  0.9642  0.0025
 
              Baa    -0.1975    -7.616    -2.718    -2.540  0.9508  0.3091 -0.0190
     2 N(14)  Bbb    -0.0368    -1.419    -0.506    -0.473 -0.0295  0.1516  0.9880
              Bcc     0.2342     9.034     3.224     3.014 -0.3083  0.9389 -0.1532
 
              Baa    -0.1892    -7.298    -2.604    -2.434 -0.3038  0.9521 -0.0356
     3 N(14)  Bbb    -0.0469    -1.811    -0.646    -0.604 -0.1615 -0.0146  0.9868
              Bcc     0.2362     9.109     3.250     3.038  0.9390  0.3055  0.1582
 
              Baa    -0.1853    -7.147    -2.550    -2.384  0.9547  0.2965 -0.0253
     4 N(14)  Bbb    -0.0528    -2.036    -0.726    -0.679  0.0559 -0.0952  0.9939
              Bcc     0.2381     9.183     3.277     3.063 -0.2923  0.9503  0.1075
 
              Baa    -0.2007    -7.742    -2.762    -2.582 -0.3015  0.9533 -0.0157
     5 N(14)  Bbb    -0.0374    -1.443    -0.515    -0.481  0.1971  0.0784  0.9772
              Bcc     0.2382     9.185     3.278     3.064  0.9329  0.2915 -0.2116
 
              Baa    -0.0296    -3.974    -1.418    -1.326  0.9605 -0.1655 -0.2236
     6 C(13)  Bbb    -0.0260    -3.492    -1.246    -1.165  0.2221 -0.0274  0.9746
              Bcc     0.0556     7.467     2.664     2.491  0.1675  0.9858 -0.0105
 
              Baa    -0.0214    -2.878    -1.027    -0.960  0.9739  0.2265 -0.0144
     7 C(13)  Bbb     0.0096     1.286     0.459     0.429  0.1142 -0.4343  0.8935
              Bcc     0.0119     1.592     0.568     0.531 -0.1961  0.8719  0.4488
 
              Baa    -0.0220    -2.953    -1.054    -0.985  0.9225  0.3846 -0.0339
     8 C(13)  Bbb     0.0092     1.235     0.441     0.412 -0.3201  0.7131 -0.6237
              Bcc     0.0128     1.719     0.613     0.573 -0.2157  0.5862  0.7809
 
              Baa    -0.0286    -3.832    -1.367    -1.278  0.6353  0.6588  0.4029
     9 C(13)  Bbb    -0.0271    -3.636    -1.298    -1.213 -0.2779 -0.2917  0.9153
              Bcc     0.0557     7.468     2.665     2.491  0.7205 -0.6934 -0.0022
 
              Baa    -0.0284    -3.807    -1.358    -1.270  0.1652  0.9860 -0.0249
    10 C(13)  Bbb    -0.0232    -3.117    -1.112    -1.040 -0.0169  0.0280  0.9995
              Bcc     0.0516     6.924     2.471     2.309  0.9861 -0.1647  0.0213
 
              Baa    -0.0189    -2.538    -0.905    -0.846 -0.2149  0.9766  0.0035
    11 C(13)  Bbb     0.0060     0.804     0.287     0.268 -0.1965 -0.0467  0.9794
              Bcc     0.0129     1.733     0.618     0.578  0.9567  0.2098  0.2019
 
              Baa    -0.0250    -3.361    -1.199    -1.121 -0.3834  0.9227 -0.0403
    12 C(13)  Bbb     0.0064     0.865     0.308     0.288  0.9115  0.3710 -0.1774
              Bcc     0.0186     2.496     0.891     0.833  0.1487  0.1048  0.9833
 
              Baa    -0.0346    -4.644    -1.657    -1.549  0.0450 -0.0166  0.9988
    13 C(13)  Bbb    -0.0226    -3.030    -1.081    -1.011  0.7096 -0.7032 -0.0437
              Bcc     0.0572     7.674     2.738     2.560  0.7031  0.7108 -0.0198
 
              Baa    -0.0342    -4.583    -1.635    -1.529  0.1063 -0.0001  0.9943
    14 C(13)  Bbb    -0.0237    -3.177    -1.134    -1.060  0.9776 -0.1825 -0.1046
              Bcc     0.0578     7.760     2.769     2.589  0.1815  0.9832 -0.0194
 
              Baa    -0.0214    -2.876    -1.026    -0.959  0.9779  0.2086 -0.0120
    15 C(13)  Bbb     0.0093     1.244     0.444     0.415 -0.1600  0.7844  0.5993
              Bcc     0.0122     1.632     0.582     0.544  0.1344 -0.5842  0.8004
 
              Baa    -0.0196    -2.635    -0.940    -0.879  0.9244  0.3764 -0.0624
    16 C(13)  Bbb     0.0070     0.946     0.338     0.316 -0.0751  0.3399  0.9375
              Bcc     0.0126     1.690     0.603     0.564 -0.3740  0.8619 -0.3424
 
              Baa    -0.0319    -4.284    -1.529    -1.429 -0.1015 -0.1041  0.9894
    17 C(13)  Bbb    -0.0249    -3.345    -1.194    -1.116  0.6999  0.6993  0.1454
              Bcc     0.0569     7.629     2.722     2.545 -0.7070  0.7072  0.0019
 
              Baa    -0.0369    -4.946    -1.765    -1.650  0.0113 -0.0218  0.9997
    18 C(13)  Bbb    -0.0243    -3.264    -1.165    -1.089  0.1845  0.9826  0.0194
              Bcc     0.0612     8.210     2.929     2.739  0.9828 -0.1842 -0.0151
 
              Baa    -0.0258    -3.458    -1.234    -1.153 -0.2199  0.9753 -0.0215
    19 C(13)  Bbb     0.0067     0.895     0.319     0.299  0.9615  0.2204  0.1643
              Bcc     0.0191     2.563     0.914     0.855 -0.1649 -0.0155  0.9862
 
              Baa    -0.0197    -2.640    -0.942    -0.880 -0.3819  0.9242 -0.0047
    20 C(13)  Bbb     0.0065     0.878     0.313     0.293  0.1528  0.0682  0.9859
              Bcc     0.0131     1.761     0.629     0.588  0.9115  0.3758 -0.1672
 
              Baa    -0.0305    -4.094    -1.461    -1.366  0.7125 -0.6969  0.0815
    21 C(13)  Bbb    -0.0250    -3.348    -1.195    -1.117 -0.0274  0.0884  0.9957
              Bcc     0.0555     7.442     2.656     2.482  0.7012  0.7117 -0.0439
 
              Baa    -0.0191    -2.557    -0.912    -0.853 -0.1839  0.1626  0.9694
    22 C(13)  Bbb    -0.0141    -1.890    -0.674    -0.630  0.8731 -0.4261  0.2371
              Bcc     0.0331     4.447     1.587     1.483  0.4516  0.8899 -0.0636
 
              Baa    -0.0086    -4.586    -1.636    -1.530 -0.0178  0.0502  0.9986
    23 H(1)   Bbb    -0.0073    -3.893    -1.389    -1.299  0.8905 -0.4533  0.0386
              Bcc     0.0159     8.479     3.026     2.828  0.4546  0.8900 -0.0367
 
              Baa    -0.0166    -2.229    -0.795    -0.743  0.3981  0.8354  0.3790
    24 C(13)  Bbb    -0.0131    -1.763    -0.629    -0.588 -0.2132 -0.3175  0.9240
              Bcc     0.0297     3.992     1.424     1.332  0.8922 -0.4486  0.0517
 
              Baa    -0.0083    -4.443    -1.585    -1.482  0.0155  0.0736  0.9972
    25 H(1)   Bbb    -0.0073    -3.908    -1.394    -1.304  0.4566  0.8867 -0.0726
              Bcc     0.0157     8.351     2.980     2.785  0.8895 -0.4564  0.0199
 
              Baa    -0.0195    -2.614    -0.933    -0.872  0.8815 -0.4667  0.0721
    26 C(13)  Bbb    -0.0072    -0.970    -0.346    -0.324 -0.0771  0.0083  0.9970
              Bcc     0.0267     3.585     1.279     1.196  0.4659  0.8844  0.0287
 
              Baa    -0.0082    -4.363    -1.557    -1.455  0.0675 -0.0255  0.9974
    27 H(1)   Bbb    -0.0077    -4.104    -1.465    -1.369  0.8836 -0.4628 -0.0716
              Bcc     0.0159     8.468     3.021     2.824  0.4634  0.8861 -0.0087
 
              Baa    -0.0195    -2.614    -0.933    -0.872  0.4594  0.8836 -0.0908
    28 C(13)  Bbb    -0.0092    -1.229    -0.439    -0.410  0.1303  0.0341  0.9909
              Bcc     0.0286     3.843     1.371     1.282  0.8786 -0.4670 -0.0995
 
              Baa    -0.0085    -4.525    -1.615    -1.509 -0.0603 -0.1354  0.9890
    29 H(1)   Bbb    -0.0078    -4.163    -1.485    -1.389  0.4626  0.8742  0.1478
              Bcc     0.0163     8.688     3.100     2.898  0.8845 -0.4664 -0.0099
 
              Baa    -0.0050    -0.672    -0.240    -0.224  0.7832  0.6189 -0.0605
    30 C(13)  Bbb    -0.0041    -0.555    -0.198    -0.185  0.0251  0.0657  0.9975
              Bcc     0.0091     1.227     0.438     0.409 -0.6213  0.7827 -0.0359
 
              Baa    -0.0032    -1.717    -0.613    -0.573  0.0250  0.0771  0.9967
    31 H(1)   Bbb    -0.0029    -1.568    -0.560    -0.523  0.8757  0.4792 -0.0591
              Bcc     0.0062     3.286     1.172     1.096 -0.4822  0.8743 -0.0556
 
              Baa    -0.0040    -2.131    -0.761    -0.711  0.4438  0.2608  0.8573
    32 H(1)   Bbb    -0.0034    -1.807    -0.645    -0.603  0.5876  0.6376 -0.4981
              Bcc     0.0074     3.939     1.405     1.314 -0.6766  0.7249  0.1298
 
              Baa    -0.0040    -2.155    -0.769    -0.719 -0.4262 -0.1353  0.8945
    33 H(1)   Bbb    -0.0034    -1.822    -0.650    -0.608  0.5977  0.7002  0.3906
              Bcc     0.0075     3.977     1.419     1.327 -0.6791  0.7011 -0.2176
 
              Baa    -0.0050    -0.673    -0.240    -0.225  0.9989 -0.0467  0.0101
    34 C(13)  Bbb    -0.0042    -0.564    -0.201    -0.188 -0.0076  0.0541  0.9985
              Bcc     0.0092     1.237     0.442     0.413  0.0472  0.9974 -0.0537
 
              Baa    -0.0041    -2.184    -0.779    -0.729  0.4443  0.1487  0.8835
    35 H(1)   Bbb    -0.0035    -1.843    -0.658    -0.615  0.8855 -0.2229 -0.4078
              Bcc     0.0075     4.027     1.437     1.343  0.1363  0.9634 -0.2307
 
              Baa    -0.0040    -2.145    -0.766    -0.716 -0.4877 -0.0390  0.8721
    36 H(1)   Bbb    -0.0034    -1.828    -0.652    -0.610  0.8635 -0.1687  0.4753
              Bcc     0.0074     3.973     1.418     1.325  0.1286  0.9849  0.1160
 
              Baa    -0.0032    -1.726    -0.616    -0.576 -0.0086  0.0654  0.9978
    37 H(1)   Bbb    -0.0029    -1.571    -0.561    -0.524  0.9930  0.1185  0.0008
              Bcc     0.0062     3.297     1.176     1.100 -0.1182  0.9908 -0.0660
 
              Baa    -0.0048    -0.640    -0.229    -0.214  0.0146  0.8628 -0.5053
    38 C(13)  Bbb    -0.0042    -0.565    -0.201    -0.188  0.0660  0.5034  0.8615
              Bcc     0.0090     1.205     0.430     0.402  0.9977 -0.0459 -0.0496
 
              Baa    -0.0036    -1.898    -0.677    -0.633 -0.0887  0.5448  0.8339
    39 H(1)   Bbb    -0.0032    -1.689    -0.603    -0.563  0.1360  0.8360 -0.5317
              Bcc     0.0067     3.587     1.280     1.197  0.9867 -0.0662  0.1482
 
              Baa    -0.0042    -2.240    -0.799    -0.747  0.1186 -0.2472  0.9617
    40 H(1)   Bbb    -0.0035    -1.881    -0.671    -0.628  0.2071  0.9534  0.2195
              Bcc     0.0077     4.121     1.471     1.375  0.9711 -0.1731 -0.1643
 
              Baa    -0.0033    -1.761    -0.628    -0.587  0.1435 -0.1524  0.9779
    41 H(1)   Bbb    -0.0028    -1.474    -0.526    -0.492 -0.0884  0.9821  0.1660
              Bcc     0.0061     3.234     1.154     1.079  0.9857  0.1103 -0.1274
 
              Baa    -0.0131    -1.753    -0.625    -0.585 -0.3645  0.4188  0.8317
    42 C(13)  Bbb    -0.0006    -0.078    -0.028    -0.026 -0.5069  0.6599 -0.5545
              Bcc     0.0136     1.831     0.653     0.611  0.7811  0.6237  0.0282
 
              Baa    -0.0042    -2.251    -0.803    -0.751 -0.0574  0.2444  0.9680
    43 H(1)   Bbb    -0.0037    -1.949    -0.695    -0.650  0.6957 -0.6856  0.2143
              Bcc     0.0079     4.200     1.499     1.401  0.7160  0.6857 -0.1307
 
              Baa    -0.0123    -1.655    -0.591    -0.552 -0.4200  0.7187 -0.5541
    44 C(13)  Bbb    -0.0047    -0.637    -0.227    -0.212  0.7384  0.6256  0.2517
              Bcc     0.0171     2.292     0.818     0.764 -0.5276  0.3034  0.7934
 
              Baa    -0.0026    -1.379    -0.492    -0.460 -0.2715  0.3738  0.8869
    45 H(1)   Bbb    -0.0013    -0.682    -0.243    -0.228 -0.1833  0.8846 -0.4289
              Bcc     0.0039     2.061     0.736     0.688  0.9448  0.2790  0.1717
 
              Baa    -0.0026    -1.387    -0.495    -0.463  0.5258 -0.5166  0.6758
    46 H(1)   Bbb    -0.0018    -0.944    -0.337    -0.315 -0.4251  0.5285  0.7348
              Bcc     0.0044     2.331     0.832     0.778  0.7368  0.6736 -0.0582
 
              Baa    -0.0048    -0.649    -0.231    -0.216  0.9987 -0.0489 -0.0110
    47 C(13)  Bbb    -0.0043    -0.577    -0.206    -0.192  0.0098 -0.0250  0.9996
              Bcc     0.0091     1.226     0.437     0.409  0.0492  0.9985  0.0245
 
              Baa    -0.0039    -2.107    -0.752    -0.703 -0.4210 -0.1243  0.8985
    48 H(1)   Bbb    -0.0034    -1.803    -0.643    -0.601  0.8969 -0.2051  0.3919
              Bcc     0.0073     3.910     1.395     1.304  0.1356  0.9708  0.1978
 
              Baa    -0.0039    -2.074    -0.740    -0.692  0.4432  0.0723  0.8935
    49 H(1)   Bbb    -0.0033    -1.787    -0.638    -0.596  0.8866 -0.1825 -0.4250
              Bcc     0.0072     3.861     1.378     1.288  0.1323  0.9806 -0.1450
 
              Baa    -0.0032    -1.688    -0.602    -0.563 -0.0091 -0.0318  0.9995
    50 H(1)   Bbb    -0.0029    -1.551    -0.553    -0.517  0.9931  0.1163  0.0127
              Bcc     0.0061     3.239     1.156     1.080 -0.1166  0.9927  0.0305
 
              Baa    -0.0094    -1.256    -0.448    -0.419  0.5223  0.4430  0.7287
    51 C(13)  Bbb    -0.0018    -0.247    -0.088    -0.082 -0.5489 -0.4793  0.6848
              Bcc     0.0112     1.503     0.536     0.501 -0.6527  0.7576  0.0071
 
              Baa    -0.0033    -1.758    -0.627    -0.586  0.2607  0.2074  0.9429
    52 H(1)   Bbb    -0.0027    -1.422    -0.507    -0.474  0.8194  0.4689 -0.3297
              Bcc     0.0060     3.180     1.135     1.061 -0.5105  0.8585 -0.0477
 
              Baa    -0.0089    -1.189    -0.424    -0.397 -0.3485 -0.5290  0.7738
    53 C(13)  Bbb     0.0005     0.064     0.023     0.021  0.8198 -0.5723 -0.0220
              Bcc     0.0084     1.125     0.402     0.375  0.4545  0.6266  0.6331
 
              Baa    -0.0027    -1.448    -0.517    -0.483 -0.3401 -0.5071  0.7920
    54 H(1)   Bbb    -0.0020    -1.080    -0.385    -0.360  0.6213  0.5110  0.5940
              Bcc     0.0047     2.528     0.902     0.843  0.7059 -0.6940 -0.1413
 
              Baa    -0.0040    -2.125    -0.758    -0.709  0.5841  0.3075  0.7512
    55 H(1)   Bbb    -0.0031    -1.658    -0.592    -0.553  0.3946  0.7012 -0.5939
              Bcc     0.0071     3.783     1.350     1.262  0.7093 -0.6432 -0.2882
 
              Baa    -0.0051    -0.687    -0.245    -0.229  0.0518  0.9968  0.0607
    56 C(13)  Bbb    -0.0040    -0.535    -0.191    -0.179 -0.0457 -0.0584  0.9972
              Bcc     0.0091     1.222     0.436     0.408  0.9976 -0.0544  0.0425
 
              Baa    -0.0040    -2.155    -0.769    -0.719  0.0720 -0.4309  0.8995
    57 H(1)   Bbb    -0.0034    -1.795    -0.641    -0.599  0.1928  0.8909  0.4113
              Bcc     0.0074     3.951     1.410     1.318  0.9786 -0.1438 -0.1473
 
              Baa    -0.0042    -2.222    -0.793    -0.741 -0.1072  0.5008  0.8589
    58 H(1)   Bbb    -0.0035    -1.855    -0.662    -0.619  0.2242  0.8538 -0.4699
              Bcc     0.0076     4.077     1.455     1.360  0.9686 -0.1422  0.2038
 
              Baa    -0.0033    -1.747    -0.623    -0.583 -0.0473  0.0567  0.9973
    59 H(1)   Bbb    -0.0030    -1.612    -0.575    -0.538 -0.1128  0.9917 -0.0617
              Bcc     0.0063     3.359     1.199     1.120  0.9925  0.1154  0.0405
 
              Baa    -0.0050    -0.665    -0.237    -0.222 -0.6137  0.7790 -0.1286
    60 C(13)  Bbb    -0.0043    -0.575    -0.205    -0.192 -0.1039  0.0818  0.9912
              Bcc     0.0092     1.240     0.442     0.414  0.7827  0.6217  0.0308
 
              Baa    -0.0033    -1.741    -0.621    -0.581 -0.0216 -0.0405  0.9989
    61 H(1)   Bbb    -0.0030    -1.579    -0.564    -0.527 -0.4868  0.8732  0.0248
              Bcc     0.0062     3.321     1.185     1.108  0.8733  0.4857  0.0386
 
              Baa    -0.0041    -2.212    -0.789    -0.738  0.1719 -0.4251  0.8887
    62 H(1)   Bbb    -0.0035    -1.877    -0.670    -0.626  0.6830 -0.5986 -0.4185
              Bcc     0.0077     4.089     1.459     1.364  0.7099  0.6789  0.1874
 
              Baa    -0.0040    -2.119    -0.756    -0.707 -0.1913  0.4139  0.8900
    63 H(1)   Bbb    -0.0034    -1.815    -0.648    -0.606  0.6628 -0.6144  0.4281
              Bcc     0.0074     3.934     1.404     1.312  0.7240  0.6718 -0.1568
 
              Baa    -0.0201    -2.699    -0.963    -0.900  0.6582  0.7244 -0.2049
    64 C(13)  Bbb    -0.0184    -2.467    -0.880    -0.823 -0.6075  0.6719  0.4236
              Bcc     0.0385     5.166     1.843     1.723  0.4446 -0.1543  0.8824
 
              Baa    -0.0178    -9.485    -3.385    -3.164  0.6824  0.7167 -0.1441
    65 H(1)   Bbb    -0.0156    -8.349    -2.979    -2.785 -0.4462  0.5645  0.6945
              Bcc     0.0334    17.834     6.364     5.949  0.5790 -0.4096  0.7050
 
              Baa    -0.0099    -5.276    -1.883    -1.760  0.2197  0.9665  0.1327
    66 H(1)   Bbb    -0.0073    -3.905    -1.394    -1.303  0.9134 -0.1559 -0.3761
              Bcc     0.0172     9.181     3.276     3.063  0.3428 -0.2038  0.9170
 
              Baa    -0.0147    -7.864    -2.806    -2.623 -0.2298  0.9701  0.0780
    67 H(1)   Bbb    -0.0120    -6.422    -2.292    -2.142  0.7430  0.2266 -0.6298
              Bcc     0.0268    14.287     5.098     4.766  0.6286  0.0867  0.7729
 
              Baa    -0.4354   -17.849    -6.369    -5.954  0.5755  0.8170  0.0359
    68 S(33)  Bbb    -0.4306   -17.654    -6.299    -5.889  0.7986 -0.5709  0.1907
              Bcc     0.8660    35.504    12.669    11.843 -0.1763  0.0811  0.9810
 
              Baa    -0.0336   -17.921    -6.395    -5.978  0.8784 -0.4762  0.0404
    69 H(1)   Bbb    -0.0220   -11.721    -4.182    -3.910  0.3951  0.7711  0.4994
              Bcc     0.0556    29.641    10.577     9.887 -0.2690 -0.4227  0.8654
 

 ---------------------------------------------------------------------------------

 Unable to Open any file for archive entry.
 1\1\GINC-BGN1018\SP\UAPFD\Gen\C31H32Fe1N4S1(1+,6)\BECSLEIP\13-Nov-2024
 \0\\# apfd/gen scf=maxcycle=999 geom=check\\6m7l_III_H\\1,6\Fe,0,28.57
 21737361,33.5728533311,-8.2644268709\N,0,26.9260150815,32.7573169851,-
 7.5029064158\N,0,28.7148729139,34.739178195,-6.6176475323\N,0,30.25508
 10587,34.4120463642,-8.9624631523\N,0,28.5167746453,32.3480338636,-9.8
 15462096\C,0,26.2031644191,31.7503586764,-8.0660373261\C,0,25.09750054
 36,31.372950044,-7.2126719043\C,0,25.167775128,32.1771293889,-6.119783
 2077\C,0,26.3146451878,33.0351335903,-6.3207009048\C,0,27.8253993175,3
 4.8129431274,-5.5864741968\C,0,28.1890932432,35.8532932191,-4.66053061
 53\C,0,29.3297565131,36.426170581,-5.1546378314\C,0,29.6335989858,35.7
 163245791,-6.3799785555\C,0,31.0221788543,35.3672839135,-8.3655723061\
 C,0,32.200914214,35.6387134431,-9.1427542225\C,0,32.1450084883,34.8138
 951651,-10.2328391431\C,0,30.9149431475,34.0622566264,-10.1029976103\C
 ,0,29.335814565,32.3663639824,-10.9034136566\C,0,28.8439633547,31.4768
 538572,-11.9303973582\C,0,27.7044409654,30.9196348596,-11.4387437161\C
 ,0,27.5134856459,31.480179453,-10.1203579719\C,0,26.4563183499,31.1629
 516181,-9.2900141352\H,0,25.7629077558,30.4109998507,-9.6331599484\C,0
 ,26.7177786147,34.0017615082,-5.4253611891\H,0,26.1258893259,34.135126
 1115,-4.5337192321\C,0,30.7232494311,36.0030010224,-7.1756689218\H,0,3
 1.4062314194,36.7658811598,-6.8366931318\C,0,30.4782427941,33.13139096
 18,-11.0274547756\H,0,31.0553666884,33.0271551868,-11.9326234283\C,0,2
 4.2866325778,32.2251757669,-4.9201091252\H,0,23.4959977844,31.48268104
 53,-4.9914014524\H,0,23.8264638945,33.2085884808,-4.8233332982\H,0,24.
 8617294368,32.0292269569,-4.0151362898\C,0,24.1159827387,30.2999977366
 ,-7.5348566746\H,0,24.6242233488,29.3469443248,-7.6805953539\H,0,23.57
 45452729,30.5392812754,-8.4503631838\H,0,23.3939040889,30.1839643243,-
 6.7307332421\C,0,27.4047810157,36.2449819225,-3.4582793526\H,0,27.6329
 77912,35.5901256528,-2.616038615\H,0,26.3362148142,36.1817088662,-3.65
 65343889\H,0,27.6471044674,37.266869728,-3.1740821595\C,0,30.097224279
 ,37.5359034031,-4.6321303678\H,0,30.5535387085,38.1813461961,-5.373820
 2147\C,0,30.2771233614,37.8074424675,-3.3440952369\H,0,29.8885076249,3
 7.1758311122,-2.5646299961\H,0,30.8483458509,38.6631696974,-3.02482922
 81\C,0,33.265668884,36.6096950108,-8.7693851156\H,0,33.7256114225,36.3
 27710132,-7.8222150651\H,0,32.8508829884,37.6120776506,-8.6571830117\H
 ,0,34.0409226263,36.6359481704,-9.5307803121\C,0,33.1332453652,34.6979
 939574,-11.2885574814\H,0,33.5598706641,35.636298022,-11.6265240829\C,
 0,33.5655839515,33.56010285,-11.8174751561\H,0,34.3109221961,33.546941
 515,-12.5951902569\H,0,33.2142512414,32.6018337731,-11.4741875259\C,0,
 29.5101808367,31.2673430657,-13.2458775018\H,0,30.5213092243,30.885488
 7212,-13.1056542009\H,0,29.5779686481,32.2063603055,-13.795836375\H,0,
 28.9558609431,30.5541706176,-13.8505610429\C,0,26.7846016726,29.934188
 6675,-12.0721106229\H,0,27.1223353494,29.6783834295,-13.073170885\H,0,
 25.7758423419,30.3412650695,-12.1424382404\H,0,26.7395712932,29.019474
 9306,-11.4809408816\C,0,27.6977096462,35.325941193,-11.0811645982\H,0,
 28.7708670623,35.2395653593,-11.2153500133\H,0,27.3231705836,36.263071
 6646,-11.4807076812\H,0,27.1989894188,34.4896460533,-11.5597296674\S,0
 ,27.2870190563,35.232868329,-9.3001115306\H,0,28.0187330198,36.3022118
 904,-8.9593892153\\Version=ES64L-G16RevC.02\State=6-A\HF=-3080.0413141
 \S2=8.764009\S2-1=0.\S2A=8.750057\RMSD=8.355e-09\Dipole=-0.4755579,0.5
 034652,-0.7185444\Quadrupole=-2.8167088,-6.8390969,9.6558058,19.835650
 1,-12.1086789,15.0522056\PG=C01 [X(C31H32Fe1N4S1)]\\@
 The archive entry for this job was punched.


 KNIGHT- SIRE, I'VE JUST RETURNED FROM THE FRONT
 KING-   HOW GOES THE BATTLE                    
 KNIGHT- THE SITUATION IS QUITE FLUID           
 KING-   WHAT DOES *THAT* MEAN                  
 KNIGHT- WE'RE UP THE CREEK                     
                THE WIZARD OF ID                
 Job cpu time:       0 days  1 hours 24 minutes 16.3 seconds.
 Elapsed time:       0 days  0 hours  1 minutes 27.9 seconds.
 File lengths (MBytes):  RWF=    343 Int=      0 D2E=      0 Chk=    150 Scr=      1
 Normal termination of Gaussian 16 at Wed Nov 13 15:58:01 2024.
