 Entering Gaussian System, Link 0=g16
 Input=6oo905.com
 Output=6oo905.log
 Initial command:
 /sw/chem/gaussian/g16_C02/a100/g16/l1.exe "/local/becsleip_8079202/Gau-1346499.inp" -scrdir="/local/becsleip_8079202/"
 Entering Link 1 = /sw/chem/gaussian/g16_C02/a100/g16/l1.exe PID=   1346500.
  
 Copyright (c) 1988-2021, Gaussian, Inc.  All Rights Reserved.
  
 This is part of the Gaussian(R) 16 program.  It is based on
 the Gaussian(R) 09 system (copyright 2009, Gaussian, Inc.),
 the Gaussian(R) 03 system (copyright 2003, Gaussian, Inc.),
 the Gaussian(R) 98 system (copyright 1998, Gaussian, Inc.),
 the Gaussian(R) 94 system (copyright 1995, Gaussian, Inc.),
 the Gaussian 92(TM) system (copyright 1992, Gaussian, Inc.),
 the Gaussian 90(TM) system (copyright 1990, Gaussian, Inc.),
 the Gaussian 88(TM) system (copyright 1988, Gaussian, Inc.),
 the Gaussian 86(TM) system (copyright 1986, Carnegie Mellon
 University), and the Gaussian 82(TM) system (copyright 1983,
 Carnegie Mellon University). Gaussian is a federally registered
 trademark of Gaussian, Inc.
  
 This software contains proprietary and confidential information,
 including trade secrets, belonging to Gaussian, Inc.
  
 This software is provided under written license and may be
 used, copied, transmitted, or stored only in accord with that
 written license.
  
 The following legend is applicable only to US Government
 contracts under FAR:
  
                    RESTRICTED RIGHTS LEGEND
  
 Use, reproduction and disclosure by the US Government is
 subject to restrictions as set forth in subparagraphs (a)
 and (c) of the Commercial Computer Software - Restricted
 Rights clause in FAR 52.227-19.
  
 Gaussian, Inc.
 340 Quinnipiac St., Bldg. 40, Wallingford CT 06492
  
  
 ---------------------------------------------------------------
 Warning -- This program may not be used in any manner that
 competes with the business of Gaussian, Inc. or will provide
 assistance to any competitor of Gaussian, Inc.  The licensee
 of this program is prohibited from giving any competitor of
 Gaussian, Inc. access to this program.  By using this program,
 the user acknowledges that Gaussian, Inc. is engaged in the
 business of creating and licensing software in the field of
 computational chemistry and represents and warrants to the
 licensee that it is not a competitor of Gaussian, Inc. and that
 it will not use this program in any manner prohibited above.
 ---------------------------------------------------------------
  

 Cite this work as:
 Gaussian 16, Revision C.02,
 M. J. Frisch, G. W. Trucks, H. B. Schlegel, G. E. Scuseria, 
 M. A. Robb, J. R. Cheeseman, G. Scalmani, V. Barone, 
 G. A. Petersson, H. Nakatsuji, X. Li, M. Caricato, A. V. Marenich, 
 J. Bloino, B. G. Janesko, R. Gomperts, B. Mennucci, H. P. Hratchian, 
 J. V. Ortiz, A. F. Izmaylov, J. L. Sonnenberg, D. Williams-Young, 
 F. Ding, F. Lipparini, F. Egidi, J. Goings, B. Peng, A. Petrone, 
 T. Henderson, D. Ranasinghe, V. G. Zakrzewski, J. Gao, N. Rega, 
 G. Zheng, W. Liang, M. Hada, M. Ehara, K. Toyota, R. Fukuda, 
 J. Hasegawa, M. Ishida, T. Nakajima, Y. Honda, O. Kitao, H. Nakai, 
 T. Vreven, K. Throssell, J. A. Montgomery, Jr., J. E. Peralta, 
 F. Ogliaro, M. J. Bearpark, J. J. Heyd, E. N. Brothers, K. N. Kudin, 
 V. N. Staroverov, T. A. Keith, R. Kobayashi, J. Normand, 
 K. Raghavachari, A. P. Rendell, J. C. Burant, S. S. Iyengar, 
 J. Tomasi, M. Cossi, J. M. Millam, M. Klene, C. Adamo, R. Cammi, 
 J. W. Ochterski, R. L. Martin, K. Morokuma, O. Farkas, 
 J. B. Foresman, and D. J. Fox, Gaussian, Inc., Wallingford CT, 2019.
 
 ******************************************
 Gaussian 16:  ES64L-G16RevC.02  7-Dec-2021
                13-Nov-2024 
 ******************************************
 %mem=16GB
 %CPU=0-71
 SetSPE:  set environment variable "OMP_PROC_BIND" = "true"
 SetSPE:  set environment variable "OMP_PLACES" = "{0},{1},{2},{3},{4},{5},{6},{7},{8},{9},{10},{11},{12},{13},{14},{15},{16},{17},{18},{19},{20},{21},{22},{23},{24},{25},{26},{27},{28},{29},{30},{31},{32},{33},{34},{35},{36},{37},{38},{39},{40},{41},{42},{43},{44},{45},{46},{47},{48},{49},{50},{51},{52},{53},{54},{55},{56},{57},{58},{59},{60},{61},{62},{63},{64},{65},{66},{67},{68},{69},{70},{71}"
 Will use up to   72 processors via shared memory.
 %gpucpu=0,1,2,3=0,1,2,3
 Will use    4 GPUs:
 Thread  CPU   GPU
      0    0     0
      1    1     1
      2    2     2
      3    3     3
      4    4    -1
      5    5    -1
      6    6    -1
      7    7    -1
      8    8    -1
      9    9    -1
     10   10    -1
     11   11    -1
     12   12    -1
     13   13    -1
     14   14    -1
     15   15    -1
     16   16    -1
     17   17    -1
     18   18    -1
     19   19    -1
     20   20    -1
     21   21    -1
     22   22    -1
     23   23    -1
     24   24    -1
     25   25    -1
     26   26    -1
     27   27    -1
     28   28    -1
     29   29    -1
     30   30    -1
     31   31    -1
     32   32    -1
     33   33    -1
     34   34    -1
     35   35    -1
     36   36    -1
     37   37    -1
     38   38    -1
     39   39    -1
     40   40    -1
     41   41    -1
     42   42    -1
     43   43    -1
     44   44    -1
     45   45    -1
     46   46    -1
     47   47    -1
     48   48    -1
     49   49    -1
     50   50    -1
     51   51    -1
     52   52    -1
     53   53    -1
     54   54    -1
     55   55    -1
     56   56    -1
     57   57    -1
     58   58    -1
     59   59    -1
     60   60    -1
     61   61    -1
     62   62    -1
     63   63    -1
     64   64    -1
     65   65    -1
     66   66    -1
     67   67    -1
     68   68    -1
     69   69    -1
     70   70    -1
     71   71    -1
 SetGPE:  set environment variable "OMP_PROC_BIND" = "true"
 SetGPE:  set environment variable "OMP_PLACES" = "{0},{1},{2},{3},{4},{5},{6},{7},{8},{9},{10},{11},{12},{13},{14},{15},{16},{17},{18},{19},{20},{21},{22},{23},{24},{25},{26},{27},{28},{29},{30},{31},{32},{33},{34},{35},{36},{37},{38},{39},{40},{41},{42},{43},{44},{45},{46},{47},{48},{49},{50},{51},{52},{53},{54},{55},{56},{57},{58},{59},{60},{61},{62},{63},{64},{65},{66},{67},{68},{69},{70},{71}"
 %oldchk=6oo9_II_Sre.chk
 %chk=6oo9_II_Qn.chk
 Properties for Device   0
 Minimum vector length:                              32
 Maximum vector length:                            1024
 Number of SMPs:                                    108
 Maximum number of threads per SMP:                2048
 Number of ASync Engines:                             5
 Memory:                                           9207742464
 Properties for Device   1
 Minimum vector length:                              32
 Maximum vector length:                            1024
 Number of SMPs:                                    108
 Maximum number of threads per SMP:                2048
 Number of ASync Engines:                             5
 Memory:                                           9207742464
 Properties for Device   2
 Minimum vector length:                              32
 Maximum vector length:                            1024
 Number of SMPs:                                    108
 Maximum number of threads per SMP:                2048
 Number of ASync Engines:                             5
 Memory:                                           9207742464
 Properties for Device   3
 Minimum vector length:                              32
 Maximum vector length:                            1024
 Number of SMPs:                                    108
 Maximum number of threads per SMP:                2048
 Number of ASync Engines:                             5
 Memory:                                           9207742464
   8286968217 words of memory will be used on each GPU.
 Copying data from "6oo9_II_Sre.chk" to current chk file "6oo9_II_Qn.chk"
 IOpt=  2 FromEx=T IUOpen= 4 IOptOp= 5 NList=   0 IFRang= 0 IUIn= 4 IUOut= 2.
 --------------------------------------------------------------
 # apfd/def2TZVP guess=read scf=maxcycle=999 geom=check pop=nbo
 --------------------------------------------------------------
 1/29=2,38=1,172=1/1;
 2/12=2,40=1/2;
 3/5=44,7=101,11=2,14=-4,25=1,30=1,74=-44,116=-2/1,2,3;
 4/5=1/1;
 5/5=2,7=999,38=6/2;
 6/7=2,8=2,9=2,10=2,28=1,40=1/1,7;
 99/5=1,9=1/99;
 ---------
 6oo9_II_Q
 ---------
 Structure from the checkpoint file:  "6oo9_II_Qn.chk"
 Charge =  0 Multiplicity = 5
 Z-Matrix found in chk file.
 Fe,0,-22.967858452,-28.107166296,-10.1304672623
 N,0,-22.8623956836,-29.7946726678,-11.2826572652
 N,0,-22.2840331118,-27.0712461843,-11.6690512925
 N,0,-22.594311527,-26.6215681171,-8.8655211857
 N,0,-23.2212222663,-29.3505616581,-8.5471823858
 C,0,-23.1133230006,-31.0856254031,-10.926637972
 C,0,-23.1308557492,-31.953275335,-12.0811845142
 C,0,-22.8820265163,-31.1597125733,-13.1569200001
 C,0,-22.7135918346,-29.8208242474,-12.6405827973
 C,0,-22.2075507187,-27.4476541932,-12.9766642851
 C,0,-21.8665493524,-26.3300393405,-13.8175362223
 C,0,-21.7171275553,-25.2538269167,-12.9841264423
 C,0,-21.9952231056,-25.7391122952,-11.6472717015
 C,0,-22.3446546786,-25.3360962322,-9.2460639163
 C,0,-22.542120375,-24.4279275088,-8.1474110206
 C,0,-22.9384384166,-25.1909120748,-7.0823665742
 C,0,-22.9495997092,-26.5592663527,-7.5552411838
 C,0,-23.3474114113,-28.956494797,-7.2464361831
 C,0,-23.631881622,-30.084762071,-6.388129742
 C,0,-23.6811896812,-31.1756521244,-7.197296214
 C,0,-23.4213530907,-30.697757286,-8.5362060967
 C,0,-23.3670361018,-31.5213943689,-9.6414732649
 H,0,-23.5431117919,-32.575060114,-9.493090262
 C,0,-22.4347476963,-28.730304725,-13.4397030751
 H,0,-22.3598064632,-28.8999475559,-14.5024379132
 C,0,-21.9909677068,-24.9365660753,-10.5234408372
 H,0,-21.7767746338,-23.888356257,-10.6659451952
 C,0,-23.2473308728,-27.66118135,-6.7779490734
 H,0,-23.403274533,-27.4984687037,-5.7233093593
 C,0,-22.7813104385,-31.5263791221,-14.5969601798
 H,0,-23.5091833489,-30.9702316323,-15.1881544402
 H,0,-22.9655248922,-32.5884227546,-14.73770912
 H,0,-21.7870497389,-31.2973957142,-14.9806903503
 C,0,-23.3745471714,-33.4214846173,-12.022458901
 H,0,-24.3555813301,-33.6322542249,-11.5954668352
 H,0,-22.6232914028,-33.9084857381,-11.4008215963
 H,0,-23.3325542182,-33.8597685845,-13.016303681
 C,0,-21.638068984,-26.4045629282,-15.2862097949
 H,0,-22.5840594544,-26.3701433066,-15.8291782243
 H,0,-21.1307059155,-27.3310375544,-15.5504470875
 H,0,-21.0248883635,-25.5666753527,-15.6109578113
 C,0,-21.347253873,-23.8926272663,-13.306461589
 H,0,-20.7437406122,-23.383683927,-12.5643067687
 C,0,-21.6935585308,-23.2453433285,-14.4137954483
 H,0,-22.3304565765,-23.6870039686,-15.1602903736
 H,0,-21.3727826012,-22.2336499273,-14.5978516617
 C,0,-22.3781693744,-22.9503881068,-8.218392006
 H,0,-21.380320188,-22.6914667642,-8.5728553982
 H,0,-22.5285654035,-22.5019922541,-7.2397635651
 H,0,-23.103830357,-22.5185080695,-8.9081026266
 C,0,-23.2956731753,-24.7242447581,-5.7573388293
 H,0,-22.6865813409,-23.9141783991,-5.3711916376
 C,0,-24.3081401327,-25.1771448421,-5.0277945701
 H,0,-24.5206359859,-24.7785564214,-4.0497041373
 H,0,-24.9776010918,-25.938691706,-5.3903246343
 C,0,-23.8164401146,-29.9920633628,-4.9133304292
 H,0,-24.6581402192,-29.3428296112,-4.6713109482
 H,0,-22.924856197,-29.5780907022,-4.4428015624
 H,0,-24.0061818206,-30.9732247335,-4.4854265375
 C,0,-23.9330151366,-32.6019505441,-6.8494053823
 H,0,-24.1167343152,-32.711637867,-5.7837227573
 H,0,-23.0732065692,-33.2175244004,-7.1140677852
 H,0,-24.8010066977,-32.9822590431,-7.388461286
 C,0,-26.1280404475,-29.171380218,-10.3071006153
 H,0,-25.5851928723,-29.9955878331,-10.7579586183
 H,0,-27.1122885595,-29.0538056626,-10.7494732346
 H,0,-26.2133958983,-29.329399834,-9.2370230079
 S,0,-25.1810786493,-27.6191911643,-10.5273922911
 H,0,-25.2105803438,-27.6613009304,-11.8676910401
 Recover connectivity data from disk.
 Stoichiometry    C31H32FeN4S(5)
 Framework group  C1[X(C31H32FeN4S)]
 Deg. of freedom   201
 Full point group                 C1      NOp   1
 Largest Abelian subgroup         C1      NOp   1
 Largest concise Abelian subgroup C1      NOp   1
                         Standard orientation:                         
 ---------------------------------------------------------------------
 Center     Atomic      Atomic             Coordinates (Angstroms)
 Number     Number       Type             X           Y           Z
 ---------------------------------------------------------------------
      1         26           0       -0.012170    0.068807   -0.111738
      2          7           0        0.296454    2.083791   -0.287621
      3          7           0        1.933267   -0.200788   -0.336642
      4          7           0       -0.395673   -1.850215   -0.453653
      5          7           0       -1.986553    0.473440   -0.346472
      6          6           0       -0.625158    3.086799   -0.317251
      7          6           0        0.008309    4.382471   -0.239430
      8          6           0        1.345458    4.147908   -0.162762
      9          6           0        1.506231    2.712467   -0.198209
     10          6           0        2.932468    0.721285   -0.243035
     11          6           0        4.224305    0.086015   -0.244127
     12          6           0        3.991123   -1.258388   -0.359617
     13          6           0        2.551042   -1.414201   -0.403325
     14          6           0        0.544733   -2.837151   -0.419384
     15          6           0       -0.071963   -4.128965   -0.272052
     16          6           0       -1.420581   -3.906761   -0.198660
     17          6           0       -1.595800   -2.475464   -0.328339
     18          6           0       -2.983619   -0.457855   -0.387733
     19          6           0       -4.282257    0.175159   -0.446322
     20          6           0       -4.053532    1.514850   -0.434678
     21          6           0       -2.619018    1.679398   -0.374089
     22          6           0       -1.993255    2.908756   -0.367480
     23          1           0       -2.614589    3.789914   -0.394617
     24          6           0        2.735687    2.086557   -0.150702
     25          1           0        3.609057    2.713966   -0.064781
     26          6           0        1.913490   -2.637188   -0.473500
     27          1           0        2.536113   -3.518739   -0.485291
     28          6           0       -2.815400   -1.828256   -0.355541
     29          1           0       -3.703285   -2.440359   -0.362532
     30          6           0        2.470137    5.119708   -0.067866
     31          1           0        3.057621    4.942580    0.833299
     32          1           0        2.096033    6.139915   -0.037762
     33          1           0        3.132125    5.022886   -0.928468
     34          6           0       -0.727718    5.677289   -0.252891
     35          1           0       -1.416675    5.737419    0.590257
     36          1           0       -1.306824    5.777580   -1.170805
     37          1           0       -0.037160    6.514472   -0.190931
     38          6           0        5.528475    0.802495   -0.220546
     39          1           0        5.800265    1.081974    0.798728
     40          1           0        5.479333    1.711417   -0.818075
     41          1           0        6.312036    0.163506   -0.622083
     42          6           0        4.940721   -2.347144   -0.439905
     43          1           0        4.648782   -3.176695   -1.072884
     44          6           0        6.106031   -2.397129    0.196212
     45          1           0        6.422898   -1.623155    0.873351
     46          1           0        6.773836   -3.234597    0.082267
     47          6           0        0.660439   -5.421129   -0.177501
     48          1           0        1.310492   -5.558068   -1.041831
     49          1           0       -0.037412   -6.253072   -0.129897
     50          1           0        1.281319   -5.443303    0.718502
     51          6           0       -2.460897   -4.897967   -0.008010
     52          1           0       -2.311479   -5.834172   -0.534797
     53          6           0       -3.525176   -4.757639    0.773054
     54          1           0       -4.258160   -5.540870    0.872910
     55          1           0       -3.688337   -3.871181    1.362232
     56          6           0       -5.573901   -0.563222   -0.510652
     57          1           0       -5.700918   -1.193052    0.370097
     58          1           0       -5.602891   -1.204723   -1.391179
     59          1           0       -6.411619    0.127722   -0.561704
     60          6           0       -5.026201    2.641900   -0.484111
     61          1           0       -6.046763    2.268782   -0.510555
     62          1           0       -4.860819    3.250852   -1.372973
     63          1           0       -4.917483    3.282946    0.391027
     64          6           0       -1.039999    1.308434    2.813565
     65          1           0       -0.874094    2.208648    2.231015
     66          1           0       -0.829313    1.470994    3.865918
     67          1           0       -2.062485    0.969631    2.682960
     68         16           0        0.034867   -0.035348    2.186294
     69          1           0        1.181415    0.611579    2.443120
 ---------------------------------------------------------------------
 Rotational constants (GHZ):           0.1148630           0.1083130           0.0604130
 Standard basis: def2TZVP (5D, 7F)
 There are  1546 symmetry adapted cartesian basis functions of A   symmetry.
 There are  1359 symmetry adapted basis functions of A   symmetry.
  1359 basis functions,  2212 primitive gaussians,  1546 cartesian basis functions
   146 alpha electrons      142 beta electrons
       nuclear repulsion energy      5045.6269720165 Hartrees.
 NAtoms=   69 NActive=   69 NUniq=   69 SFac= 1.00D+00 NAtFMM=   60 NAOKFM=T Big=T
 Integral buffers will be    131072 words long.
 Raffenetti 2 integral format.
 Two-electron integral symmetry is turned on.
 R6APFD:  NTU= -4 IXU= 1 FactS= 1.050
 Nuclear repulsion after empirical dispersion term =     5045.4948201671 Hartrees.
 One-electron integrals computed using PRISM.
   1 Symmetry operations used in ECPInt.
 ECPInt:  NShTT=  146611 NPrTT=  457451 LenC2=  116100 LenP2D=  241867.
 LDataN:  DoStor=T MaxTD1= 6 Len=  172
 Number of processors reduced to  26 by ecpmxn.
 NBasis=  1359 RedAO= T EigKep=  3.12D-06  NBF=  1359
 NBsUse=  1359 1.00D-06 EigRej= -1.00D+00 NBFU=  1359
 Initial guess from the checkpoint file:  "6oo9_II_Qn.chk"
 B after Tr=     0.000000   -0.000000    0.000000
         Rot=    1.000000    0.000000   -0.000000   -0.000000 Ang=   0.00 deg.
 Initial guess <Sx>= 0.0000 <Sy>= 0.0000 <Sz>= 2.0000 <S**2>= 6.0582 S= 2.0116
 Requested convergence on RMS density matrix=1.00D-08 within 999 cycles.
 Requested convergence on MAX density matrix=1.00D-06.
 Requested convergence on             energy=1.00D-06.
 No special actions if energy rises.
 Restarting incremental Fock formation.
 SCF Done:  E(UAPFD) =  -3080.77934309     A.U. after   33 cycles
            NFock= 33  Conv=0.24D-08     -V/T= 2.0028
 <Sx>= 0.0000 <Sy>= 0.0000 <Sz>= 2.0000 <S**2>= 6.0622 S= 2.0124
 <L.S>=  0.00000000000    
 Annihilation of the first spin contaminant:
 S**2 before annihilation     6.0622,   after     6.0003

 **********************************************************************

            Population analysis using the SCF Density.

 **********************************************************************

 Orbital symmetries:
 Alpha Orbitals:
       Occupied  (A) (A) (A) (A) (A) (A) (A) (A) (A) (A) (A) (A)
                 (A) (A) (A) (A) (A) (A) (A) (A) (A) (A) (A) (A)
                 (A) (A) (A) (A) (A) (A) (A) (A) (A) (A) (A) (A)
                 (A) (A) (A) (A) (A) (A) (A) (A) (A) (A) (A) (A)
                 (A) (A) (A) (A) (A) (A) (A) (A) (A) (A) (A) (A)
                 (A) (A) (A) (A) (A) (A) (A) (A) (A) (A) (A) (A)
                 (A) (A) (A) (A) (A) (A) (A) (A) (A) (A) (A) (A)
                 (A) (A) (A) (A) (A) (A) (A) (A) (A) (A) (A) (A)
                 (A) (A) (A) (A) (A) (A) (A) (A) (A) (A) (A) (A)
                 (A) (A) (A) (A) (A) (A) (A) (A) (A) (A) (A) (A)
                 (A) (A) (A) (A) (A) (A) (A) (A) (A) (A) (A) (A)
                 (A) (A) (A) (A) (A) (A) (A) (A) (A) (A) (A) (A)
                 (A) (A)
       Virtual   (A) (A) (A) (A) (A) (A) (A) (A) (A) (A) (A) (A)
                 (A) (A) (A) (A) (A) (A) (A) (A) (A) (A) (A) (A)
                 (A) (A) (A) (A) (A) (A) (A) (A) (A) (A) (A) (A)
                 (A) (A) (A) (A) (A) (A) (A) (A) (A) (A) (A) (A)
                 (A) (A) (A) (A) (A) (A) (A) (A) (A) (A) (A) (A)
                 (A) (A) (A) (A) (A) (A) (A) (A) (A) (A) (A) (A)
                 (A) (A) (A) (A) (A) (A) (A) (A) (A) (A) (A) (A)
                 (A) (A) (A) (A) (A) (A) (A) (A) (A) (A) (A) (A)
                 (A) (A) (A) (A) (A) (A) (A) (A) (A) (A) (A) (A)
                 (A) (A) (A) (A) (A) (A) (A) (A) (A) (A) (A) (A)
                 (A) (A) (A) (A) (A) (A) (A) (A) (A) (A) (A) (A)
                 (A) (A) (A) (A) (A) (A) (A) (A) (A) (A) (A) (A)
                 (A) (A) (A) (A) (A) (A) (A) (A) (A) (A) (A) (A)
                 (A) (A) (A) (A) (A) (A) (A) (A) (A) (A) (A) (A)
                 (A) (A) (A) (A) (A) (A) (A) (A) (A) (A) (A) (A)
                 (A) (A) (A) (A) (A) (A) (A) (A) (A) (A) (A) (A)
                 (A) (A) (A) (A) (A) (A) (A) (A) (A) (A) (A) (A)
                 (A) (A) (A) (A) (A) (A) (A) (A) (A) (A) (A) (A)
                 (A) (A) (A) (A) (A) (A) (A) (A) (A) (A) (A) (A)
                 (A) (A) (A) (A) (A) (A) (A) (A) (A) (A) (A) (A)
                 (A) (A) (A) (A) (A) (A) (A) (A) (A) (A) (A) (A)
                 (A) (A) (A) (A) (A) (A) (A) (A) (A) (A) (A) (A)
                 (A) (A) (A) (A) (A) (A) (A) (A) (A) (A) (A) (A)
                 (A) (A) (A) (A) (A) (A) (A) (A) (A) (A) (A) (A)
                 (A) (A) (A) (A) (A) (A) (A) (A) (A) (A) (A) (A)
                 (A) (A) (A) (A) (A) (A) (A) (A) (A) (A) (A) (A)
                 (A) (A) (A) (A) (A) (A) (A) (A) (A) (A) (A) (A)
                 (A) (A) (A) (A) (A) (A) (A) (A) (A) (A) (A) (A)
                 (A) (A) (A) (A) (A) (A) (A) (A) (A) (A) (A) (A)
                 (A) (A) (A) (A) (A) (A) (A) (A) (A) (A) (A) (A)
                 (A) (A) (A) (A) (A) (A) (A) (A) (A) (A) (A) (A)
                 (A) (A) (A) (A) (A) (A) (A) (A) (A) (A) (A) (A)
                 (A) (A) (A) (A) (A) (A) (A) (A) (A) (A) (A) (A)
                 (A) (A) (A) (A) (A) (A) (A) (A) (A) (A) (A) (A)
                 (A) (A) (A) (A) (A) (A) (A) (A) (A) (A) (A) (A)
                 (A) (A) (A) (A) (A) (A) (A) (A) (A) (A) (A) (A)
                 (A) (A) (A) (A) (A) (A) (A) (A) (A) (A) (A) (A)
                 (A) (A) (A) (A) (A) (A) (A) (A) (A) (A) (A) (A)
                 (A) (A) (A) (A) (A) (A) (A) (A) (A) (A) (A) (A)
                 (A) (A) (A) (A) (A) (A) (A) (A) (A) (A) (A) (A)
                 (A) (A) (A) (A) (A) (A) (A) (A) (A) (A) (A) (A)
                 (A) (A) (A) (A) (A) (A) (A) (A) (A) (A) (A) (A)
                 (A) (A) (A) (A) (A) (A) (A) (A) (A) (A) (A) (A)
                 (A) (A) (A) (A) (A) (A) (A) (A) (A) (A) (A) (A)
                 (A) (A) (A) (A) (A) (A) (A) (A) (A) (A) (A) (A)
                 (A) (A) (A) (A) (A) (A) (A) (A) (A) (A) (A) (A)
                 (A) (A) (A) (A) (A) (A) (A) (A) (A) (A) (A) (A)
                 (A) (A) (A) (A) (A) (A) (A) (A) (A) (A) (A) (A)
                 (A) (A) (A) (A) (A) (A) (A) (A) (A) (A) (A) (A)
                 (A) (A) (A) (A) (A) (A) (A) (A) (A) (A) (A) (A)
                 (A) (A) (A) (A) (A) (A) (A) (A) (A) (A) (A) (A)
                 (A) (A) (A) (A) (A) (A) (A) (A) (A) (A) (A) (A)
                 (A) (A) (A) (A) (A) (A) (A) (A) (A) (A) (A) (A)
                 (A) (A) (A) (A) (A) (A) (A) (A) (A) (A) (A) (A)
                 (A) (A) (A) (A) (A) (A) (A) (A) (A) (A) (A) (A)
                 (A) (A) (A) (A) (A) (A) (A) (A) (A) (A) (A) (A)
                 (A) (A) (A) (A) (A) (A) (A) (A) (A) (A) (A) (A)
                 (A) (A) (A) (A) (A) (A) (A) (A) (A) (A) (A) (A)
                 (A) (A) (A) (A) (A) (A) (A) (A) (A) (A) (A) (A)
                 (A) (A) (A) (A) (A) (A) (A) (A) (A) (A) (A) (A)
                 (A) (A) (A) (A) (A) (A) (A) (A) (A) (A) (A) (A)
                 (A) (A) (A) (A) (A) (A) (A) (A) (A) (A) (A) (A)
                 (A) (A) (A) (A) (A) (A) (A) (A) (A) (A) (A) (A)
                 (A) (A) (A) (A) (A) (A) (A) (A) (A) (A) (A) (A)
                 (A) (A) (A) (A) (A) (A) (A) (A) (A) (A) (A) (A)
                 (A) (A) (A) (A) (A) (A) (A) (A) (A) (A) (A) (A)
                 (A) (A) (A) (A) (A) (A) (A) (A) (A) (A) (A) (A)
                 (A) (A) (A) (A) (A) (A) (A) (A) (A) (A) (A) (A)
                 (A) (A) (A) (A) (A) (A) (A) (A) (A) (A) (A) (A)
                 (A) (A) (A) (A) (A) (A) (A) (A) (A) (A) (A) (A)
                 (A) (A) (A) (A) (A) (A) (A) (A) (A) (A) (A) (A)
                 (A) (A) (A) (A) (A) (A) (A) (A) (A) (A) (A) (A)
                 (A) (A) (A) (A) (A) (A) (A) (A) (A) (A) (A) (A)
                 (A) (A) (A) (A) (A) (A) (A) (A) (A) (A) (A) (A)
                 (A) (A) (A) (A) (A) (A) (A) (A) (A) (A) (A) (A)
                 (A) (A) (A) (A) (A) (A) (A) (A) (A) (A) (A) (A)
                 (A) (A) (A) (A) (A) (A) (A) (A) (A) (A) (A) (A)
                 (A) (A) (A) (A) (A) (A) (A) (A) (A) (A) (A) (A)
                 (A) (A) (A) (A) (A) (A) (A) (A) (A) (A) (A) (A)
                 (A) (A) (A) (A) (A) (A) (A) (A) (A) (A) (A) (A)
                 (A) (A) (A) (A) (A) (A) (A) (A) (A) (A) (A) (A)
                 (A) (A) (A) (A) (A) (A) (A) (A) (A) (A) (A) (A)
                 (A) (A) (A) (A) (A) (A) (A) (A) (A) (A) (A) (A)
                 (A) (A) (A) (A) (A) (A) (A) (A) (A) (A) (A) (A)
                 (A) (A) (A) (A) (A) (A) (A) (A) (A) (A) (A) (A)
                 (A) (A) (A) (A) (A) (A) (A) (A) (A) (A) (A) (A)
                 (A) (A) (A) (A) (A) (A) (A) (A) (A) (A) (A) (A)
                 (A) (A) (A) (A) (A) (A) (A) (A) (A) (A) (A) (A)
                 (A) (A) (A) (A) (A) (A) (A) (A) (A) (A) (A) (A)
                 (A) (A) (A) (A) (A) (A) (A) (A) (A) (A) (A) (A)
                 (A) (A) (A) (A) (A) (A) (A) (A) (A) (A) (A) (A)
                 (A) (A) (A) (A) (A) (A) (A) (A) (A) (A) (A) (A)
                 (A) (A) (A) (A) (A) (A) (A) (A) (A) (A) (A) (A)
                 (A) (A) (A) (A) (A) (A) (A) (A) (A) (A) (A) (A)
                 (A) (A) (A) (A) (A) (A) (A) (A) (A) (A) (A) (A)
                 (A) (A) (A) (A) (A) (A) (A) (A) (A) (A) (A) (A)
                 (A) (A) (A) (A) (A) (A) (A) (A) (A) (A) (A) (A)
                 (A) (A) (A) (A) (A) (A) (A) (A) (A) (A) (A) (A)
                 (A) (A) (A) (A) (A) (A) (A) (A) (A) (A) (A) (A)
                 (A) (A) (A) (A) (A) (A) (A) (A) (A) (A) (A) (A)
                 (A) (A) (A) (A) (A) (A) (A) (A) (A) (A) (A) (A)
                 (A)
 Beta  Orbitals:
       Occupied  (A) (A) (A) (A) (A) (A) (A) (A) (A) (A) (A) (A)
                 (A) (A) (A) (A) (A) (A) (A) (A) (A) (A) (A) (A)
                 (A) (A) (A) (A) (A) (A) (A) (A) (A) (A) (A) (A)
                 (A) (A) (A) (A) (A) (A) (A) (A) (A) (A) (A) (A)
                 (A) (A) (A) (A) (A) (A) (A) (A) (A) (A) (A) (A)
                 (A) (A) (A) (A) (A) (A) (A) (A) (A) (A) (A) (A)
                 (A) (A) (A) (A) (A) (A) (A) (A) (A) (A) (A) (A)
                 (A) (A) (A) (A) (A) (A) (A) (A) (A) (A) (A) (A)
                 (A) (A) (A) (A) (A) (A) (A) (A) (A) (A) (A) (A)
                 (A) (A) (A) (A) (A) (A) (A) (A) (A) (A) (A) (A)
                 (A) (A) (A) (A) (A) (A) (A) (A) (A) (A) (A) (A)
                 (A) (A) (A) (A) (A) (A) (A) (A) (A) (A)
       Virtual   (A) (A) (A) (A) (A) (A) (A) (A) (A) (A) (A) (A)
                 (A) (A) (A) (A) (A) (A) (A) (A) (A) (A) (A) (A)
                 (A) (A) (A) (A) (A) (A) (A) (A) (A) (A) (A) (A)
                 (A) (A) (A) (A) (A) (A) (A) (A) (A) (A) (A) (A)
                 (A) (A) (A) (A) (A) (A) (A) (A) (A) (A) (A) (A)
                 (A) (A) (A) (A) (A) (A) (A) (A) (A) (A) (A) (A)
                 (A) (A) (A) (A) (A) (A) (A) (A) (A) (A) (A) (A)
                 (A) (A) (A) (A) (A) (A) (A) (A) (A) (A) (A) (A)
                 (A) (A) (A) (A) (A) (A) (A) (A) (A) (A) (A) (A)
                 (A) (A) (A) (A) (A) (A) (A) (A) (A) (A) (A) (A)
                 (A) (A) (A) (A) (A) (A) (A) (A) (A) (A) (A) (A)
                 (A) (A) (A) (A) (A) (A) (A) (A) (A) (A) (A) (A)
                 (A) (A) (A) (A) (A) (A) (A) (A) (A) (A) (A) (A)
                 (A) (A) (A) (A) (A) (A) (A) (A) (A) (A) (A) (A)
                 (A) (A) (A) (A) (A) (A) (A) (A) (A) (A) (A) (A)
                 (A) (A) (A) (A) (A) (A) (A) (A) (A) (A) (A) (A)
                 (A) (A) (A) (A) (A) (A) (A) (A) (A) (A) (A) (A)
                 (A) (A) (A) (A) (A) (A) (A) (A) (A) (A) (A) (A)
                 (A) (A) (A) (A) (A) (A) (A) (A) (A) (A) (A) (A)
                 (A) (A) (A) (A) (A) (A) (A) (A) (A) (A) (A) (A)
                 (A) (A) (A) (A) (A) (A) (A) (A) (A) (A) (A) (A)
                 (A) (A) (A) (A) (A) (A) (A) (A) (A) (A) (A) (A)
                 (A) (A) (A) (A) (A) (A) (A) (A) (A) (A) (A) (A)
                 (A) (A) (A) (A) (A) (A) (A) (A) (A) (A) (A) (A)
                 (A) (A) (A) (A) (A) (A) (A) (A) (A) (A) (A) (A)
                 (A) (A) (A) (A) (A) (A) (A) (A) (A) (A) (A) (A)
                 (A) (A) (A) (A) (A) (A) (A) (A) (A) (A) (A) (A)
                 (A) (A) (A) (A) (A) (A) (A) (A) (A) (A) (A) (A)
                 (A) (A) (A) (A) (A) (A) (A) (A) (A) (A) (A) (A)
                 (A) (A) (A) (A) (A) (A) (A) (A) (A) (A) (A) (A)
                 (A) (A) (A) (A) (A) (A) (A) (A) (A) (A) (A) (A)
                 (A) (A) (A) (A) (A) (A) (A) (A) (A) (A) (A) (A)
                 (A) (A) (A) (A) (A) (A) (A) (A) (A) (A) (A) (A)
                 (A) (A) (A) (A) (A) (A) (A) (A) (A) (A) (A) (A)
                 (A) (A) (A) (A) (A) (A) (A) (A) (A) (A) (A) (A)
                 (A) (A) (A) (A) (A) (A) (A) (A) (A) (A) (A) (A)
                 (A) (A) (A) (A) (A) (A) (A) (A) (A) (A) (A) (A)
                 (A) (A) (A) (A) (A) (A) (A) (A) (A) (A) (A) (A)
                 (A) (A) (A) (A) (A) (A) (A) (A) (A) (A) (A) (A)
                 (A) (A) (A) (A) (A) (A) (A) (A) (A) (A) (A) (A)
                 (A) (A) (A) (A) (A) (A) (A) (A) (A) (A) (A) (A)
                 (A) (A) (A) (A) (A) (A) (A) (A) (A) (A) (A) (A)
                 (A) (A) (A) (A) (A) (A) (A) (A) (A) (A) (A) (A)
                 (A) (A) (A) (A) (A) (A) (A) (A) (A) (A) (A) (A)
                 (A) (A) (A) (A) (A) (A) (A) (A) (A) (A) (A) (A)
                 (A) (A) (A) (A) (A) (A) (A) (A) (A) (A) (A) (A)
                 (A) (A) (A) (A) (A) (A) (A) (A) (A) (A) (A) (A)
                 (A) (A) (A) (A) (A) (A) (A) (A) (A) (A) (A) (A)
                 (A) (A) (A) (A) (A) (A) (A) (A) (A) (A) (A) (A)
                 (A) (A) (A) (A) (A) (A) (A) (A) (A) (A) (A) (A)
                 (A) (A) (A) (A) (A) (A) (A) (A) (A) (A) (A) (A)
                 (A) (A) (A) (A) (A) (A) (A) (A) (A) (A) (A) (A)
                 (A) (A) (A) (A) (A) (A) (A) (A) (A) (A) (A) (A)
                 (A) (A) (A) (A) (A) (A) (A) (A) (A) (A) (A) (A)
                 (A) (A) (A) (A) (A) (A) (A) (A) (A) (A) (A) (A)
                 (A) (A) (A) (A) (A) (A) (A) (A) (A) (A) (A) (A)
                 (A) (A) (A) (A) (A) (A) (A) (A) (A) (A) (A) (A)
                 (A) (A) (A) (A) (A) (A) (A) (A) (A) (A) (A) (A)
                 (A) (A) (A) (A) (A) (A) (A) (A) (A) (A) (A) (A)
                 (A) (A) (A) (A) (A) (A) (A) (A) (A) (A) (A) (A)
                 (A) (A) (A) (A) (A) (A) (A) (A) (A) (A) (A) (A)
                 (A) (A) (A) (A) (A) (A) (A) (A) (A) (A) (A) (A)
                 (A) (A) (A) (A) (A) (A) (A) (A) (A) (A) (A) (A)
                 (A) (A) (A) (A) (A) (A) (A) (A) (A) (A) (A) (A)
                 (A) (A) (A) (A) (A) (A) (A) (A) (A) (A) (A) (A)
                 (A) (A) (A) (A) (A) (A) (A) (A) (A) (A) (A) (A)
                 (A) (A) (A) (A) (A) (A) (A) (A) (A) (A) (A) (A)
                 (A) (A) (A) (A) (A) (A) (A) (A) (A) (A) (A) (A)
                 (A) (A) (A) (A) (A) (A) (A) (A) (A) (A) (A) (A)
                 (A) (A) (A) (A) (A) (A) (A) (A) (A) (A) (A) (A)
                 (A) (A) (A) (A) (A) (A) (A) (A) (A) (A) (A) (A)
                 (A) (A) (A) (A) (A) (A) (A) (A) (A) (A) (A) (A)
                 (A) (A) (A) (A) (A) (A) (A) (A) (A) (A) (A) (A)
                 (A) (A) (A) (A) (A) (A) (A) (A) (A) (A) (A) (A)
                 (A) (A) (A) (A) (A) (A) (A) (A) (A) (A) (A) (A)
                 (A) (A) (A) (A) (A) (A) (A) (A) (A) (A) (A) (A)
                 (A) (A) (A) (A) (A) (A) (A) (A) (A) (A) (A) (A)
                 (A) (A) (A) (A) (A) (A) (A) (A) (A) (A) (A) (A)
                 (A) (A) (A) (A) (A) (A) (A) (A) (A) (A) (A) (A)
                 (A) (A) (A) (A) (A) (A) (A) (A) (A) (A) (A) (A)
                 (A) (A) (A) (A) (A) (A) (A) (A) (A) (A) (A) (A)
                 (A) (A) (A) (A) (A) (A) (A) (A) (A) (A) (A) (A)
                 (A) (A) (A) (A) (A) (A) (A) (A) (A) (A) (A) (A)
                 (A) (A) (A) (A) (A) (A) (A) (A) (A) (A) (A) (A)
                 (A) (A) (A) (A) (A) (A) (A) (A) (A) (A) (A) (A)
                 (A) (A) (A) (A) (A) (A) (A) (A) (A) (A) (A) (A)
                 (A) (A) (A) (A) (A) (A) (A) (A) (A) (A) (A) (A)
                 (A) (A) (A) (A) (A) (A) (A) (A) (A) (A) (A) (A)
                 (A) (A) (A) (A) (A) (A) (A) (A) (A) (A) (A) (A)
                 (A) (A) (A) (A) (A) (A) (A) (A) (A) (A) (A) (A)
                 (A) (A) (A) (A) (A) (A) (A) (A) (A) (A) (A) (A)
                 (A) (A) (A) (A) (A) (A) (A) (A) (A) (A) (A) (A)
                 (A) (A) (A) (A) (A) (A) (A) (A) (A) (A) (A) (A)
                 (A) (A) (A) (A) (A) (A) (A) (A) (A) (A) (A) (A)
                 (A) (A) (A) (A) (A) (A) (A) (A) (A) (A) (A) (A)
                 (A) (A) (A) (A) (A) (A) (A) (A) (A) (A) (A) (A)
                 (A) (A) (A) (A) (A) (A) (A) (A) (A) (A) (A) (A)
                 (A) (A) (A) (A) (A) (A) (A) (A) (A) (A) (A) (A)
                 (A) (A) (A) (A) (A) (A) (A) (A) (A) (A) (A) (A)
                 (A) (A) (A) (A) (A) (A) (A) (A) (A) (A) (A) (A)
                 (A) (A) (A) (A) (A) (A) (A) (A) (A) (A) (A) (A)
                 (A) (A) (A) (A) (A)
 The electronic state is 5-A.
 Alpha  occ. eigenvalues -- -256.20769 -88.96326 -30.09794 -25.94483 -25.92434
 Alpha  occ. eigenvalues --  -25.92020 -14.33973 -14.33838 -14.33656 -14.33609
 Alpha  occ. eigenvalues --  -10.22557 -10.22229 -10.22062 -10.21971 -10.21946
 Alpha  occ. eigenvalues --  -10.21928 -10.21905 -10.21741 -10.21626 -10.20369
 Alpha  occ. eigenvalues --  -10.20148 -10.19918 -10.19817 -10.19708 -10.19633
 Alpha  occ. eigenvalues --  -10.19614 -10.19426 -10.19421 -10.19352 -10.19344
 Alpha  occ. eigenvalues --  -10.19331 -10.19317 -10.19258 -10.19205 -10.19203
 Alpha  occ. eigenvalues --  -10.19104 -10.19072 -10.18992 -10.18977 -10.18933
 Alpha  occ. eigenvalues --  -10.18766  -7.99246  -5.93800  -5.93527  -5.93048
 Alpha  occ. eigenvalues --   -3.55143  -2.35105  -2.30592  -2.30010  -0.98008
 Alpha  occ. eigenvalues --   -0.97083  -0.96904  -0.95953  -0.83250  -0.82747
 Alpha  occ. eigenvalues --   -0.82415  -0.81718  -0.81268  -0.80910  -0.80586
 Alpha  occ. eigenvalues --   -0.80469  -0.77692  -0.76626  -0.75043  -0.74904
 Alpha  occ. eigenvalues --   -0.73886  -0.71757  -0.70828  -0.69167  -0.68739
 Alpha  occ. eigenvalues --   -0.68686  -0.67129  -0.65155  -0.64910  -0.61824
 Alpha  occ. eigenvalues --   -0.60823  -0.58564  -0.57593  -0.55460  -0.55071
 Alpha  occ. eigenvalues --   -0.54217  -0.53173  -0.51954  -0.51711  -0.51386
 Alpha  occ. eigenvalues --   -0.49802  -0.48707  -0.48535  -0.47296  -0.46959
 Alpha  occ. eigenvalues --   -0.46221  -0.45791  -0.45511  -0.44758  -0.44564
 Alpha  occ. eigenvalues --   -0.44459  -0.44306  -0.44027  -0.43696  -0.43501
 Alpha  occ. eigenvalues --   -0.42886  -0.42302  -0.42206  -0.41937  -0.41892
 Alpha  occ. eigenvalues --   -0.41693  -0.41038  -0.40875  -0.40733  -0.40328
 Alpha  occ. eigenvalues --   -0.40229  -0.39850  -0.39758  -0.39591  -0.39296
 Alpha  occ. eigenvalues --   -0.39026  -0.38645  -0.38413  -0.38223  -0.37689
 Alpha  occ. eigenvalues --   -0.37326  -0.37239  -0.36633  -0.35662  -0.35315
 Alpha  occ. eigenvalues --   -0.35008  -0.34744  -0.34291  -0.33038  -0.32716
 Alpha  occ. eigenvalues --   -0.32435  -0.31952  -0.30943  -0.30242  -0.29478
 Alpha  occ. eigenvalues --   -0.28900  -0.27386  -0.27209  -0.25822  -0.23447
 Alpha  occ. eigenvalues --   -0.23086  -0.22464  -0.22127  -0.18798  -0.18681
 Alpha  occ. eigenvalues --   -0.17803
 Alpha virt. eigenvalues --   -0.07670  -0.07570  -0.02619  -0.00212   0.00529
 Alpha virt. eigenvalues --    0.01251   0.03269   0.03799   0.04564   0.04841
 Alpha virt. eigenvalues --    0.05298   0.05780   0.06565   0.06729   0.07020
 Alpha virt. eigenvalues --    0.07390   0.07824   0.08213   0.08338   0.08788
 Alpha virt. eigenvalues --    0.09082   0.09773   0.09861   0.10220   0.10529
 Alpha virt. eigenvalues --    0.11052   0.11120   0.11429   0.11676   0.12158
 Alpha virt. eigenvalues --    0.12275   0.12546   0.12789   0.12979   0.13208
 Alpha virt. eigenvalues --    0.13398   0.13836   0.13923   0.14215   0.14436
 Alpha virt. eigenvalues --    0.14691   0.14748   0.14984   0.15378   0.15482
 Alpha virt. eigenvalues --    0.15599   0.15957   0.16414   0.16621   0.16765
 Alpha virt. eigenvalues --    0.17070   0.17237   0.17385   0.17688   0.17764
 Alpha virt. eigenvalues --    0.18376   0.18744   0.19066   0.19246   0.19313
 Alpha virt. eigenvalues --    0.19833   0.20152   0.20295   0.20413   0.20962
 Alpha virt. eigenvalues --    0.21257   0.21495   0.21640   0.21875   0.22402
 Alpha virt. eigenvalues --    0.22507   0.22849   0.23155   0.23386   0.24095
 Alpha virt. eigenvalues --    0.24341   0.24888   0.25111   0.25221   0.25456
 Alpha virt. eigenvalues --    0.25556   0.25944   0.26585   0.26735   0.26957
 Alpha virt. eigenvalues --    0.27227   0.27629   0.28173   0.28291   0.28468
 Alpha virt. eigenvalues --    0.28587   0.28848   0.29123   0.29348   0.29853
 Alpha virt. eigenvalues --    0.30041   0.30382   0.30579   0.31105   0.31475
 Alpha virt. eigenvalues --    0.31527   0.31870   0.32244   0.32650   0.32896
 Alpha virt. eigenvalues --    0.33134   0.33508   0.33594   0.34075   0.34177
 Alpha virt. eigenvalues --    0.34399   0.35051   0.35664   0.35767   0.36161
 Alpha virt. eigenvalues --    0.36391   0.36579   0.36873   0.37068   0.37273
 Alpha virt. eigenvalues --    0.37723   0.38473   0.38704   0.38891   0.38930
 Alpha virt. eigenvalues --    0.39251   0.39571   0.39864   0.39929   0.40160
 Alpha virt. eigenvalues --    0.40378   0.40774   0.40886   0.41187   0.41474
 Alpha virt. eigenvalues --    0.41727   0.41916   0.42153   0.42185   0.42578
 Alpha virt. eigenvalues --    0.42753   0.43062   0.43559   0.43600   0.43984
 Alpha virt. eigenvalues --    0.44248   0.44378   0.44575   0.44762   0.45039
 Alpha virt. eigenvalues --    0.45373   0.45832   0.45902   0.46064   0.46329
 Alpha virt. eigenvalues --    0.46539   0.46948   0.47042   0.47254   0.47421
 Alpha virt. eigenvalues --    0.47851   0.47946   0.48125   0.48394   0.48698
 Alpha virt. eigenvalues --    0.48837   0.49093   0.49603   0.49791   0.50005
 Alpha virt. eigenvalues --    0.50050   0.50422   0.50773   0.50833   0.51036
 Alpha virt. eigenvalues --    0.51418   0.51754   0.51908   0.52106   0.52218
 Alpha virt. eigenvalues --    0.52436   0.52762   0.52820   0.52905   0.53424
 Alpha virt. eigenvalues --    0.53682   0.54156   0.54433   0.54779   0.55175
 Alpha virt. eigenvalues --    0.55590   0.55768   0.56088   0.56224   0.56393
 Alpha virt. eigenvalues --    0.57068   0.57883   0.58051   0.58132   0.58388
 Alpha virt. eigenvalues --    0.58999   0.59188   0.59621   0.60234   0.60912
 Alpha virt. eigenvalues --    0.61063   0.61341   0.61633   0.62070   0.62322
 Alpha virt. eigenvalues --    0.62595   0.62901   0.63004   0.63102   0.63662
 Alpha virt. eigenvalues --    0.63982   0.64170   0.64443   0.64899   0.65278
 Alpha virt. eigenvalues --    0.65399   0.65919   0.66518   0.66699   0.66967
 Alpha virt. eigenvalues --    0.67060   0.67401   0.67726   0.68380   0.68526
 Alpha virt. eigenvalues --    0.69044   0.69335   0.69593   0.70165   0.70235
 Alpha virt. eigenvalues --    0.70629   0.70748   0.71265   0.71494   0.71704
 Alpha virt. eigenvalues --    0.72222   0.72603   0.72925   0.73224   0.73531
 Alpha virt. eigenvalues --    0.73667   0.73973   0.74123   0.74351   0.74626
 Alpha virt. eigenvalues --    0.75470   0.75838   0.76297   0.76417   0.76898
 Alpha virt. eigenvalues --    0.77312   0.77599   0.78046   0.78647   0.78909
 Alpha virt. eigenvalues --    0.79066   0.79694   0.80223   0.80595   0.81049
 Alpha virt. eigenvalues --    0.81264   0.81968   0.82168   0.82423   0.82613
 Alpha virt. eigenvalues --    0.83587   0.83854   0.84354   0.84758   0.84835
 Alpha virt. eigenvalues --    0.85089   0.85727   0.85936   0.86853   0.87081
 Alpha virt. eigenvalues --    0.87413   0.87761   0.88709   0.89027   0.89392
 Alpha virt. eigenvalues --    0.89867   0.90261   0.90365   0.91041   0.91549
 Alpha virt. eigenvalues --    0.91885   0.92419   0.92550   0.93329   0.93762
 Alpha virt. eigenvalues --    0.94118   0.94531   0.94826   0.95020   0.95141
 Alpha virt. eigenvalues --    0.95780   0.96074   0.96396   0.96689   0.97328
 Alpha virt. eigenvalues --    0.97592   0.98544   0.98630   0.98867   0.99134
 Alpha virt. eigenvalues --    0.99511   1.00096   1.00934   1.01063   1.01497
 Alpha virt. eigenvalues --    1.01624   1.01747   1.02068   1.02258   1.02850
 Alpha virt. eigenvalues --    1.03394   1.03518   1.03614   1.03985   1.04526
 Alpha virt. eigenvalues --    1.05085   1.05409   1.05677   1.05970   1.06602
 Alpha virt. eigenvalues --    1.06902   1.07586   1.08035   1.08133   1.08737
 Alpha virt. eigenvalues --    1.09239   1.09289   1.09896   1.10433   1.10474
 Alpha virt. eigenvalues --    1.11506   1.11690   1.12600   1.12780   1.13107
 Alpha virt. eigenvalues --    1.14144   1.15130   1.15831   1.16481   1.16918
 Alpha virt. eigenvalues --    1.17198   1.17647   1.18132   1.18445   1.18598
 Alpha virt. eigenvalues --    1.19230   1.19501   1.20361   1.20659   1.20929
 Alpha virt. eigenvalues --    1.21180   1.21938   1.22446   1.22637   1.23005
 Alpha virt. eigenvalues --    1.23821   1.24422   1.24913   1.24953   1.25553
 Alpha virt. eigenvalues --    1.25996   1.26645   1.27119   1.27401   1.27576
 Alpha virt. eigenvalues --    1.27756   1.28298   1.28551   1.29187   1.29704
 Alpha virt. eigenvalues --    1.30080   1.30165   1.30952   1.31382   1.31679
 Alpha virt. eigenvalues --    1.32386   1.33351   1.33458   1.34944   1.35706
 Alpha virt. eigenvalues --    1.36107   1.36591   1.37294   1.37825   1.38908
 Alpha virt. eigenvalues --    1.39601   1.40438   1.40583   1.41128   1.41402
 Alpha virt. eigenvalues --    1.42400   1.42564   1.43439   1.44134   1.44439
 Alpha virt. eigenvalues --    1.45000   1.45597   1.46471   1.46992   1.47321
 Alpha virt. eigenvalues --    1.47578   1.48103   1.48275   1.48642   1.48796
 Alpha virt. eigenvalues --    1.48960   1.49288   1.49613   1.50255   1.50734
 Alpha virt. eigenvalues --    1.50938   1.51103   1.51600   1.51882   1.52401
 Alpha virt. eigenvalues --    1.52839   1.52886   1.53265   1.53555   1.53750
 Alpha virt. eigenvalues --    1.54100   1.54215   1.54286   1.54724   1.54940
 Alpha virt. eigenvalues --    1.55077   1.55317   1.55626   1.55772   1.56241
 Alpha virt. eigenvalues --    1.56433   1.56895   1.57260   1.57567   1.57926
 Alpha virt. eigenvalues --    1.58160   1.58776   1.59045   1.59298   1.59734
 Alpha virt. eigenvalues --    1.59932   1.60291   1.60708   1.60814   1.61186
 Alpha virt. eigenvalues --    1.61551   1.62172   1.62713   1.63003   1.63126
 Alpha virt. eigenvalues --    1.63477   1.63715   1.64036   1.64303   1.64660
 Alpha virt. eigenvalues --    1.64749   1.65043   1.65576   1.66031   1.66525
 Alpha virt. eigenvalues --    1.66624   1.66927   1.67458   1.67633   1.68590
 Alpha virt. eigenvalues --    1.69397   1.69721   1.69904   1.70279   1.70441
 Alpha virt. eigenvalues --    1.70513   1.71004   1.71218   1.71874   1.72108
 Alpha virt. eigenvalues --    1.72494   1.72625   1.73245   1.73430   1.74145
 Alpha virt. eigenvalues --    1.74237   1.74763   1.74919   1.76220   1.76827
 Alpha virt. eigenvalues --    1.77355   1.77969   1.78487   1.78930   1.79245
 Alpha virt. eigenvalues --    1.80015   1.80808   1.81420   1.82155   1.82354
 Alpha virt. eigenvalues --    1.83041   1.83225   1.83430   1.83713   1.84333
 Alpha virt. eigenvalues --    1.85103   1.85592   1.85879   1.86366   1.86958
 Alpha virt. eigenvalues --    1.87309   1.87741   1.88160   1.88556   1.88979
 Alpha virt. eigenvalues --    1.90071   1.90696   1.90812   1.90913   1.91589
 Alpha virt. eigenvalues --    1.93142   1.93935   1.94073   1.94486   1.95537
 Alpha virt. eigenvalues --    1.95752   1.96154   1.96629   1.97311   1.97585
 Alpha virt. eigenvalues --    1.98051   1.98266   1.98980   1.99417   1.99803
 Alpha virt. eigenvalues --    1.99865   2.00432   2.00840   2.01606   2.02150
 Alpha virt. eigenvalues --    2.02508   2.03389   2.03835   2.04923   2.05393
 Alpha virt. eigenvalues --    2.05584   2.06141   2.06323   2.07263   2.07578
 Alpha virt. eigenvalues --    2.08031   2.08449   2.09209   2.09330   2.09792
 Alpha virt. eigenvalues --    2.10039   2.11047   2.11497   2.11807   2.12525
 Alpha virt. eigenvalues --    2.12805   2.13279   2.14035   2.14702   2.15161
 Alpha virt. eigenvalues --    2.15728   2.15871   2.16206   2.17028   2.17749
 Alpha virt. eigenvalues --    2.18318   2.18608   2.18967   2.19660   2.20545
 Alpha virt. eigenvalues --    2.20837   2.21446   2.21677   2.22888   2.23412
 Alpha virt. eigenvalues --    2.24006   2.24148   2.25073   2.25601   2.25851
 Alpha virt. eigenvalues --    2.26511   2.26556   2.27440   2.27971   2.28201
 Alpha virt. eigenvalues --    2.28970   2.29220   2.29309   2.29916   2.30198
 Alpha virt. eigenvalues --    2.30688   2.31276   2.31515   2.32166   2.32600
 Alpha virt. eigenvalues --    2.33506   2.33905   2.34316   2.34828   2.35172
 Alpha virt. eigenvalues --    2.35467   2.35875   2.36481   2.36800   2.37008
 Alpha virt. eigenvalues --    2.37719   2.38001   2.38195   2.38916   2.39040
 Alpha virt. eigenvalues --    2.39589   2.40053   2.40642   2.40806   2.41333
 Alpha virt. eigenvalues --    2.41592   2.42978   2.43429   2.43555   2.44194
 Alpha virt. eigenvalues --    2.44760   2.45115   2.45294   2.45835   2.46235
 Alpha virt. eigenvalues --    2.46980   2.47163   2.47629   2.48362   2.48943
 Alpha virt. eigenvalues --    2.49489   2.49887   2.50544   2.51360   2.52054
 Alpha virt. eigenvalues --    2.52342   2.52479   2.52838   2.53272   2.54460
 Alpha virt. eigenvalues --    2.54938   2.55181   2.55512   2.55769   2.56122
 Alpha virt. eigenvalues --    2.56311   2.56689   2.57045   2.57200   2.57866
 Alpha virt. eigenvalues --    2.58197   2.58588   2.59125   2.59331   2.59865
 Alpha virt. eigenvalues --    2.60075   2.60473   2.60785   2.60934   2.61699
 Alpha virt. eigenvalues --    2.62117   2.62501   2.62961   2.63434   2.63840
 Alpha virt. eigenvalues --    2.64633   2.64960   2.65687   2.66665   2.67005
 Alpha virt. eigenvalues --    2.67350   2.67512   2.68083   2.68324   2.68767
 Alpha virt. eigenvalues --    2.68927   2.69300   2.70064   2.70607   2.71040
 Alpha virt. eigenvalues --    2.71312   2.71841   2.72671   2.73299   2.74156
 Alpha virt. eigenvalues --    2.74521   2.74885   2.75095   2.76174   2.76425
 Alpha virt. eigenvalues --    2.77013   2.77432   2.77839   2.78152   2.78906
 Alpha virt. eigenvalues --    2.79338   2.79417   2.80216   2.80523   2.80800
 Alpha virt. eigenvalues --    2.81897   2.82076   2.82809   2.83124   2.83615
 Alpha virt. eigenvalues --    2.83984   2.84087   2.84360   2.85090   2.85316
 Alpha virt. eigenvalues --    2.85673   2.85954   2.86503   2.86824   2.87689
 Alpha virt. eigenvalues --    2.88264   2.88331   2.88438   2.89470   2.89874
 Alpha virt. eigenvalues --    2.90164   2.91038   2.91564   2.91774   2.92020
 Alpha virt. eigenvalues --    2.92251   2.93027   2.94033   2.94361   2.94508
 Alpha virt. eigenvalues --    2.94659   2.95509   2.95826   2.96153   2.96892
 Alpha virt. eigenvalues --    2.97361   2.97929   2.98181   2.98244   2.99020
 Alpha virt. eigenvalues --    2.99923   3.00437   3.00739   3.01217   3.01532
 Alpha virt. eigenvalues --    3.02332   3.02632   3.03247   3.03688   3.04122
 Alpha virt. eigenvalues --    3.04217   3.04807   3.05264   3.05779   3.06065
 Alpha virt. eigenvalues --    3.06693   3.07020   3.07110   3.07620   3.07958
 Alpha virt. eigenvalues --    3.08158   3.08453   3.09098   3.09677   3.10118
 Alpha virt. eigenvalues --    3.10162   3.10707   3.11518   3.11537   3.11906
 Alpha virt. eigenvalues --    3.12387   3.12709   3.13056   3.13304   3.13569
 Alpha virt. eigenvalues --    3.13853   3.14208   3.14514   3.15273   3.15658
 Alpha virt. eigenvalues --    3.15847   3.15955   3.16417   3.17012   3.17420
 Alpha virt. eigenvalues --    3.17804   3.18268   3.18834   3.18885   3.19487
 Alpha virt. eigenvalues --    3.19602   3.19770   3.20031   3.20400   3.20768
 Alpha virt. eigenvalues --    3.21246   3.21529   3.21826   3.22209   3.22691
 Alpha virt. eigenvalues --    3.23071   3.23540   3.23985   3.24393   3.24475
 Alpha virt. eigenvalues --    3.24939   3.25024   3.25243   3.25359   3.25967
 Alpha virt. eigenvalues --    3.26119   3.26504   3.26970   3.27617   3.27863
 Alpha virt. eigenvalues --    3.28233   3.28711   3.28926   3.29456   3.29617
 Alpha virt. eigenvalues --    3.29862   3.29962   3.30161   3.30461   3.30871
 Alpha virt. eigenvalues --    3.30915   3.31098   3.31702   3.31954   3.32596
 Alpha virt. eigenvalues --    3.32693   3.32899   3.33172   3.33763   3.34050
 Alpha virt. eigenvalues --    3.34316   3.34614   3.34855   3.35112   3.35212
 Alpha virt. eigenvalues --    3.35677   3.36132   3.36430   3.36534   3.36903
 Alpha virt. eigenvalues --    3.37017   3.37505   3.37834   3.38012   3.38084
 Alpha virt. eigenvalues --    3.38306   3.38804   3.39079   3.39939   3.40098
 Alpha virt. eigenvalues --    3.40438   3.40909   3.41219   3.42032   3.42387
 Alpha virt. eigenvalues --    3.42884   3.43324   3.43712   3.44058   3.44332
 Alpha virt. eigenvalues --    3.44645   3.45422   3.45700   3.46034   3.46124
 Alpha virt. eigenvalues --    3.46488   3.47520   3.48093   3.48498   3.49152
 Alpha virt. eigenvalues --    3.49827   3.50065   3.50347   3.51083   3.51795
 Alpha virt. eigenvalues --    3.51905   3.53307   3.53676   3.54330   3.55121
 Alpha virt. eigenvalues --    3.55412   3.55669   3.56601   3.56901   3.57485
 Alpha virt. eigenvalues --    3.57600   3.58052   3.58986   3.59140   3.60408
 Alpha virt. eigenvalues --    3.60653   3.60727   3.61399   3.61775   3.62437
 Alpha virt. eigenvalues --    3.63271   3.63661   3.63978   3.64386   3.64745
 Alpha virt. eigenvalues --    3.66067   3.66654   3.66720   3.67467   3.67775
 Alpha virt. eigenvalues --    3.68209   3.68632   3.68864   3.69697   3.69804
 Alpha virt. eigenvalues --    3.70055   3.71335   3.71469   3.71666   3.72090
 Alpha virt. eigenvalues --    3.72676   3.73367   3.73507   3.73921   3.74085
 Alpha virt. eigenvalues --    3.74311   3.74978   3.75623   3.75940   3.76226
 Alpha virt. eigenvalues --    3.77381   3.77789   3.78631   3.79236   3.79685
 Alpha virt. eigenvalues --    3.80492   3.81085   3.81685   3.81866   3.83361
 Alpha virt. eigenvalues --    3.83559   3.84192   3.84877   3.85824   3.86208
 Alpha virt. eigenvalues --    3.86999   3.87258   3.88198   3.88321   3.88888
 Alpha virt. eigenvalues --    3.90313   3.90974   3.91287   3.91965   3.92366
 Alpha virt. eigenvalues --    3.93001   3.93705   3.95417   3.96317   3.96593
 Alpha virt. eigenvalues --    3.97808   3.97892   3.99171   3.99375   3.99394
 Alpha virt. eigenvalues --    3.99838   4.00803   4.00981   4.01954   4.02588
 Alpha virt. eigenvalues --    4.03363   4.03797   4.04440   4.04899   4.05489
 Alpha virt. eigenvalues --    4.06434   4.07743   4.08201   4.08651   4.09484
 Alpha virt. eigenvalues --    4.09774   4.10188   4.11653   4.12281   4.13282
 Alpha virt. eigenvalues --    4.13369   4.13931   4.15048   4.15412   4.15863
 Alpha virt. eigenvalues --    4.16911   4.17401   4.18092   4.18801   4.18834
 Alpha virt. eigenvalues --    4.19388   4.19967   4.20286   4.21528   4.21799
 Alpha virt. eigenvalues --    4.22277   4.22652   4.23327   4.23493   4.23668
 Alpha virt. eigenvalues --    4.24256   4.25156   4.25589   4.26457   4.28102
 Alpha virt. eigenvalues --    4.28935   4.29181   4.29328   4.31193   4.31457
 Alpha virt. eigenvalues --    4.31834   4.32577   4.32761   4.33801   4.34179
 Alpha virt. eigenvalues --    4.34885   4.36354   4.36843   4.37697   4.38574
 Alpha virt. eigenvalues --    4.39331   4.39525   4.39950   4.40189   4.40659
 Alpha virt. eigenvalues --    4.41258   4.41535   4.42100   4.42964   4.43684
 Alpha virt. eigenvalues --    4.44406   4.44906   4.45270   4.45607   4.46728
 Alpha virt. eigenvalues --    4.46917   4.48004   4.48951   4.50325   4.51479
 Alpha virt. eigenvalues --    4.51804   4.52780   4.53592   4.54571   4.54901
 Alpha virt. eigenvalues --    4.55159   4.57268   4.57949   4.60482   4.60643
 Alpha virt. eigenvalues --    4.61766   4.63124   4.63945   4.65296   4.67014
 Alpha virt. eigenvalues --    4.67542   4.67775   4.68117   4.69147   4.71157
 Alpha virt. eigenvalues --    4.71695   4.72451   4.73648   4.74935   4.75589
 Alpha virt. eigenvalues --    4.76726   4.77227   4.78690   4.79602   4.80535
 Alpha virt. eigenvalues --    4.82618   4.82804   4.83623   4.83692   4.84219
 Alpha virt. eigenvalues --    4.84759   4.85698   4.86431   4.88455   4.89628
 Alpha virt. eigenvalues --    4.91360   4.91724   4.93077   4.93456   4.94105
 Alpha virt. eigenvalues --    4.95105   4.96431   4.96919   4.98008   4.99997
 Alpha virt. eigenvalues --    5.01353   5.02167   5.03116   5.04124   5.04516
 Alpha virt. eigenvalues --    5.05547   5.06594   5.07697   5.08336   5.09234
 Alpha virt. eigenvalues --    5.09704   5.12136   5.15789   5.17318   5.18721
 Alpha virt. eigenvalues --    5.19191   5.19707   5.20341   5.21753   5.22630
 Alpha virt. eigenvalues --    5.23224   5.24058   5.25377   5.27547   5.34189
 Alpha virt. eigenvalues --    5.35288   5.35353   5.37644   5.37897   5.38016
 Alpha virt. eigenvalues --    5.38620   5.39382   5.41363   5.46978   5.47267
 Alpha virt. eigenvalues --    5.48799   5.49600   5.50099   5.50247   5.51601
 Alpha virt. eigenvalues --    5.58741   5.59487   5.60518   5.62089   5.62197
 Alpha virt. eigenvalues --    5.65038   5.66586   5.67164   5.68151   5.73806
 Alpha virt. eigenvalues --    5.74381   5.75378   5.75751   5.77856   5.85033
 Alpha virt. eigenvalues --    5.86194   5.88421   5.99793   6.00868   6.02188
 Alpha virt. eigenvalues --    6.05826   6.06882   6.09557   6.11093   6.16489
 Alpha virt. eigenvalues --    6.23868   6.32825   6.33252   6.40144   9.04991
 Alpha virt. eigenvalues --    9.18699   9.38411  19.49008  22.30499  22.33645
 Alpha virt. eigenvalues --   22.35532  22.45773  22.46446  22.52604  22.53792
 Alpha virt. eigenvalues --   22.62552  22.63258  22.82326  22.86066  22.88032
 Alpha virt. eigenvalues --   22.92744  22.93592  22.94793  22.95554  23.03662
 Alpha virt. eigenvalues --   23.04199  23.14876  23.25633  23.28669  23.30870
 Alpha virt. eigenvalues --   23.35912  23.42380  23.50394  23.51387  23.55671
 Alpha virt. eigenvalues --   23.74811  23.79081  23.79402  23.88333  32.80817
 Alpha virt. eigenvalues --   32.83946  32.87246  33.01283
  Beta  occ. eigenvalues -- -256.20639 -88.96263 -30.01794 -25.86827 -25.86285
  Beta  occ. eigenvalues --  -25.85786 -14.33772 -14.33670 -14.33462 -14.33399
  Beta  occ. eigenvalues --  -10.22576 -10.22217 -10.22065 -10.21958 -10.21940
  Beta  occ. eigenvalues --  -10.21940 -10.21914 -10.21745 -10.21637 -10.20373
  Beta  occ. eigenvalues --  -10.20142 -10.19908 -10.19804 -10.19695 -10.19614
  Beta  occ. eigenvalues --  -10.19606 -10.19425 -10.19421 -10.19360 -10.19343
  Beta  occ. eigenvalues --  -10.19333 -10.19302 -10.19258 -10.19204 -10.19201
  Beta  occ. eigenvalues --  -10.19097 -10.19070 -10.18992 -10.18976 -10.18924
  Beta  occ. eigenvalues --  -10.18774  -7.99179  -5.93755  -5.93457  -5.92909
  Beta  occ. eigenvalues --   -3.35939  -2.11968  -2.11341  -2.10897  -0.97793
  Beta  occ. eigenvalues --   -0.96877  -0.96696  -0.95737  -0.83234  -0.82675
  Beta  occ. eigenvalues --   -0.82348  -0.81629  -0.81194  -0.80721  -0.80536
  Beta  occ. eigenvalues --   -0.80447  -0.77671  -0.76589  -0.75027  -0.74867
  Beta  occ. eigenvalues --   -0.73875  -0.71705  -0.70758  -0.69074  -0.68675
  Beta  occ. eigenvalues --   -0.68612  -0.66978  -0.65117  -0.64891  -0.61746
  Beta  occ. eigenvalues --   -0.60762  -0.58530  -0.57379  -0.55420  -0.55006
  Beta  occ. eigenvalues --   -0.54141  -0.52909  -0.51849  -0.51600  -0.51275
  Beta  occ. eigenvalues --   -0.49383  -0.48621  -0.48184  -0.47114  -0.46872
  Beta  occ. eigenvalues --   -0.46087  -0.45524  -0.45325  -0.44650  -0.44479
  Beta  occ. eigenvalues --   -0.44332  -0.44149  -0.43964  -0.43640  -0.43436
  Beta  occ. eigenvalues --   -0.42832  -0.42210  -0.42162  -0.41931  -0.41516
  Beta  occ. eigenvalues --   -0.41061  -0.40785  -0.40633  -0.40543  -0.40201
  Beta  occ. eigenvalues --   -0.39869  -0.39651  -0.39490  -0.39193  -0.38743
  Beta  occ. eigenvalues --   -0.38274  -0.38039  -0.37842  -0.37278  -0.37003
  Beta  occ. eigenvalues --   -0.36650  -0.36245  -0.35572  -0.35273  -0.34879
  Beta  occ. eigenvalues --   -0.34544  -0.32800  -0.32456  -0.31333  -0.30702
  Beta  occ. eigenvalues --   -0.30150  -0.29761  -0.28842  -0.27602  -0.27495
  Beta  occ. eigenvalues --   -0.24559  -0.24088  -0.23535  -0.22921  -0.19612
  Beta  occ. eigenvalues --   -0.18823  -0.17053
  Beta virt. eigenvalues --   -0.08190  -0.07166  -0.02869  -0.01876  -0.01746
  Beta virt. eigenvalues --   -0.00447   0.00497   0.00862   0.01370   0.03595
  Beta virt. eigenvalues --    0.03887   0.04203   0.04640   0.05371   0.05848
  Beta virt. eigenvalues --    0.06588   0.06997   0.07164   0.07611   0.07728
  Beta virt. eigenvalues --    0.08216   0.08414   0.08706   0.08815   0.09216
  Beta virt. eigenvalues --    0.09839   0.10056   0.10299   0.10677   0.11063
  Beta virt. eigenvalues --    0.11144   0.11445   0.11691   0.12293   0.12395
  Beta virt. eigenvalues --    0.12645   0.12844   0.13211   0.13300   0.13503
  Beta virt. eigenvalues --    0.13877   0.13955   0.14317   0.14458   0.14776
  Beta virt. eigenvalues --    0.14825   0.15021   0.15420   0.15607   0.15653
  Beta virt. eigenvalues --    0.16006   0.16459   0.16634   0.16832   0.17184
  Beta virt. eigenvalues --    0.17347   0.17434   0.17999   0.18072   0.18646
  Beta virt. eigenvalues --    0.18873   0.19130   0.19307   0.19675   0.20095
  Beta virt. eigenvalues --    0.20292   0.20439   0.20964   0.21110   0.21453
  Beta virt. eigenvalues --    0.21617   0.21819   0.22122   0.22507   0.22620
  Beta virt. eigenvalues --    0.23109   0.23310   0.23662   0.24211   0.24732
  Beta virt. eigenvalues --    0.25084   0.25202   0.25347   0.25628   0.25784
  Beta virt. eigenvalues --    0.26106   0.26725   0.26943   0.27179   0.27444
  Beta virt. eigenvalues --    0.27748   0.28212   0.28543   0.28641   0.28892
  Beta virt. eigenvalues --    0.29070   0.29285   0.29648   0.30046   0.30227
  Beta virt. eigenvalues --    0.30595   0.30819   0.31412   0.31539   0.31672
  Beta virt. eigenvalues --    0.31984   0.32388   0.32714   0.33041   0.33199
  Beta virt. eigenvalues --    0.33594   0.33789   0.34205   0.34263   0.34487
  Beta virt. eigenvalues --    0.35358   0.35756   0.35885   0.36243   0.36530
  Beta virt. eigenvalues --    0.36760   0.36981   0.37315   0.37510   0.37808
  Beta virt. eigenvalues --    0.38659   0.38832   0.38939   0.39050   0.39480
  Beta virt. eigenvalues --    0.39610   0.39894   0.40100   0.40235   0.40495
  Beta virt. eigenvalues --    0.40893   0.41053   0.41245   0.41533   0.41825
  Beta virt. eigenvalues --    0.41968   0.42264   0.42387   0.42629   0.42814
  Beta virt. eigenvalues --    0.43297   0.43652   0.43717   0.44079   0.44312
  Beta virt. eigenvalues --    0.44590   0.44755   0.44808   0.45178   0.45438
  Beta virt. eigenvalues --    0.45910   0.45963   0.46110   0.46405   0.46611
  Beta virt. eigenvalues --    0.46999   0.47178   0.47296   0.47519   0.47924
  Beta virt. eigenvalues --    0.48018   0.48181   0.48465   0.48777   0.48918
  Beta virt. eigenvalues --    0.49163   0.49616   0.49937   0.50074   0.50153
  Beta virt. eigenvalues --    0.50534   0.50846   0.50900   0.51110   0.51492
  Beta virt. eigenvalues --    0.51804   0.51974   0.52166   0.52332   0.52539
  Beta virt. eigenvalues --    0.52863   0.52950   0.53000   0.53518   0.53740
  Beta virt. eigenvalues --    0.54217   0.54592   0.54929   0.55451   0.55696
  Beta virt. eigenvalues --    0.55812   0.56164   0.56418   0.56472   0.57248
  Beta virt. eigenvalues --    0.58074   0.58106   0.58359   0.58544   0.59162
  Beta virt. eigenvalues --    0.59247   0.59774   0.60447   0.61012   0.61174
  Beta virt. eigenvalues --    0.61418   0.61761   0.62268   0.62407   0.62731
  Beta virt. eigenvalues --    0.63065   0.63115   0.63174   0.63814   0.64080
  Beta virt. eigenvalues --    0.64303   0.64564   0.65113   0.65356   0.65468
  Beta virt. eigenvalues --    0.65989   0.66662   0.66941   0.67046   0.67163
  Beta virt. eigenvalues --    0.67655   0.67911   0.68522   0.68653   0.69176
  Beta virt. eigenvalues --    0.69537   0.69737   0.70328   0.70378   0.70835
  Beta virt. eigenvalues --    0.71046   0.71475   0.71566   0.71815   0.72306
  Beta virt. eigenvalues --    0.72892   0.73080   0.73450   0.73682   0.73919
  Beta virt. eigenvalues --    0.74159   0.74255   0.74461   0.75054   0.75650
  Beta virt. eigenvalues --    0.75893   0.76448   0.76629   0.77038   0.77410
  Beta virt. eigenvalues --    0.77720   0.78150   0.78850   0.78956   0.79146
  Beta virt. eigenvalues --    0.79916   0.80390   0.80845   0.81226   0.81459
  Beta virt. eigenvalues --    0.82097   0.82221   0.82629   0.82705   0.83650
  Beta virt. eigenvalues --    0.83942   0.84444   0.84833   0.84929   0.85287
  Beta virt. eigenvalues --    0.85786   0.86179   0.87039   0.87226   0.87486
  Beta virt. eigenvalues --    0.87834   0.88767   0.89105   0.89449   0.89992
  Beta virt. eigenvalues --    0.90326   0.90443   0.91116   0.91658   0.92035
  Beta virt. eigenvalues --    0.92467   0.92647   0.93454   0.94010   0.94181
  Beta virt. eigenvalues --    0.94630   0.94930   0.95132   0.95250   0.95919
  Beta virt. eigenvalues --    0.96178   0.96491   0.96721   0.97416   0.97792
  Beta virt. eigenvalues --    0.98671   0.98870   0.98893   0.99220   0.99603
  Beta virt. eigenvalues --    1.00216   1.01014   1.01140   1.01552   1.01723
  Beta virt. eigenvalues --    1.01923   1.02164   1.02350   1.03157   1.03469
  Beta virt. eigenvalues --    1.03568   1.03759   1.04040   1.04727   1.05510
  Beta virt. eigenvalues --    1.05624   1.05794   1.06230   1.06907   1.07258
  Beta virt. eigenvalues --    1.07922   1.08324   1.08400   1.08857   1.09363
  Beta virt. eigenvalues --    1.09507   1.10153   1.10633   1.10748   1.11593
  Beta virt. eigenvalues --    1.11878   1.12706   1.12928   1.13461   1.14307
  Beta virt. eigenvalues --    1.15219   1.16103   1.16535   1.17173   1.17524
  Beta virt. eigenvalues --    1.17823   1.18277   1.18560   1.18734   1.19457
  Beta virt. eigenvalues --    1.19798   1.20473   1.20823   1.21293   1.21528
  Beta virt. eigenvalues --    1.22172   1.22589   1.23124   1.23163   1.24231
  Beta virt. eigenvalues --    1.24948   1.25030   1.25300   1.25836   1.26805
  Beta virt. eigenvalues --    1.26942   1.27358   1.27665   1.27812   1.28104
  Beta virt. eigenvalues --    1.28581   1.28720   1.29404   1.30144   1.30265
  Beta virt. eigenvalues --    1.30590   1.31141   1.31546   1.32271   1.32443
  Beta virt. eigenvalues --    1.33705   1.33760   1.35190   1.35970   1.36372
  Beta virt. eigenvalues --    1.36752   1.37598   1.38085   1.39159   1.39725
  Beta virt. eigenvalues --    1.40602   1.40804   1.41274   1.41632   1.42507
  Beta virt. eigenvalues --    1.42662   1.43542   1.44246   1.44695   1.45140
  Beta virt. eigenvalues --    1.45678   1.46556   1.47468   1.47534   1.47803
  Beta virt. eigenvalues --    1.48290   1.48416   1.48787   1.49067   1.49105
  Beta virt. eigenvalues --    1.49406   1.50089   1.50368   1.50796   1.51100
  Beta virt. eigenvalues --    1.51239   1.51953   1.52134   1.52576   1.53075
  Beta virt. eigenvalues --    1.53189   1.53398   1.53682   1.54109   1.54198
  Beta virt. eigenvalues --    1.54258   1.54413   1.54839   1.55046   1.55209
  Beta virt. eigenvalues --    1.55463   1.55767   1.55901   1.56332   1.56476
  Beta virt. eigenvalues --    1.56939   1.57315   1.57632   1.57995   1.58245
  Beta virt. eigenvalues --    1.58821   1.59118   1.59431   1.59850   1.60008
  Beta virt. eigenvalues --    1.60362   1.60829   1.60899   1.61297   1.61676
  Beta virt. eigenvalues --    1.62262   1.62765   1.63082   1.63272   1.63561
  Beta virt. eigenvalues --    1.63798   1.64123   1.64352   1.64702   1.64815
  Beta virt. eigenvalues --    1.65141   1.65708   1.66104   1.66594   1.66680
  Beta virt. eigenvalues --    1.66987   1.67552   1.67713   1.68682   1.69513
  Beta virt. eigenvalues --    1.69859   1.70012   1.70376   1.70508   1.70618
  Beta virt. eigenvalues --    1.71074   1.71291   1.71965   1.72199   1.72556
  Beta virt. eigenvalues --    1.72807   1.73314   1.73864   1.74295   1.74393
  Beta virt. eigenvalues --    1.74922   1.74994   1.76286   1.77004   1.77429
  Beta virt. eigenvalues --    1.78002   1.78596   1.79040   1.79547   1.80150
  Beta virt. eigenvalues --    1.80965   1.81587   1.82264   1.82444   1.83213
  Beta virt. eigenvalues --    1.83304   1.83599   1.83777   1.84405   1.85220
  Beta virt. eigenvalues --    1.85619   1.85912   1.86430   1.86998   1.87431
  Beta virt. eigenvalues --    1.87957   1.88298   1.88634   1.89040   1.90221
  Beta virt. eigenvalues --    1.90863   1.91030   1.91042   1.91645   1.93338
  Beta virt. eigenvalues --    1.94029   1.94194   1.94551   1.95648   1.95835
  Beta virt. eigenvalues --    1.96269   1.96741   1.97381   1.97828   1.98180
  Beta virt. eigenvalues --    1.98342   1.99046   1.99530   1.99896   1.99999
  Beta virt. eigenvalues --    2.00497   2.00957   2.01651   2.02214   2.02566
  Beta virt. eigenvalues --    2.03570   2.03991   2.05169   2.05675   2.05825
  Beta virt. eigenvalues --    2.06373   2.06491   2.07419   2.07823   2.08289
  Beta virt. eigenvalues --    2.08592   2.09324   2.09481   2.09897   2.10241
  Beta virt. eigenvalues --    2.11168   2.11843   2.12087   2.12708   2.12910
  Beta virt. eigenvalues --    2.13486   2.14113   2.14738   2.15222   2.15776
  Beta virt. eigenvalues --    2.16198   2.16319   2.17191   2.17823   2.18402
  Beta virt. eigenvalues --    2.18728   2.19061   2.19698   2.20679   2.20944
  Beta virt. eigenvalues --    2.21525   2.21870   2.22956   2.23562   2.24095
  Beta virt. eigenvalues --    2.24310   2.25137   2.25853   2.26115   2.26576
  Beta virt. eigenvalues --    2.26733   2.27516   2.28130   2.28389   2.29178
  Beta virt. eigenvalues --    2.29364   2.29411   2.30169   2.30299   2.30913
  Beta virt. eigenvalues --    2.31406   2.31871   2.32329   2.32715   2.33586
  Beta virt. eigenvalues --    2.34016   2.34362   2.35182   2.35492   2.35876
  Beta virt. eigenvalues --    2.35997   2.36679   2.36927   2.37461   2.37895
  Beta virt. eigenvalues --    2.38097   2.38474   2.39020   2.39249   2.40130
  Beta virt. eigenvalues --    2.40548   2.40893   2.41035   2.41512   2.42240
  Beta virt. eigenvalues --    2.43024   2.43618   2.43890   2.44637   2.44900
  Beta virt. eigenvalues --    2.45288   2.45525   2.45991   2.46383   2.47186
  Beta virt. eigenvalues --    2.47288   2.47725   2.48751   2.49182   2.49614
  Beta virt. eigenvalues --    2.50066   2.50764   2.51581   2.52182   2.52444
  Beta virt. eigenvalues --    2.52506   2.52985   2.53364   2.54652   2.55012
  Beta virt. eigenvalues --    2.55331   2.55580   2.55808   2.56158   2.56389
  Beta virt. eigenvalues --    2.56813   2.57105   2.57271   2.57906   2.58321
  Beta virt. eigenvalues --    2.58652   2.59245   2.59406   2.59979   2.60280
  Beta virt. eigenvalues --    2.60552   2.60895   2.61073   2.61774   2.62185
  Beta virt. eigenvalues --    2.62565   2.63118   2.63553   2.64160   2.64764
  Beta virt. eigenvalues --    2.65090   2.65876   2.66742   2.67145   2.67595
  Beta virt. eigenvalues --    2.67691   2.68156   2.68413   2.68983   2.69048
  Beta virt. eigenvalues --    2.69715   2.70265   2.70840   2.71479   2.71664
  Beta virt. eigenvalues --    2.72189   2.72932   2.73545   2.74525   2.74757
  Beta virt. eigenvalues --    2.75029   2.75431   2.76403   2.76967   2.77138
  Beta virt. eigenvalues --    2.77590   2.77880   2.78245   2.79242   2.79404
  Beta virt. eigenvalues --    2.79608   2.80336   2.80603   2.80869   2.81945
  Beta virt. eigenvalues --    2.82129   2.82955   2.83176   2.83842   2.84145
  Beta virt. eigenvalues --    2.84262   2.84533   2.85311   2.85679   2.85868
  Beta virt. eigenvalues --    2.86011   2.86584   2.86976   2.87790   2.88432
  Beta virt. eigenvalues --    2.88527   2.88670   2.89653   2.89999   2.90418
  Beta virt. eigenvalues --    2.91242   2.91709   2.91813   2.92073   2.92341
  Beta virt. eigenvalues --    2.93084   2.94087   2.94492   2.94626   2.94918
  Beta virt. eigenvalues --    2.95560   2.95855   2.96391   2.96935   2.97439
  Beta virt. eigenvalues --    2.97972   2.98289   2.98386   2.99054   3.00013
  Beta virt. eigenvalues --    3.00463   3.00779   3.01286   3.01613   3.02398
  Beta virt. eigenvalues --    3.02731   3.03322   3.03754   3.04188   3.04273
  Beta virt. eigenvalues --    3.04841   3.05320   3.05879   3.06174   3.06730
  Beta virt. eigenvalues --    3.07099   3.07202   3.07692   3.08004   3.08178
  Beta virt. eigenvalues --    3.08485   3.09182   3.09750   3.10202   3.10246
  Beta virt. eigenvalues --    3.10763   3.11579   3.11607   3.11968   3.12446
  Beta virt. eigenvalues --    3.12866   3.13122   3.13383   3.13607   3.13922
  Beta virt. eigenvalues --    3.14251   3.14613   3.15325   3.15716   3.15916
  Beta virt. eigenvalues --    3.16014   3.16494   3.17095   3.17560   3.17885
  Beta virt. eigenvalues --    3.18454   3.18869   3.18930   3.19562   3.19649
  Beta virt. eigenvalues --    3.19937   3.20096   3.20452   3.21042   3.21300
  Beta virt. eigenvalues --    3.21777   3.22051   3.22312   3.22766   3.23379
  Beta virt. eigenvalues --    3.23594   3.24039   3.24471   3.24519   3.24993
  Beta virt. eigenvalues --    3.25073   3.25291   3.25433   3.26029   3.26197
  Beta virt. eigenvalues --    3.26562   3.27008   3.27754   3.27938   3.28327
  Beta virt. eigenvalues --    3.28826   3.29036   3.29506   3.29668   3.29890
  Beta virt. eigenvalues --    3.30006   3.30180   3.30508   3.30926   3.30951
  Beta virt. eigenvalues --    3.31131   3.31761   3.32077   3.32632   3.32716
  Beta virt. eigenvalues --    3.32945   3.33301   3.33830   3.34125   3.34374
  Beta virt. eigenvalues --    3.34712   3.34918   3.35184   3.35322   3.35770
  Beta virt. eigenvalues --    3.36197   3.36494   3.36603   3.36948   3.37060
  Beta virt. eigenvalues --    3.37545   3.37883   3.38077   3.38162   3.38380
  Beta virt. eigenvalues --    3.38887   3.39131   3.39996   3.40232   3.40525
  Beta virt. eigenvalues --    3.40959   3.41293   3.42126   3.42510   3.43022
  Beta virt. eigenvalues --    3.43519   3.43787   3.44263   3.44561   3.44768
  Beta virt. eigenvalues --    3.45596   3.45755   3.46112   3.46205   3.46643
  Beta virt. eigenvalues --    3.47598   3.48282   3.48658   3.49247   3.49944
  Beta virt. eigenvalues --    3.50199   3.50592   3.51220   3.51948   3.52084
  Beta virt. eigenvalues --    3.53486   3.53810   3.54529   3.55337   3.55578
  Beta virt. eigenvalues --    3.56092   3.56771   3.57090   3.57612   3.57738
  Beta virt. eigenvalues --    3.58193   3.59146   3.59342   3.60559   3.60855
  Beta virt. eigenvalues --    3.61056   3.61617   3.61943   3.62650   3.63431
  Beta virt. eigenvalues --    3.63982   3.64240   3.64597   3.65577   3.66694
  Beta virt. eigenvalues --    3.66862   3.67226   3.67736   3.68288   3.68671
  Beta virt. eigenvalues --    3.68852   3.69524   3.69946   3.70278   3.71218
  Beta virt. eigenvalues --    3.71603   3.72023   3.72038   3.72321   3.72979
  Beta virt. eigenvalues --    3.73605   3.73993   3.74201   3.74320   3.74455
  Beta virt. eigenvalues --    3.75165   3.75867   3.76331   3.76983   3.77637
  Beta virt. eigenvalues --    3.78376   3.79247   3.79905   3.80433   3.81334
  Beta virt. eigenvalues --    3.82335   3.83080   3.83535   3.84217   3.84924
  Beta virt. eigenvalues --    3.85209   3.85995   3.86425   3.86872   3.87717
  Beta virt. eigenvalues --    3.87873   3.88544   3.89221   3.89314   3.90814
  Beta virt. eigenvalues --    3.91894   3.92412   3.92670   3.93138   3.93969
  Beta virt. eigenvalues --    3.94489   3.95905   3.96741   3.97576   3.98025
  Beta virt. eigenvalues --    3.98937   3.99509   3.99664   4.00365   4.00622
  Beta virt. eigenvalues --    4.01327   4.01797   4.03280   4.03558   4.04127
  Beta virt. eigenvalues --    4.04495   4.05011   4.05680   4.06707   4.07375
  Beta virt. eigenvalues --    4.08299   4.09157   4.09845   4.10238   4.10777
  Beta virt. eigenvalues --    4.12404   4.13028   4.13238   4.14368   4.14726
  Beta virt. eigenvalues --    4.15442   4.16074   4.16909   4.17773   4.18509
  Beta virt. eigenvalues --    4.18554   4.19002   4.19309   4.20247   4.20371
  Beta virt. eigenvalues --    4.20916   4.21496   4.22726   4.23014   4.23395
  Beta virt. eigenvalues --    4.24492   4.25301   4.26273   4.27061   4.27797
  Beta virt. eigenvalues --    4.28184   4.28505   4.28927   4.29637   4.30211
  Beta virt. eigenvalues --    4.30356   4.31758   4.32023   4.32941   4.33164
  Beta virt. eigenvalues --    4.33610   4.34639   4.36028   4.36605   4.36812
  Beta virt. eigenvalues --    4.37547   4.38579   4.38907   4.39623   4.39772
  Beta virt. eigenvalues --    4.40031   4.40372   4.41069   4.41693   4.42443
  Beta virt. eigenvalues --    4.43174   4.43405   4.43799   4.44505   4.45107
  Beta virt. eigenvalues --    4.45440   4.46114   4.46215   4.47379   4.47914
  Beta virt. eigenvalues --    4.48414   4.49420   4.50504   4.51668   4.52166
  Beta virt. eigenvalues --    4.52833   4.53989   4.54741   4.55073   4.55387
  Beta virt. eigenvalues --    4.57459   4.58164   4.60596   4.61026   4.62207
  Beta virt. eigenvalues --    4.64139   4.64749   4.65445   4.67177   4.67643
  Beta virt. eigenvalues --    4.68004   4.68213   4.69318   4.71230   4.71770
  Beta virt. eigenvalues --    4.72670   4.73778   4.75200   4.76758   4.76855
  Beta virt. eigenvalues --    4.77331   4.78956   4.79747   4.80668   4.82727
  Beta virt. eigenvalues --    4.82902   4.83740   4.83815   4.84294   4.84866
  Beta virt. eigenvalues --    4.85810   4.86530   4.88565   4.89849   4.91605
  Beta virt. eigenvalues --    4.92005   4.93468   4.93759   4.94405   4.95395
  Beta virt. eigenvalues --    4.96780   4.97098   4.98239   5.00360   5.01524
  Beta virt. eigenvalues --    5.02453   5.03380   5.04448   5.04783   5.05754
  Beta virt. eigenvalues --    5.06759   5.07812   5.08494   5.09366   5.09830
  Beta virt. eigenvalues --    5.12265   5.15918   5.17441   5.19186   5.19498
  Beta virt. eigenvalues --    5.19879   5.20433   5.21905   5.23030   5.23544
  Beta virt. eigenvalues --    5.24478   5.25710   5.27833   5.34589   5.35404
  Beta virt. eigenvalues --    5.35535   5.37859   5.38144   5.38282   5.38859
  Beta virt. eigenvalues --    5.39637   5.41489   5.47340   5.47682   5.49149
  Beta virt. eigenvalues --    5.49804   5.50338   5.50825   5.51934   5.58888
  Beta virt. eigenvalues --    5.59679   5.60685   5.62135   5.62299   5.65195
  Beta virt. eigenvalues --    5.66820   5.67437   5.68321   5.73962   5.74523
  Beta virt. eigenvalues --    5.75565   5.76010   5.77973   5.85357   5.86525
  Beta virt. eigenvalues --    5.88991   6.00062   6.01136   6.02406   6.06410
  Beta virt. eigenvalues --    6.07283   6.10221   6.11800   6.16592   6.24242
  Beta virt. eigenvalues --    6.32944   6.33372   6.40217   9.05091   9.18913
  Beta virt. eigenvalues --    9.38539  19.49123  22.30483  22.33650  22.35528
  Beta virt. eigenvalues --   22.45774  22.46448  22.52605  22.53795  22.62553
  Beta virt. eigenvalues --   22.63260  22.82330  22.86068  22.88034  22.92745
  Beta virt. eigenvalues --   22.93598  22.94799  22.95559  23.03666  23.04206
  Beta virt. eigenvalues --   23.14882  23.25641  23.28681  23.30871  23.35917
  Beta virt. eigenvalues --   23.42383  23.50394  23.51398  23.55679  23.74816
  Beta virt. eigenvalues --   23.79090  23.79401  23.88338  32.81012  32.84166
  Beta virt. eigenvalues --   32.87456  33.01502
          Condensed to atoms (all electrons):
          Atomic-Atomic Spin Densities.
 Mulliken charges and spin densities:
               1          2
     1  Fe   0.058270   3.823205
     2  N   -0.167348   0.017446
     3  N   -0.115685   0.030254
     4  N   -0.183467   0.012370
     5  N   -0.131850   0.029242
     6  C    0.219880   0.004200
     7  C   -0.019977   0.003468
     8  C   -0.053876   0.009842
     9  C    0.275274  -0.002952
    10  C    0.274169  -0.005391
    11  C   -0.061673   0.009144
    12  C    0.050023  -0.007430
    13  C    0.278991   0.004738
    14  C    0.262728   0.007929
    15  C   -0.082656   0.004988
    16  C    0.076255   0.013419
    17  C    0.312400   0.004076
    18  C    0.280555   0.002667
    19  C   -0.047610   0.001808
    20  C   -0.042295  -0.001823
    21  C    0.268942   0.001749
    22  C   -0.472962  -0.004550
    23  H    0.143287  -0.000120
    24  C   -0.469523  -0.001043
    25  H    0.137629  -0.000355
    26  C   -0.454724  -0.009231
    27  H    0.124139   0.000272
    28  C   -0.516011  -0.008979
    29  H    0.187108   0.000057
    30  C   -0.414732  -0.000351
    31  H    0.134513   0.000274
    32  H    0.121550   0.000372
    33  H    0.142023   0.000278
    34  C   -0.412772   0.000087
    35  H    0.135501  -0.000057
    36  H    0.139779  -0.000009
    37  H    0.121689   0.000390
    38  C   -0.446642   0.000484
    39  H    0.141728   0.000240
    40  H    0.129201  -0.000102
    41  H    0.158486   0.000202
    42  C   -0.204100   0.004636
    43  H    0.115717  -0.000418
    44  C   -0.283114  -0.006546
    45  H    0.140210   0.000295
    46  H    0.124668   0.000454
    47  C   -0.398512  -0.000135
    48  H    0.137181   0.000177
    49  H    0.124321   0.000317
    50  H    0.146630   0.000112
    51  C   -0.245156  -0.003607
    52  H    0.119146   0.000519
    53  C   -0.304628   0.006149
    54  H    0.125326  -0.000308
    55  H    0.147617  -0.000248
    56  C   -0.406540   0.000901
    57  H    0.133047  -0.000257
    58  H    0.141942  -0.000377
    59  H    0.120140   0.000295
    60  C   -0.413013   0.001123
    61  H    0.121856   0.000342
    62  H    0.139456  -0.000478
    63  H    0.132251  -0.000431
    64  C   -0.336220  -0.007021
    65  H    0.161538   0.001973
    66  H    0.154661   0.000355
    67  H    0.147573  -0.000123
    68  S   -0.090325   0.069231
    69  H    0.168011  -0.007741
 Sum of Mulliken charges =  -0.00000   4.00000
[...]
  1071. RY*(  20) C  51                  0.00000     3.50467   
  1072. RY*(  21) C  51                  0.00000     3.66649   
  1073. RY*(  22) C  51                  0.00000     3.40556   
  1074. RY*(  23) C  51                  0.00000     3.76920   
  1075. RY*(  24) C  51                  0.00000     3.61814   
  1076. RY*(  25) C  51                  0.00000     3.82535   
  1077. RY*(  26) C  51                  0.00000     3.93685   
  1078. RY*(   1) H  52                  0.00080     0.65702   
  1079. RY*(   2) H  52                  0.00010     2.27203   
  1080. RY*(   3) H  52                  0.00007     2.22832   
  1081. RY*(   4) H  52                  0.00005     2.75699   
  1082. RY*(   5) H  52                  0.00000     3.09820   
  1083. RY*(   1) C  53                  0.00114     1.27565   
  1084. RY*(   2) C  53                  0.00067     1.04811   
  1085. RY*(   3) C  53                  0.00043     0.55518   
  1086. RY*(   4) C  53                  0.00011     1.11459   
  1087. RY*(   5) C  53                  0.00006     1.01629   
  1088. RY*(   6) C  53                  0.00003     1.32479   
  1089. RY*(   7) C  53                  0.00001     1.92671   
  1090. RY*(   8) C  53                  0.00001     1.54064   
  1091. RY*(   9) C  53                  0.00000     1.82117   
  1092. RY*(  10) C  53                  0.00001     1.96682   
  1093. RY*(  11) C  53                  0.00000     3.25391   
  1094. RY*(  12) C  53                  0.00001     1.57513   
  1095. RY*(  13) C  53                  0.00000     2.86113   
  1096. RY*(  14) C  53                  0.00000    21.03939   
  1097. RY*(  15) C  53                  0.00000     3.06326   
  1098. RY*(  16) C  53                  0.00001     1.67398   
  1099. RY*(  17) C  53                  0.00000     2.80261   
  1100. RY*(  18) C  53                  0.00001     1.50872   
  1101. RY*(  19) C  53                  0.00000     2.83919   
  1102. RY*(  20) C  53                  0.00000     3.48742   
  1103. RY*(  21) C  53                  0.00000     3.52793   
  1104. RY*(  22) C  53                  0.00000     3.31430   
  1105. RY*(  23) C  53                  0.00000     3.76827   
  1106. RY*(  24) C  53                  0.00000     3.38498   
  1107. RY*(  25) C  53                  0.00000     3.61898   
  1108. RY*(  26) C  53                  0.00000     3.59929   
  1109. RY*(   1) H  54                  0.00023     0.75216   
  1110. RY*(   2) H  54                  0.00015     1.81481   
  1111. RY*(   3) H  54                  0.00008     2.13337   
  1112. RY*(   4) H  54                  0.00003     2.47902   
  1113. RY*(   5) H  54                  0.00000     3.08046   
  1114. RY*(   1) H  55                  0.00037     1.31070   
  1115. RY*(   2) H  55                  0.00013     1.54943   
  1116. RY*(   3) H  55                  0.00009     2.16707   
  1117. RY*(   4) H  55                  0.00003     2.36245   
  1118. RY*(   5) H  55                  0.00000     3.10209   
  1119. RY*(   1) C  56                  0.00073     1.28679   
  1120. RY*(   2) C  56                  0.00069     1.24883   
  1121. RY*(   3) C  56                  0.00033     1.40011   
  1122. RY*(   4) C  56                  0.00007     0.94195   
  1123. RY*(   5) C  56                  0.00003     1.60569   
  1124. RY*(   6) C  56                  0.00000    21.67219   
  1125. RY*(   7) C  56                  0.00001     1.57156   
  1126. RY*(   8) C  56                  0.00000     1.78379   
  1127. RY*(   9) C  56                  0.00001     1.51508   
  1128. RY*(  10) C  56                  0.00001     3.47337   
  1129. RY*(  11) C  56                  0.00000     2.46987   
  1130. RY*(  12) C  56                  0.00000     1.91111   
  1131. RY*(  13) C  56                  0.00000     2.48377   
  1132. RY*(  14) C  56                  0.00000     3.11587   
  1133. RY*(  15) C  56                  0.00000     2.28995   
  1134. RY*(  16) C  56                  0.00001     2.97800   
  1135. RY*(  17) C  56                  0.00000     2.79763   
  1136. RY*(  18) C  56                  0.00000     3.13473   
  1137. RY*(  19) C  56                  0.00000     2.63367   
  1138. RY*(  20) C  56                  0.00000     3.21532   
  1139. RY*(  21) C  56                  0.00000     3.52056   
  1140. RY*(  22) C  56                  0.00000     3.85101   
  1141. RY*(  23) C  56                  0.00000     3.42392   
  1142. RY*(  24) C  56                  0.00000     3.30637   
  1143. RY*(  25) C  56                  0.00000     3.54778   
  1144. RY*(  26) C  56                  0.00000     3.75989   
  1145. RY*(   1) H  57                  0.00046     0.90149   
  1146. RY*(   2) H  57                  0.00009     1.83335   
  1147. RY*(   3) H  57                  0.00003     2.07509   
  1148. RY*(   4) H  57                  0.00003     2.13018   
  1149. RY*(   5) H  57                  0.00000     2.97139   
  1150. RY*(   1) H  58                  0.00044     0.93275   
  1151. RY*(   2) H  58                  0.00009     1.81738   
  1152. RY*(   3) H  58                  0.00003     2.08112   
  1153. RY*(   4) H  58                  0.00003     2.12063   
  1154. RY*(   5) H  58                  0.00000     2.96674   
  1155. RY*(   1) H  59                  0.00036     0.91942   
  1156. RY*(   2) H  59                  0.00006     1.75134   
  1157. RY*(   3) H  59                  0.00004     2.11047   
  1158. RY*(   4) H  59                  0.00004     2.07844   
  1159. RY*(   5) H  59                  0.00000     2.99705   
  1160. RY*(   1) C  60                  0.00073     1.32483   
  1161. RY*(   2) C  60                  0.00071     1.21360   
  1162. RY*(   3) C  60                  0.00032     1.39898   
  1163. RY*(   4) C  60                  0.00006     0.93577   
  1164. RY*(   5) C  60                  0.00003     1.50663   
  1165. RY*(   6) C  60                  0.00001     2.80469   
  1166. RY*(   7) C  60                  0.00001     1.48273   
  1167. RY*(   8) C  60                  0.00000     1.78923   
  1168. RY*(   9) C  60                  0.00001     1.56299   
  1169. RY*(  10) C  60                  0.00001     3.52661   
  1170. RY*(  11) C  60                  0.00000     2.51253   
  1171. RY*(  12) C  60                  0.00000     2.02134   
  1172. RY*(  13) C  60                  0.00000     2.41413   
  1173. RY*(  14) C  60                  0.00000     3.03809   
  1174. RY*(  15) C  60                  0.00000     2.32159   
  1175. RY*(  16) C  60                  0.00000    21.64836   
  1176. RY*(  17) C  60                  0.00001     2.73386   
  1177. RY*(  18) C  60                  0.00000     3.18246   
  1178. RY*(  19) C  60                  0.00000     2.62632   
  1179. RY*(  20) C  60                  0.00000     3.21133   
  1180. RY*(  21) C  60                  0.00000     3.50503   
  1181. RY*(  22) C  60                  0.00000     3.85522   
  1182. RY*(  23) C  60                  0.00000     3.42989   
  1183. RY*(  24) C  60                  0.00000     3.29074   
  1184. RY*(  25) C  60                  0.00000     3.67456   
  1185. RY*(  26) C  60                  0.00000     3.86549   
  1186. RY*(   1) H  61                  0.00037     0.91864   
  1187. RY*(   2) H  61                  0.00006     1.75379   
  1188. RY*(   3) H  61                  0.00005     2.10199   
  1189. RY*(   4) H  61                  0.00004     2.07887   
  1190. RY*(   5) H  61                  0.00000     3.00425   
  1191. RY*(   1) H  62                  0.00047     0.90056   
  1192. RY*(   2) H  62                  0.00009     1.81702   
  1193. RY*(   3) H  62                  0.00003     2.01498   
  1194. RY*(   4) H  62                  0.00003     2.14433   
  1195. RY*(   5) H  62                  0.00000     2.97033   
  1196. RY*(   1) H  63                  0.00045     0.88215   
  1197. RY*(   2) H  63                  0.00009     1.84167   
  1198. RY*(   3) H  63                  0.00003     2.00999   
  1199. RY*(   4) H  63                  0.00003     2.15042   
  1200. RY*(   5) H  63                  0.00000     2.96531   
  1276. BD*(   1) N   2 - C   6          0.01261     0.50215   
  1277. BD*(   2) N   2 - C   6          0.31791     0.00584  1322(v),1291(v),1296(v)
                                                    283(g),141(r),140(r),178(g)
                                                    136(r),697(v),137(r),1275(r)
                                                    1355(r)
  1278. BD*(   1) N   2 - C   9          0.01263     0.49688   
  1279. BD*(   1) N   3 - C  10          0.01283     0.49968   
  1280. BD*(   2) N   3 - C  10          0.32070     0.00482  1296(v),1300(v),1305(v)
                                                    386(g),141(r),203(g),728(v)
                                                    207(g),388(g),136(r),140(r)
                                                    1275(r),137(r),1358(r)
                                                    1359(r),142(r)
  1281. BD*(   1) N   3 - C  13          0.01257     0.49906   
  1282. BD*(   1) N   4 - C  14          0.01308     0.49795   
  1283. BD*(   2) N   4 - C  14          0.32834     0.00362  1305(v),1309(v),147(v)
                                                    140(r),136(r),491(g),230(g)
                                                    759(v),141(r),137(r),490(g)
                                                    142(r),1275(r)
  1284. BD*(   1) N   4 - C  17          0.01223     0.50576   
  1285. BD*(   1) N   5 - C  18          0.01272     0.50307   
  1286. BD*(   2) N   5 - C  18          0.31492     0.00865  1322(v),1317(v),141(r)
                                                    594(g),255(g),791(v),595(g)
                                                    1275(r),136(r),140(r),137(r)
  1287. BD*(   1) N   5 - C  21          0.01253     0.50701   
  1288. BD*(   1) C   6 - C   7          0.01775     0.49009   
  1289. BD*(   1) C   6 - C  22          0.01057     0.57636   
  1290. BD*(   1) C   7 - C   8          0.01141     0.60382   
  1291. BD*(   2) C   7 - C   8          0.13074     0.06419  1296(v),1277(v),1329(v)
                                                    1330(v),1331(v),1327(v)
  1292. BD*(   1) C   7 - C  34          0.00860     0.41056   
  1293. BD*(   1) C   8 - C   9          0.01774     0.48842   
  1294. BD*(   1) C   8 - C  30          0.00856     0.41078   
  1295. BD*(   1) C   9 - C  24          0.01034     0.57550   
  1296. BD*(   2) C   9 - C  24          0.20764     0.04275  1280(v),1291(v),1277(v)
                                                    728(g),1305(r),1322(r)
                                                    363(g),141(r)
  1297. BD*(   1) C  10 - C  11          0.01716     0.49577   
  1298. BD*(   1) C  10 - C  24          0.01054     0.57225   
  1299. BD*(   1) C  11 - C  12          0.01236     0.58924   
  1300. BD*(   2) C  11 - C  12          0.13873     0.06262  1338(v),1305(v),1280(v)
                                                    1333(v),1334(v)
  1301. BD*(   1) C  11 - C  38          0.00808     0.41472   
  1302. BD*(   1) C  12 - C  13          0.01730     0.48503   
  1303. BD*(   1) C  12 - C  42          0.01326     0.49353   
  1304. BD*(   1) C  13 - C  26          0.01019     0.57402   
  1305. BD*(   2) C  13 - C  26          0.19635     0.04410  1283(v),1300(v),1280(v)
                                                    1296(r),759(g),1338(r)
                                                    1322(r),467(g),141(r)
  1306. BD*(   1) C  14 - C  15          0.01709     0.49443   
  1307. BD*(   1) C  14 - C  26          0.01048     0.57012   
  1308. BD*(   1) C  15 - C  16          0.01103     0.58748   
  1309. BD*(   2) C  15 - C  16          0.14673     0.06091  1346(v),1283(v),147(v)
                                                    1343(v),1341(v),1344(v)
  1310. BD*(   1) C  15 - C  47          0.00814     0.41291   
  1311. BD*(   1) C  16 - C  17          0.01886     0.48608   
  1312. BD*(   1) C  16 - C  51          0.01327     0.48889   
  1313. BD*(   1) C  17 - C  28          0.01037     0.57527   
  1314. BD*(   1) C  18 - C  19          0.01793     0.48999   
  1315. BD*(   1) C  18 - C  28          0.01055     0.57688   
  1316. BD*(   1) C  19 - C  20          0.01134     0.60800   
  1317. BD*(   2) C  19 - C  20          0.11969     0.06792  1322(v),1286(v),1349(v)
                                                    1353(v),1354(v),1350(v)
                                                    622(g)
  1318. BD*(   1) C  19 - C  56          0.00852     0.41447   
  1319. BD*(   1) C  20 - C  21          0.01789     0.49139   
  1320. BD*(   1) C  20 - C  60          0.00859     0.41307   
  1321. BD*(   1) C  21 - C  22          0.01050     0.57845   
  1322. BD*(   2) C  21 - C  22          0.20075     0.04442  1277(v),1317(v),1286(v)
                                                    1296(r),697(g),1305(r)
                                                    675(g),141(r)
  1323. BD*(   1) C  22 - H  23          0.00632     0.43055   
  1324. BD*(   1) C  24 - H  25          0.00637     0.42951   
  1325. BD*(   1) C  26 - H  27          0.00639     0.42872   
  1326. BD*(   1) C  28 - H  29          0.00709     0.43672   
  1327. BD*(   1) C  30 - H  31          0.00511     0.37468   
  1328. BD*(   1) C  30 - H  32          0.00334     0.38671   
  1329. BD*(   1) C  30 - H  33          0.00525     0.37590   
  1330. BD*(   1) C  34 - H  35          0.00527     0.37402   
  1331. BD*(   1) C  34 - H  36          0.00523     0.37621   
  1332. BD*(   1) C  34 - H  37          0.00333     0.38681   
  1333. BD*(   1) C  38 - H  39          0.00615     0.37490   
  1334. BD*(   1) C  38 - H  40          0.00506     0.38365   
  1335. BD*(   1) C  38 - H  41          0.00409     0.39176   
  1336. BD*(   1) C  42 - H  43          0.01068     0.42173   
  1337. BD*(   1) C  42 - C  44          0.00391     0.62896   
  1338. BD*(   2) C  42 - C  44          0.03796     0.05758   
  1339. BD*(   1) C  44 - H  45          0.00548     0.43295   
  1340. BD*(   1) C  44 - H  46          0.00428     0.43397   
  1341. BD*(   1) C  47 - H  48          0.00479     0.37737   
  1342. BD*(   1) C  47 - H  49          0.00302     0.38855   
  1343. BD*(   1) C  47 - H  50          0.00528     0.37820   
  1344. BD*(   1) C  51 - H  52          0.01089     0.41829   
  1345. BD*(   1) C  51 - C  53          0.00355     0.62011   
  1346. BD*(   2) C  51 - C  53          0.03163     0.06295   
  1347. BD*(   1) C  53 - H  54          0.00442     0.43267   
  1348. BD*(   1) C  53 - H  55          0.00570     0.43153   
  1349. BD*(   1) C  56 - H  57          0.00549     0.37781   
  1350. BD*(   1) C  56 - H  58          0.00534     0.38062   
  1351. BD*(   1) C  56 - H  59          0.00336     0.38994   
  1352. BD*(   1) C  60 - H  61          0.00334     0.38926   
  1353. BD*(   1) C  60 - H  62          0.00562     0.37787   
  1354. BD*(   1) C  60 - H  63          0.00543     0.37638   
       -------------------------------
              Total Lewis  114.99871  ( 97.1850%)
        Valence non-Lewis    3.10129  (  2.6209%)
        Rydberg non-Lewis    0.22964  (  0.1941%)
       -------------------------------
            Total unit  2  118.32965  (100.0000%)
           Charge unit  2   -0.32965
 Unable to Open any file for archive entry.
 1\1\GINC-BGN1036\SP\UAPFD\def2TZVP\C31H32Fe1N4S1(5)\BECSLEIP\13-Nov-20
 24\0\\# apfd/def2TZVP guess=read scf=maxcycle=999 geom=check pop=nbo\\
 6oo9_II_Q\\0,5\Fe,0,-22.967858452,-28.107166296,-10.1304672623\N,0,-22
 .8623956836,-29.7946726678,-11.2826572652\N,0,-22.2840331118,-27.07124
 61843,-11.6690512925\N,0,-22.594311527,-26.6215681171,-8.8655211857\N,
 0,-23.2212222663,-29.3505616581,-8.5471823858\C,0,-23.1133230006,-31.0
 856254031,-10.926637972\C,0,-23.1308557492,-31.953275335,-12.081184514
 2\C,0,-22.8820265163,-31.1597125733,-13.1569200001\C,0,-22.7135918346,
 -29.8208242474,-12.6405827973\C,0,-22.2075507187,-27.4476541932,-12.97
 66642851\C,0,-21.8665493524,-26.3300393405,-13.8175362223\C,0,-21.7171
 275553,-25.2538269167,-12.9841264423\C,0,-21.9952231056,-25.7391122952
 ,-11.6472717015\C,0,-22.3446546786,-25.3360962322,-9.2460639163\C,0,-2
 2.542120375,-24.4279275088,-8.1474110206\C,0,-22.9384384166,-25.190912
 0748,-7.0823665742\C,0,-22.9495997092,-26.5592663527,-7.5552411838\C,0
 ,-23.3474114113,-28.956494797,-7.2464361831\C,0,-23.631881622,-30.0847
 62071,-6.388129742\C,0,-23.6811896812,-31.1756521244,-7.197296214\C,0,
 -23.4213530907,-30.697757286,-8.5362060967\C,0,-23.3670361018,-31.5213
 943689,-9.6414732649\H,0,-23.5431117919,-32.575060114,-9.493090262\C,0
 ,-22.4347476963,-28.730304725,-13.4397030751\H,0,-22.3598064632,-28.89
 99475559,-14.5024379132\C,0,-21.9909677068,-24.9365660753,-10.52344083
 72\H,0,-21.7767746338,-23.888356257,-10.6659451952\C,0,-23.2473308728,
 -27.66118135,-6.7779490734\H,0,-23.403274533,-27.4984687037,-5.7233093
 593\C,0,-22.7813104385,-31.5263791221,-14.5969601798\H,0,-23.509183348
 9,-30.9702316323,-15.1881544402\H,0,-22.9655248922,-32.5884227546,-14.
 73770912\H,0,-21.7870497389,-31.2973957142,-14.9806903503\C,0,-23.3745
 471714,-33.4214846173,-12.022458901\H,0,-24.3555813301,-33.6322542249,
 -11.5954668352\H,0,-22.6232914028,-33.9084857381,-11.4008215963\H,0,-2
 3.3325542182,-33.8597685845,-13.016303681\C,0,-21.638068984,-26.404562
 9282,-15.2862097949\H,0,-22.5840594544,-26.3701433066,-15.8291782243\H
 ,0,-21.1307059155,-27.3310375544,-15.5504470875\H,0,-21.0248883635,-25
 .5666753527,-15.6109578113\C,0,-21.347253873,-23.8926272663,-13.306461
 589\H,0,-20.7437406122,-23.383683927,-12.5643067687\C,0,-21.6935585308
 ,-23.2453433285,-14.4137954483\H,0,-22.3304565765,-23.6870039686,-15.1
 602903736\H,0,-21.3727826012,-22.2336499273,-14.5978516617\C,0,-22.378
 1693744,-22.9503881068,-8.218392006\H,0,-21.380320188,-22.6914667642,-
 8.5728553982\H,0,-22.5285654035,-22.5019922541,-7.2397635651\H,0,-23.1
 03830357,-22.5185080695,-8.9081026266\C,0,-23.2956731753,-24.724244758
 1,-5.7573388293\H,0,-22.6865813409,-23.9141783991,-5.3711916376\C,0,-2
 4.3081401327,-25.1771448421,-5.0277945701\H,0,-24.5206359859,-24.77855
 64214,-4.0497041373\H,0,-24.9776010918,-25.938691706,-5.3903246343\C,0
 ,-23.8164401146,-29.9920633628,-4.9133304292\H,0,-24.6581402192,-29.34
 28296112,-4.6713109482\H,0,-22.924856197,-29.5780907022,-4.4428015624\
 H,0,-24.0061818206,-30.9732247335,-4.4854265375\C,0,-23.9330151366,-32
 .6019505441,-6.8494053823\H,0,-24.1167343152,-32.711637867,-5.78372275
 73\H,0,-23.0732065692,-33.2175244004,-7.1140677852\H,0,-24.8010066977,
 -32.9822590431,-7.388461286\C,0,-26.1280404475,-29.171380218,-10.30710
 06153\H,0,-25.5851928723,-29.9955878331,-10.7579586183\H,0,-27.1122885
 595,-29.0538056626,-10.7494732346\H,0,-26.2133958983,-29.329399834,-9.
 2370230079\S,0,-25.1810786493,-27.6191911643,-10.5273922911\H,0,-25.21
 05803438,-27.6613009304,-11.8676910401\\Version=ES64L-G16RevC.02\State
 =5-A\HF=-3080.7793431\S2=6.062247\S2-1=0.\S2A=6.000347\RMSD=2.354e-09\
 Dipole=-0.9799051,-0.5664755,-0.2882367\Quadrupole=-9.5315085,4.772048
 6,4.7594599,5.9984391,-0.6498413,2.0595157\PG=C01 [X(C31H32Fe1N4S1)]\\
 @
 The archive entry for this job was punched.


 MORNING PEOPLE ARE USUALLY ADMIRED AS EARLY BIRDS.
 RECALL BEN FRANKLIN'S APHORISM THAT THE EARLY BIRD GETS THE WORM.
 I IDENTIFY WITH THE WORM. --  CRAIG JAGGER, MINNEAPOLIS, KS.
 Job cpu time:       0 days 16 hours 13 minutes 10.0 seconds.
 Elapsed time:       0 days  0 hours 14 minutes 59.5 seconds.
 File lengths (MBytes):  RWF=   1706 Int=      0 D2E=      0 Chk=    156 Scr=      1
 Normal termination of Gaussian 16 at Wed Nov 13 14:08:27 2024.
