 Entering Gaussian System, Link 0=g16
 Input=6qq116.com
 Output=6qq116.log
 Initial command:
 /sw/chem/gaussian/g16_C02/a100/g16/l1.exe "/local/becsleip_8079704/Gau-974166.inp" -scrdir="/local/becsleip_8079704/"
 Entering Link 1 = /sw/chem/gaussian/g16_C02/a100/g16/l1.exe PID=    974167.
  
 Copyright (c) 1988-2021, Gaussian, Inc.  All Rights Reserved.
  
 This is part of the Gaussian(R) 16 program.  It is based on
 the Gaussian(R) 09 system (copyright 2009, Gaussian, Inc.),
 the Gaussian(R) 03 system (copyright 2003, Gaussian, Inc.),
 the Gaussian(R) 98 system (copyright 1998, Gaussian, Inc.),
 the Gaussian(R) 94 system (copyright 1995, Gaussian, Inc.),
 the Gaussian 92(TM) system (copyright 1992, Gaussian, Inc.),
 the Gaussian 90(TM) system (copyright 1990, Gaussian, Inc.),
 the Gaussian 88(TM) system (copyright 1988, Gaussian, Inc.),
 the Gaussian 86(TM) system (copyright 1986, Carnegie Mellon
 University), and the Gaussian 82(TM) system (copyright 1983,
 Carnegie Mellon University). Gaussian is a federally registered
 trademark of Gaussian, Inc.
  
 This software contains proprietary and confidential information,
 including trade secrets, belonging to Gaussian, Inc.
  
 This software is provided under written license and may be
 used, copied, transmitted, or stored only in accord with that
 written license.
  
 The following legend is applicable only to US Government
 contracts under FAR:
  
                    RESTRICTED RIGHTS LEGEND
  
 Use, reproduction and disclosure by the US Government is
 subject to restrictions as set forth in subparagraphs (a)
 and (c) of the Commercial Computer Software - Restricted
 Rights clause in FAR 52.227-19.
  
 Gaussian, Inc.
 340 Quinnipiac St., Bldg. 40, Wallingford CT 06492
  
  
 ---------------------------------------------------------------
 Warning -- This program may not be used in any manner that
 competes with the business of Gaussian, Inc. or will provide
 assistance to any competitor of Gaussian, Inc.  The licensee
 of this program is prohibited from giving any competitor of
 Gaussian, Inc. access to this program.  By using this program,
 the user acknowledges that Gaussian, Inc. is engaged in the
 business of creating and licensing software in the field of
 computational chemistry and represents and warrants to the
 licensee that it is not a competitor of Gaussian, Inc. and that
 it will not use this program in any manner prohibited above.
 ---------------------------------------------------------------
  

 Cite this work as:
 Gaussian 16, Revision C.02,
 M. J. Frisch, G. W. Trucks, H. B. Schlegel, G. E. Scuseria, 
 M. A. Robb, J. R. Cheeseman, G. Scalmani, V. Barone, 
 G. A. Petersson, H. Nakatsuji, X. Li, M. Caricato, A. V. Marenich, 
 J. Bloino, B. G. Janesko, R. Gomperts, B. Mennucci, H. P. Hratchian, 
 J. V. Ortiz, A. F. Izmaylov, J. L. Sonnenberg, D. Williams-Young, 
 F. Ding, F. Lipparini, F. Egidi, J. Goings, B. Peng, A. Petrone, 
 T. Henderson, D. Ranasinghe, V. G. Zakrzewski, J. Gao, N. Rega, 
 G. Zheng, W. Liang, M. Hada, M. Ehara, K. Toyota, R. Fukuda, 
 J. Hasegawa, M. Ishida, T. Nakajima, Y. Honda, O. Kitao, H. Nakai, 
 T. Vreven, K. Throssell, J. A. Montgomery, Jr., J. E. Peralta, 
 F. Ogliaro, M. J. Bearpark, J. J. Heyd, E. N. Brothers, K. N. Kudin, 
 V. N. Staroverov, T. A. Keith, R. Kobayashi, J. Normand, 
 K. Raghavachari, A. P. Rendell, J. C. Burant, S. S. Iyengar, 
 J. Tomasi, M. Cossi, J. M. Millam, M. Klene, C. Adamo, R. Cammi, 
 J. W. Ochterski, R. L. Martin, K. Morokuma, O. Farkas, 
 J. B. Foresman, and D. J. Fox, Gaussian, Inc., Wallingford CT, 2019.
 
 ******************************************
 Gaussian 16:  ES64L-G16RevC.02  7-Dec-2021
                13-Nov-2024 
 ******************************************
 %mem=16GB
 %CPU=0-71
 SetSPE:  set environment variable "OMP_PROC_BIND" = "true"
 SetSPE:  set environment variable "OMP_PLACES" = "{0},{1},{2},{3},{4},{5},{6},{7},{8},{9},{10},{11},{12},{13},{14},{15},{16},{17},{18},{19},{20},{21},{22},{23},{24},{25},{26},{27},{28},{29},{30},{31},{32},{33},{34},{35},{36},{37},{38},{39},{40},{41},{42},{43},{44},{45},{46},{47},{48},{49},{50},{51},{52},{53},{54},{55},{56},{57},{58},{59},{60},{61},{62},{63},{64},{65},{66},{67},{68},{69},{70},{71}"
 Will use up to   72 processors via shared memory.
 %gpucpu=0,1,2,3=0,1,2,3
 Will use    4 GPUs:
 Thread  CPU   GPU
      0    0     0
      1    1     1
      2    2     2
      3    3     3
      4    4    -1
      5    5    -1
      6    6    -1
      7    7    -1
      8    8    -1
      9    9    -1
     10   10    -1
     11   11    -1
     12   12    -1
     13   13    -1
     14   14    -1
     15   15    -1
     16   16    -1
     17   17    -1
     18   18    -1
     19   19    -1
     20   20    -1
     21   21    -1
     22   22    -1
     23   23    -1
     24   24    -1
     25   25    -1
     26   26    -1
     27   27    -1
     28   28    -1
     29   29    -1
     30   30    -1
     31   31    -1
     32   32    -1
     33   33    -1
     34   34    -1
     35   35    -1
     36   36    -1
     37   37    -1
     38   38    -1
     39   39    -1
     40   40    -1
     41   41    -1
     42   42    -1
     43   43    -1
     44   44    -1
     45   45    -1
     46   46    -1
     47   47    -1
     48   48    -1
     49   49    -1
     50   50    -1
     51   51    -1
     52   52    -1
     53   53    -1
     54   54    -1
     55   55    -1
     56   56    -1
     57   57    -1
     58   58    -1
     59   59    -1
     60   60    -1
     61   61    -1
     62   62    -1
     63   63    -1
     64   64    -1
     65   65    -1
     66   66    -1
     67   67    -1
     68   68    -1
     69   69    -1
     70   70    -1
     71   71    -1
 SetGPE:  set environment variable "OMP_PROC_BIND" = "true"
 SetGPE:  set environment variable "OMP_PLACES" = "{0},{1},{2},{3},{4},{5},{6},{7},{8},{9},{10},{11},{12},{13},{14},{15},{16},{17},{18},{19},{20},{21},{22},{23},{24},{25},{26},{27},{28},{29},{30},{31},{32},{33},{34},{35},{36},{37},{38},{39},{40},{41},{42},{43},{44},{45},{46},{47},{48},{49},{50},{51},{52},{53},{54},{55},{56},{57},{58},{59},{60},{61},{62},{63},{64},{65},{66},{67},{68},{69},{70},{71}"
 %oldchk=6qq1_III_Dre.chk
 %chk=6qq1_III_Hn.chk
 Properties for Device   0
 Minimum vector length:                              32
 Maximum vector length:                            1024
 Number of SMPs:                                    108
 Maximum number of threads per SMP:                2048
 Number of ASync Engines:                             5
 Memory:                                           9207742464
 Properties for Device   1
 Minimum vector length:                              32
 Maximum vector length:                            1024
 Number of SMPs:                                    108
 Maximum number of threads per SMP:                2048
 Number of ASync Engines:                             5
 Memory:                                           9207742464
 Properties for Device   2
 Minimum vector length:                              32
 Maximum vector length:                            1024
 Number of SMPs:                                    108
 Maximum number of threads per SMP:                2048
 Number of ASync Engines:                             5
 Memory:                                           9207742464
 Properties for Device   3
 Minimum vector length:                              32
 Maximum vector length:                            1024
 Number of SMPs:                                    108
 Maximum number of threads per SMP:                2048
 Number of ASync Engines:                             5
 Memory:                                           9207742464
   8286968217 words of memory will be used on each GPU.
 Copying data from "6qq1_III_Dre.chk" to current chk file "6qq1_III_Hn.chk"
 IOpt=  2 FromEx=T IUOpen= 4 IOptOp= 5 NList=   0 IFRang= 0 IUIn= 4 IUOut= 2.
 --------------------------------------------------------------
 # apfd/def2TZVP guess=read scf=maxcycle=999 geom=check pop=nbo
 --------------------------------------------------------------
 1/29=2,38=1,172=1/1;
 2/12=2,40=1/2;
 3/5=44,7=101,11=2,14=-4,25=1,30=1,74=-44,116=-2/1,2,3;
 4/5=1/1;
 5/5=2,7=999,38=6/2;
 6/7=2,8=2,9=2,10=2,28=1,40=1/1,7;
 99/5=1,9=1/99;
 ----------
 6qq1_III_H
 ----------
 Structure from the checkpoint file:  "6qq1_III_Hn.chk"
 Charge =  1 Multiplicity = 6
 Z-Matrix found in chk file.
 Fe,0,-8.6069686385,-28.4680709469,-44.6660434901
 N,0,-8.5043162284,-29.4509621744,-46.43335435
 N,0,-10.5889666483,-28.6106097335,-44.7691166122
 N,0,-8.703398905,-27.4835234726,-42.9646290471
 N,0,-6.6126109426,-28.3255348825,-44.6825659674
 C,0,-7.3839788475,-29.9070285551,-47.0523844834
 C,0,-7.7184251431,-30.6073965807,-48.2731799959
 C,0,-9.0726594834,-30.5640548129,-48.3763501332
 C,0,-9.5454580931,-29.849842957,-47.2106270266
 C,0,-11.3645537616,-29.0299124213,-45.7986718748
 C,0,-12.7666221618,-28.9208160934,-45.4658181562
 C,0,-12.8189427255,-28.4569922314,-44.1884046247
 C,0,-11.447222214,-28.2651400689,-43.7705272419
 C,0,-9.8119226891,-27.3176014867,-42.2030890417
 C,0,-9.480054118,-26.6218718666,-40.9751588881
 C,0,-8.139399633,-26.3440740032,-41.0449072436
 C,0,-7.6752712808,-26.9052354152,-42.2879178932
 C,0,-5.862138947,-27.6394595044,-43.7789898452
 C,0,-4.4497343836,-27.7818870943,-44.0795845575
 C,0,-4.378873948,-28.6100947465,-45.1691437593
 C,0,-5.7365334118,-28.927860938,-45.5270560605
 C,0,-6.0891733335,-29.6786013504,-46.6356082852
 H,0,-5.2918815009,-30.0920679618,-47.2339399468
 C,0,-10.8825350948,-29.6049262275,-46.9588378572
 H,0,-11.6007673257,-29.9320062481,-47.6948757792
 C,0,-11.0918632045,-27.7008356559,-42.5587725755
 H,0,-11.8865772941,-27.4886590854,-41.859846182
 C,0,-6.3512666963,-26.9313933838,-42.6954292173
 H,0,-5.6351417417,-26.4042513615,-42.0829589582
 C,0,-6.7185378922,-31.2280247617,-49.1873698165
 H,0,-6.1278867521,-31.9761340081,-48.6579594234
 H,0,-6.0356732858,-30.4735200432,-49.5783037351
 H,0,-7.210174457,-31.7119818962,-50.0277949683
 C,0,-9.957297825,-31.1240105456,-49.4368433037
 H,0,-10.5526415824,-30.3341649235,-49.8942251428
 H,0,-10.641292928,-31.8625733076,-49.0176701495
 H,0,-9.3702741589,-31.6046505308,-50.2156755121
 C,0,-3.168695396,-29.1540598731,-45.8444976811
 H,0,-2.9283900009,-28.5767894469,-46.7391857618
 H,0,-3.3287524317,-30.1887250501,-46.1442323685
 H,0,-2.3146374882,-29.1141754019,-45.1713481084
 C,0,-3.3752256096,-27.1826877987,-43.3202197245
 H,0,-3.5642695452,-27.0516959863,-42.2609279914
 C,0,-2.2073980493,-26.7858981561,-43.8161383331
 H,0,-1.9804582123,-26.8453952201,-44.8661293569
 H,0,-1.4431863972,-26.3610639558,-43.1865428682
 C,0,-7.2778129926,-25.6927126445,-40.0191076376
 H,0,-7.1064307118,-24.6421556954,-40.2622442923
 H,0,-6.3083775355,-26.1853540066,-39.95771703
 H,0,-7.7568022752,-25.7449974026,-39.0432101698
 C,0,-10.4273710234,-26.3057413308,-39.9288688745
 H,0,-11.2132063705,-27.0365656957,-39.7745597752
 C,0,-10.4079070799,-25.2100352722,-39.177125601
 H,0,-9.6800103063,-24.4303886992,-39.3203859542
 H,0,-11.1414226754,-25.0416708827,-38.405980048
 C,0,-14.0066322705,-28.1751388682,-43.3334070719
 H,0,-14.0345378214,-27.1244304893,-43.0464713599
 H,0,-13.9715499892,-28.7728225978,-42.4230562752
 H,0,-14.9275085431,-28.4112162219,-43.860034004
 C,0,-13.8819308469,-29.276717116,-46.3877383783
 H,0,-14.8373914903,-28.9634515835,-45.9750331188
 H,0,-13.919144592,-30.3550699735,-46.5506037917
 H,0,-13.7484069618,-28.7934314722,-47.3547058536
 C,0,-7.390155966,-32.5851466828,-41.1226919955
 H,0,-6.8466782386,-33.4463127996,-41.5112219487
 H,0,-8.1852289628,-32.9492128214,-40.4719554697
 H,0,-6.7082870819,-31.9799984324,-40.5335969116
 N,0,-8.8418320431,-32.273602357,-43.1390743302
 H,0,-9.1985397415,-33.2149946159,-43.1531084451
 C,0,-7.9484072133,-31.7693636615,-42.2304951671
 C,0,-9.151396512,-31.281337969,-44.0039052838
 H,0,-9.8285369015,-31.3868521249,-44.8260322812
 N,0,-8.5078901252,-30.1813999344,-43.6980757109
 C,0,-7.7558155566,-30.4683113681,-42.5979447625
 H,0,-7.1301337645,-29.7249672423,-42.148909317
 C,0,-10.8787248799,-24.9619058956,-44.9573130026
 H,0,-11.2100556504,-24.1131779488,-44.3617680515
 H,0,-11.272354048,-25.8722434203,-44.5146724473
 H,0,-11.2792755415,-24.8650241716,-45.9637054342
 C,0,-9.3638973205,-25.0122781034,-44.9954088263
 H,0,-8.9479545385,-25.1160391106,-43.9942689714
 H,0,-8.9576848819,-24.1207631624,-45.4735878915
 S,0,-8.8047927128,-26.4482318489,-46.0001865972
 C,0,-7.128152601,-25.8506554959,-46.3759859635
 H,0,-6.5914712189,-25.644259099,-45.4552595486
 H,0,-7.2011496968,-24.957927207,-46.9918178014
 H,0,-6.6280909101,-26.6428324091,-46.9229112669
 Recover connectivity data from disk.
 Stoichiometry    C37H42FeN6S(1+,6)
 Framework group  C1[X(C37H42FeN6S)]
 Deg. of freedom   255
 Full point group                 C1      NOp   1
 Largest Abelian subgroup         C1      NOp   1
 Largest concise Abelian subgroup C1      NOp   1
                         Standard orientation:                         
 ---------------------------------------------------------------------
 Center     Atomic      Atomic             Coordinates (Angstroms)
 Number     Number       Type             X           Y           Z
 ---------------------------------------------------------------------
      1         26           0       -0.005342    0.216995   -0.089586
      2          7           0       -0.969150    1.996036   -0.167580
      3          7           0        1.713643    1.217546   -0.032615
      4          7           0        0.928779   -1.514787   -0.047212
      5          7           0       -1.779831   -0.696826   -0.208629
      6          6           0       -2.309801    2.204551   -0.093231
      7          6           0       -2.614488    3.618214   -0.131106
      8          6           0       -1.421207    4.260775   -0.229434
      9          6           0       -0.405468    3.230838   -0.236586
     10          6           0        1.939657    2.541721   -0.213757
     11          6           0        3.352233    2.838308   -0.141967
     12          6           0        3.974992    1.659142    0.125230
     13          6           0        2.934273    0.656032    0.186243
     14          6           0        2.247918   -1.701426    0.200450
     15          6           0        2.556558   -3.117286    0.245980
     16          6           0        1.381911   -3.772153   -0.019996
     17          6           0        0.378936   -2.751077   -0.183816
     18          6           0       -1.971331   -2.038860   -0.321015
     19          6           0       -3.388589   -2.349032   -0.347506
     20          6           0       -4.038412   -1.150826   -0.205664
     21          6           0       -3.015788   -0.140627   -0.127859
     22          6           0       -3.273492    1.218206   -0.064476
     23          1           0       -4.305607    1.529929   -0.017601
     24          6           0        0.948219    3.497845   -0.322592
     25          1           0        1.251572    4.527942   -0.429683
     26          6           0        3.186864   -0.695597    0.335788
     27          1           0        4.209765   -0.991054    0.513177
     28          6           0       -0.972675   -2.995624   -0.365703
     29          1           0       -1.276027   -4.023929   -0.493761
     30          6           0       -3.992033    4.183331   -0.070214
     31          1           0       -4.492939    3.873670    0.847400
     32          1           0       -4.587558    3.834610   -0.914107
     33          1           0       -3.966307    5.270021   -0.096229
     34          6           0       -1.139141    5.722003   -0.307100
     35          1           0       -0.598127    5.958586   -1.222972
     36          1           0       -0.528624    6.041966    0.537840
     37          1           0       -2.063200    6.294909   -0.297820
     38          6           0       -5.500318   -0.896272   -0.084973
     39          1           0       -5.922212   -0.583059   -1.041716
     40          1           0       -5.694196   -0.109262    0.642363
     41          1           0       -6.012610   -1.801223    0.235584
     42          6           0       -3.945043   -3.678778   -0.458764
     43          1           0       -3.352869   -4.474371   -0.021321
     44          6           0       -5.095652   -3.987185   -1.048833
     45          1           0       -5.702878   -3.248755   -1.542312
     46          1           0       -5.458507   -5.001206   -1.080310
     47          6           0        1.127848   -5.239796   -0.038582
     48          1           0        1.113678   -5.621312   -1.061520
     49          1           0        0.167665   -5.472762    0.419722
     50          1           0        1.910498   -5.759933    0.510469
     51          6           0        3.868803   -3.663318    0.514185
     52          1           0        4.474694   -3.099244    1.214306
     53          6           0        4.370572   -4.766415   -0.031226
     54          1           0        3.831779   -5.337021   -0.767647
     55          1           0        5.355412   -5.123196    0.221469
     56          6           0        5.425678    1.380076    0.321956
     57          1           0        5.787944    0.676358   -0.426804
     58          1           0        5.600396    0.945752    1.305842
     59          1           0        6.009528    2.293446    0.244779
     60          6           0        3.938637    4.196164   -0.323277
     61          1           0        5.022643    4.142673   -0.381896
     62          1           0        3.675074    4.845465    0.513203
     63          1           0        3.565662    4.655293   -1.237886
     64          6           0       -0.693231   -1.095598    5.276064
     65          1           0       -1.516798   -0.625124    5.813020
     66          1           0        0.185612   -1.082397    5.920738
     67          1           0       -0.957214   -2.127891    5.069018
     68          7           0       -0.062633    0.935267    3.953887
     69          1           0        0.047368    1.543177    4.748872
     70          6           0       -0.421195   -0.386573    4.000268
     71          6           0        0.113843    1.266985    2.654975
     72          1           0        0.396834    2.241282    2.314083
     73          7           0       -0.111940    0.236213    1.877784
     74          6           0       -0.445610   -0.799527    2.698838
     75          1           0       -0.680491   -1.764890    2.300623
     76          6           0        2.706379   -0.231273   -3.249417
     77          1           0        3.412549   -0.946651   -3.666972
     78          1           0        3.025868    0.026408   -2.243875
     79          1           0        2.715885    0.670340   -3.857410
     80          6           0        1.314252   -0.830991   -3.217576
     81          1           0        1.287399   -1.731954   -2.606348
     82          1           0        0.966097   -1.057874   -4.225433
     83         16           0        0.121863    0.377813   -2.509664
     84          6           0       -1.399259   -0.336878   -3.205975
     85          1           0       -1.496791   -1.374058   -2.900837
     86          1           0       -1.365769   -0.251879   -4.289116
     87          1           0       -2.227242    0.241731   -2.810514
 ---------------------------------------------------------------------
 Rotational constants (GHZ):           0.0830084           0.0812349           0.0582608
 Standard basis: def2TZVP (5D, 7F)
 There are  1894 symmetry adapted cartesian basis functions of A   symmetry.
 There are  1667 symmetry adapted basis functions of A   symmetry.
  1667 basis functions,  2700 primitive gaussians,  1894 cartesian basis functions
   176 alpha electrons      171 beta electrons
       nuclear repulsion energy      7152.1491121354 Hartrees.
 NAtoms=   87 NActive=   87 NUniq=   87 SFac= 1.00D+00 NAtFMM=   60 NAOKFM=T Big=T
 Integral buffers will be    131072 words long.
 Raffenetti 2 integral format.
 Two-electron integral symmetry is turned on.
 R6APFD:  NTU= -4 IXU= 1 FactS= 1.050
 Nuclear repulsion after empirical dispersion term =     7151.9657539597 Hartrees.
 One-electron integrals computed using PRISM.
   1 Symmetry operations used in ECPInt.
 ECPInt:  NShTT=  224115 NPrTT=  692067 LenC2=  178324 LenP2D=  363030.
 LDataN:  DoStor=T MaxTD1= 6 Len=  172
 Number of processors reduced to  21 by ecpmxn.
 NBasis=  1667 RedAO= T EigKep=  3.36D-06  NBF=  1667
 NBsUse=  1667 1.00D-06 EigRej= -1.00D+00 NBFU=  1667
 Initial guess from the checkpoint file:  "6qq1_III_Hn.chk"
 B after Tr=    -0.000000   -0.000000    0.000000
         Rot=    1.000000   -0.000000    0.000000   -0.000000 Ang=   0.00 deg.
 Initial guess <Sx>= 0.0000 <Sy>= 0.0000 <Sz>= 2.5000 <S**2>= 8.7594 S= 2.5016
 Requested convergence on RMS density matrix=1.00D-08 within 999 cycles.
 Requested convergence on MAX density matrix=1.00D-06.
 Requested convergence on             energy=1.00D-06.
 No special actions if energy rises.
 SCF Done:  E(UAPFD) =  -3424.64734409     A.U. after   15 cycles
            NFock= 15  Conv=0.64D-08     -V/T= 2.0030
 <Sx>= 0.0000 <Sy>= 0.0000 <Sz>= 2.5000 <S**2>= 8.7600 S= 2.5017
 <L.S>=  0.00000000000    
 Annihilation of the first spin contaminant:
 S**2 before annihilation     8.7600,   after     8.7500

 **********************************************************************

            Population analysis using the SCF Density.

 **********************************************************************

 Orbital symmetries:
 Alpha Orbitals:
       Occupied  (A) (A) (A) (A) (A) (A) (A) (A) (A) (A) (A) (A)
                 (A) (A) (A) (A) (A) (A) (A) (A) (A) (A) (A) (A)
                 (A) (A) (A) (A) (A) (A) (A) (A) (A) (A) (A) (A)
                 (A) (A) (A) (A) (A) (A) (A) (A) (A) (A) (A) (A)
                 (A) (A) (A) (A) (A) (A) (A) (A) (A) (A) (A) (A)
                 (A) (A) (A) (A) (A) (A) (A) (A) (A) (A) (A) (A)
                 (A) (A) (A) (A) (A) (A) (A) (A) (A) (A) (A) (A)
                 (A) (A) (A) (A) (A) (A) (A) (A) (A) (A) (A) (A)
                 (A) (A) (A) (A) (A) (A) (A) (A) (A) (A) (A) (A)
                 (A) (A) (A) (A) (A) (A) (A) (A) (A) (A) (A) (A)
                 (A) (A) (A) (A) (A) (A) (A) (A) (A) (A) (A) (A)
                 (A) (A) (A) (A) (A) (A) (A) (A) (A) (A) (A) (A)
                 (A) (A) (A) (A) (A) (A) (A) (A) (A) (A) (A) (A)
                 (A) (A) (A) (A) (A) (A) (A) (A) (A) (A) (A) (A)
                 (A) (A) (A) (A) (A) (A) (A) (A)
       Virtual   (A) (A) (A) (A) (A) (A) (A) (A) (A) (A) (A) (A)
                 (A) (A) (A) (A) (A) (A) (A) (A) (A) (A) (A) (A)
                 (A) (A) (A) (A) (A) (A) (A) (A) (A) (A) (A) (A)
                 (A) (A) (A) (A) (A) (A) (A) (A) (A) (A) (A) (A)
                 (A) (A) (A) (A) (A) (A) (A) (A) (A) (A) (A) (A)
                 (A) (A) (A) (A) (A) (A) (A) (A) (A) (A) (A) (A)
                 (A) (A) (A) (A) (A) (A) (A) (A) (A) (A) (A) (A)
                 (A) (A) (A) (A) (A) (A) (A) (A) (A) (A) (A) (A)
                 (A) (A) (A) (A) (A) (A) (A) (A) (A) (A) (A) (A)
                 (A) (A) (A) (A) (A) (A) (A) (A) (A) (A) (A) (A)
                 (A) (A) (A) (A) (A) (A) (A) (A) (A) (A) (A) (A)
                 (A) (A) (A) (A) (A) (A) (A) (A) (A) (A) (A) (A)
                 (A) (A) (A) (A) (A) (A) (A) (A) (A) (A) (A) (A)
                 (A) (A) (A) (A) (A) (A) (A) (A) (A) (A) (A) (A)
                 (A) (A) (A) (A) (A) (A) (A) (A) (A) (A) (A) (A)
                 (A) (A) (A) (A) (A) (A) (A) (A) (A) (A) (A) (A)
                 (A) (A) (A) (A) (A) (A) (A) (A) (A) (A) (A) (A)
                 (A) (A) (A) (A) (A) (A) (A) (A) (A) (A) (A) (A)
                 (A) (A) (A) (A) (A) (A) (A) (A) (A) (A) (A) (A)
                 (A) (A) (A) (A) (A) (A) (A) (A) (A) (A) (A) (A)
                 (A) (A) (A) (A) (A) (A) (A) (A) (A) (A) (A) (A)
                 (A) (A) (A) (A) (A) (A) (A) (A) (A) (A) (A) (A)
                 (A) (A) (A) (A) (A) (A) (A) (A) (A) (A) (A) (A)
                 (A) (A) (A) (A) (A) (A) (A) (A) (A) (A) (A) (A)
                 (A) (A) (A) (A) (A) (A) (A) (A) (A) (A) (A) (A)
                 (A) (A) (A) (A) (A) (A) (A) (A) (A) (A) (A) (A)
                 (A) (A) (A) (A) (A) (A) (A) (A) (A) (A) (A) (A)
                 (A) (A) (A) (A) (A) (A) (A) (A) (A) (A) (A) (A)
                 (A) (A) (A) (A) (A) (A) (A) (A) (A) (A) (A) (A)
                 (A) (A) (A) (A) (A) (A) (A) (A) (A) (A) (A) (A)
                 (A) (A) (A) (A) (A) (A) (A) (A) (A) (A) (A) (A)
                 (A) (A) (A) (A) (A) (A) (A) (A) (A) (A) (A) (A)
                 (A) (A) (A) (A) (A) (A) (A) (A) (A) (A) (A) (A)
                 (A) (A) (A) (A) (A) (A) (A) (A) (A) (A) (A) (A)
                 (A) (A) (A) (A) (A) (A) (A) (A) (A) (A) (A) (A)
                 (A) (A) (A) (A) (A) (A) (A) (A) (A) (A) (A) (A)
                 (A) (A) (A) (A) (A) (A) (A) (A) (A) (A) (A) (A)
                 (A) (A) (A) (A) (A) (A) (A) (A) (A) (A) (A) (A)
                 (A) (A) (A) (A) (A) (A) (A) (A) (A) (A) (A) (A)
                 (A) (A) (A) (A) (A) (A) (A) (A) (A) (A) (A) (A)
                 (A) (A) (A) (A) (A) (A) (A) (A) (A) (A) (A) (A)
                 (A) (A) (A) (A) (A) (A) (A) (A) (A) (A) (A) (A)
                 (A) (A) (A) (A) (A) (A) (A) (A) (A) (A) (A) (A)
                 (A) (A) (A) (A) (A) (A) (A) (A) (A) (A) (A) (A)
                 (A) (A) (A) (A) (A) (A) (A) (A) (A) (A) (A) (A)
                 (A) (A) (A) (A) (A) (A) (A) (A) (A) (A) (A) (A)
                 (A) (A) (A) (A) (A) (A) (A) (A) (A) (A) (A) (A)
                 (A) (A) (A) (A) (A) (A) (A) (A) (A) (A) (A) (A)
                 (A) (A) (A) (A) (A) (A) (A) (A) (A) (A) (A) (A)
                 (A) (A) (A) (A) (A) (A) (A) (A) (A) (A) (A) (A)
                 (A) (A) (A) (A) (A) (A) (A) (A) (A) (A) (A) (A)
                 (A) (A) (A) (A) (A) (A) (A) (A) (A) (A) (A) (A)
                 (A) (A) (A) (A) (A) (A) (A) (A) (A) (A) (A) (A)
                 (A) (A) (A) (A) (A) (A) (A) (A) (A) (A) (A) (A)
                 (A) (A) (A) (A) (A) (A) (A) (A) (A) (A) (A) (A)
                 (A) (A) (A) (A) (A) (A) (A) (A) (A) (A) (A) (A)
                 (A) (A) (A) (A) (A) (A) (A) (A) (A) (A) (A) (A)
                 (A) (A) (A) (A) (A) (A) (A) (A) (A) (A) (A) (A)
                 (A) (A) (A) (A) (A) (A) (A) (A) (A) (A) (A) (A)
                 (A) (A) (A) (A) (A) (A) (A) (A) (A) (A) (A) (A)
                 (A) (A) (A) (A) (A) (A) (A) (A) (A) (A) (A) (A)
                 (A) (A) (A) (A) (A) (A) (A) (A) (A) (A) (A) (A)
                 (A) (A) (A) (A) (A) (A) (A) (A) (A) (A) (A) (A)
                 (A) (A) (A) (A) (A) (A) (A) (A) (A) (A) (A) (A)
                 (A) (A) (A) (A) (A) (A) (A) (A) (A) (A) (A) (A)
                 (A) (A) (A) (A) (A) (A) (A) (A) (A) (A) (A) (A)
                 (A) (A) (A) (A) (A) (A) (A) (A) (A) (A) (A) (A)
                 (A) (A) (A) (A) (A) (A) (A) (A) (A) (A) (A) (A)
                 (A) (A) (A) (A) (A) (A) (A) (A) (A) (A) (A) (A)
                 (A) (A) (A) (A) (A) (A) (A) (A) (A) (A) (A) (A)
                 (A) (A) (A) (A) (A) (A) (A) (A) (A) (A) (A) (A)
                 (A) (A) (A) (A) (A) (A) (A) (A) (A) (A) (A) (A)
                 (A) (A) (A) (A) (A) (A) (A) (A) (A) (A) (A) (A)
                 (A) (A) (A) (A) (A) (A) (A) (A) (A) (A) (A) (A)
                 (A) (A) (A) (A) (A) (A) (A) (A) (A) (A) (A) (A)
                 (A) (A) (A) (A) (A) (A) (A) (A) (A) (A) (A) (A)
                 (A) (A) (A) (A) (A) (A) (A) (A) (A) (A) (A) (A)
                 (A) (A) (A) (A) (A) (A) (A) (A) (A) (A) (A) (A)
                 (A) (A) (A) (A) (A) (A) (A) (A) (A) (A) (A) (A)
                 (A) (A) (A) (A) (A) (A) (A) (A) (A) (A) (A) (A)
                 (A) (A) (A) (A) (A) (A) (A) (A) (A) (A) (A) (A)
                 (A) (A) (A) (A) (A) (A) (A) (A) (A) (A) (A) (A)
                 (A) (A) (A) (A) (A) (A) (A) (A) (A) (A) (A) (A)
                 (A) (A) (A) (A) (A) (A) (A) (A) (A) (A) (A) (A)
                 (A) (A) (A) (A) (A) (A) (A) (A) (A) (A) (A) (A)
                 (A) (A) (A) (A) (A) (A) (A) (A) (A) (A) (A) (A)
                 (A) (A) (A) (A) (A) (A) (A) (A) (A) (A) (A) (A)
                 (A) (A) (A) (A) (A) (A) (A) (A) (A) (A) (A) (A)
                 (A) (A) (A) (A) (A) (A) (A) (A) (A) (A) (A) (A)
                 (A) (A) (A) (A) (A) (A) (A) (A) (A) (A) (A) (A)
                 (A) (A) (A) (A) (A) (A) (A) (A) (A) (A) (A) (A)
                 (A) (A) (A) (A) (A) (A) (A) (A) (A) (A) (A) (A)
                 (A) (A) (A) (A) (A) (A) (A) (A) (A) (A) (A) (A)
                 (A) (A) (A) (A) (A) (A) (A) (A) (A) (A) (A) (A)
                 (A) (A) (A) (A) (A) (A) (A) (A) (A) (A) (A) (A)
                 (A) (A) (A) (A) (A) (A) (A) (A) (A) (A) (A) (A)
                 (A) (A) (A) (A) (A) (A) (A) (A) (A) (A) (A) (A)
                 (A) (A) (A) (A) (A) (A) (A) (A) (A) (A) (A) (A)
                 (A) (A) (A) (A) (A) (A) (A) (A) (A) (A) (A) (A)
                 (A) (A) (A) (A) (A) (A) (A) (A) (A) (A) (A) (A)
                 (A) (A) (A) (A) (A) (A) (A) (A) (A) (A) (A) (A)
                 (A) (A) (A) (A) (A) (A) (A) (A) (A) (A) (A) (A)
                 (A) (A) (A) (A) (A) (A) (A) (A) (A) (A) (A) (A)
                 (A) (A) (A) (A) (A) (A) (A) (A) (A) (A) (A) (A)
                 (A) (A) (A) (A) (A) (A) (A) (A) (A) (A) (A) (A)
                 (A) (A) (A) (A) (A) (A) (A) (A) (A) (A) (A) (A)
                 (A) (A) (A) (A) (A) (A) (A) (A) (A) (A) (A) (A)
                 (A) (A) (A) (A) (A) (A) (A) (A) (A) (A) (A) (A)
                 (A) (A) (A) (A) (A) (A) (A) (A) (A) (A) (A) (A)
                 (A) (A) (A) (A) (A) (A) (A) (A) (A) (A) (A) (A)
                 (A) (A) (A) (A) (A) (A) (A) (A) (A) (A) (A) (A)
                 (A) (A) (A) (A) (A) (A) (A) (A) (A) (A) (A) (A)
                 (A) (A) (A) (A) (A) (A) (A) (A) (A) (A) (A) (A)
                 (A) (A) (A) (A) (A) (A) (A) (A) (A) (A) (A) (A)
                 (A) (A) (A) (A) (A) (A) (A) (A) (A) (A) (A) (A)
                 (A) (A) (A) (A) (A) (A) (A) (A) (A) (A) (A) (A)
                 (A) (A) (A) (A) (A) (A) (A) (A) (A) (A) (A) (A)
                 (A) (A) (A) (A) (A) (A) (A) (A) (A) (A) (A) (A)
                 (A) (A) (A) (A) (A) (A) (A) (A) (A) (A) (A) (A)
                 (A) (A) (A) (A) (A) (A) (A) (A) (A) (A) (A) (A)
                 (A) (A) (A) (A) (A) (A) (A) (A) (A) (A) (A) (A)
                 (A) (A) (A) (A) (A) (A) (A) (A) (A) (A) (A) (A)
                 (A) (A) (A) (A) (A) (A) (A) (A) (A) (A) (A) (A)
                 (A) (A) (A) (A) (A) (A) (A) (A) (A) (A) (A) (A)
                 (A) (A) (A)
 Beta  Orbitals:
       Occupied  (A) (A) (A) (A) (A) (A) (A) (A) (A) (A) (A) (A)
                 (A) (A) (A) (A) (A) (A) (A) (A) (A) (A) (A) (A)
                 (A) (A) (A) (A) (A) (A) (A) (A) (A) (A) (A) (A)
                 (A) (A) (A) (A) (A) (A) (A) (A) (A) (A) (A) (A)
                 (A) (A) (A) (A) (A) (A) (A) (A) (A) (A) (A) (A)
                 (A) (A) (A) (A) (A) (A) (A) (A) (A) (A) (A) (A)
                 (A) (A) (A) (A) (A) (A) (A) (A) (A) (A) (A) (A)
                 (A) (A) (A) (A) (A) (A) (A) (A) (A) (A) (A) (A)
                 (A) (A) (A) (A) (A) (A) (A) (A) (A) (A) (A) (A)
                 (A) (A) (A) (A) (A) (A) (A) (A) (A) (A) (A) (A)
                 (A) (A) (A) (A) (A) (A) (A) (A) (A) (A) (A) (A)
                 (A) (A) (A) (A) (A) (A) (A) (A) (A) (A) (A) (A)
                 (A) (A) (A) (A) (A) (A) (A) (A) (A) (A) (A) (A)
                 (A) (A) (A) (A) (A) (A) (A) (A) (A) (A) (A) (A)
                 (A) (A) (A)
       Virtual   (A) (A) (A) (A) (A) (A) (A) (A) (A) (A) (A) (A)
                 (A) (A) (A) (A) (A) (A) (A) (A) (A) (A) (A) (A)
                 (A) (A) (A) (A) (A) (A) (A) (A) (A) (A) (A) (A)
                 (A) (A) (A) (A) (A) (A) (A) (A) (A) (A) (A) (A)
                 (A) (A) (A) (A) (A) (A) (A) (A) (A) (A) (A) (A)
                 (A) (A) (A) (A) (A) (A) (A) (A) (A) (A) (A) (A)
                 (A) (A) (A) (A) (A) (A) (A) (A) (A) (A) (A) (A)
                 (A) (A) (A) (A) (A) (A) (A) (A) (A) (A) (A) (A)
                 (A) (A) (A) (A) (A) (A) (A) (A) (A) (A) (A) (A)
                 (A) (A) (A) (A) (A) (A) (A) (A) (A) (A) (A) (A)
                 (A) (A) (A) (A) (A) (A) (A) (A) (A) (A) (A) (A)
                 (A) (A) (A) (A) (A) (A) (A) (A) (A) (A) (A) (A)
                 (A) (A) (A) (A) (A) (A) (A) (A) (A) (A) (A) (A)
                 (A) (A) (A) (A) (A) (A) (A) (A) (A) (A) (A) (A)
                 (A) (A) (A) (A) (A) (A) (A) (A) (A) (A) (A) (A)
                 (A) (A) (A) (A) (A) (A) (A) (A) (A) (A) (A) (A)
                 (A) (A) (A) (A) (A) (A) (A) (A) (A) (A) (A) (A)
                 (A) (A) (A) (A) (A) (A) (A) (A) (A) (A) (A) (A)
                 (A) (A) (A) (A) (A) (A) (A) (A) (A) (A) (A) (A)
                 (A) (A) (A) (A) (A) (A) (A) (A) (A) (A) (A) (A)
                 (A) (A) (A) (A) (A) (A) (A) (A) (A) (A) (A) (A)
                 (A) (A) (A) (A) (A) (A) (A) (A) (A) (A) (A) (A)
                 (A) (A) (A) (A) (A) (A) (A) (A) (A) (A) (A) (A)
                 (A) (A) (A) (A) (A) (A) (A) (A) (A) (A) (A) (A)
                 (A) (A) (A) (A) (A) (A) (A) (A) (A) (A) (A) (A)
                 (A) (A) (A) (A) (A) (A) (A) (A) (A) (A) (A) (A)
                 (A) (A) (A) (A) (A) (A) (A) (A) (A) (A) (A) (A)
                 (A) (A) (A) (A) (A) (A) (A) (A) (A) (A) (A) (A)
                 (A) (A) (A) (A) (A) (A) (A) (A) (A) (A) (A) (A)
                 (A) (A) (A) (A) (A) (A) (A) (A) (A) (A) (A) (A)
                 (A) (A) (A) (A) (A) (A) (A) (A) (A) (A) (A) (A)
                 (A) (A) (A) (A) (A) (A) (A) (A) (A) (A) (A) (A)
                 (A) (A) (A) (A) (A) (A) (A) (A) (A) (A) (A) (A)
                 (A) (A) (A) (A) (A) (A) (A) (A) (A) (A) (A) (A)
                 (A) (A) (A) (A) (A) (A) (A) (A) (A) (A) (A) (A)
                 (A) (A) (A) (A) (A) (A) (A) (A) (A) (A) (A) (A)
                 (A) (A) (A) (A) (A) (A) (A) (A) (A) (A) (A) (A)
                 (A) (A) (A) (A) (A) (A) (A) (A) (A) (A) (A) (A)
                 (A) (A) (A) (A) (A) (A) (A) (A) (A) (A) (A) (A)
                 (A) (A) (A) (A) (A) (A) (A) (A) (A) (A) (A) (A)
                 (A) (A) (A) (A) (A) (A) (A) (A) (A) (A) (A) (A)
                 (A) (A) (A) (A) (A) (A) (A) (A) (A) (A) (A) (A)
                 (A) (A) (A) (A) (A) (A) (A) (A) (A) (A) (A) (A)
                 (A) (A) (A) (A) (A) (A) (A) (A) (A) (A) (A) (A)
                 (A) (A) (A) (A) (A) (A) (A) (A) (A) (A) (A) (A)
                 (A) (A) (A) (A) (A) (A) (A) (A) (A) (A) (A) (A)
                 (A) (A) (A) (A) (A) (A) (A) (A) (A) (A) (A) (A)
                 (A) (A) (A) (A) (A) (A) (A) (A) (A) (A) (A) (A)
                 (A) (A) (A) (A) (A) (A) (A) (A) (A) (A) (A) (A)
                 (A) (A) (A) (A) (A) (A) (A) (A) (A) (A) (A) (A)
                 (A) (A) (A) (A) (A) (A) (A) (A) (A) (A) (A) (A)
                 (A) (A) (A) (A) (A) (A) (A) (A) (A) (A) (A) (A)
                 (A) (A) (A) (A) (A) (A) (A) (A) (A) (A) (A) (A)
                 (A) (A) (A) (A) (A) (A) (A) (A) (A) (A) (A) (A)
                 (A) (A) (A) (A) (A) (A) (A) (A) (A) (A) (A) (A)
                 (A) (A) (A) (A) (A) (A) (A) (A) (A) (A) (A) (A)
                 (A) (A) (A) (A) (A) (A) (A) (A) (A) (A) (A) (A)
                 (A) (A) (A) (A) (A) (A) (A) (A) (A) (A) (A) (A)
                 (A) (A) (A) (A) (A) (A) (A) (A) (A) (A) (A) (A)
                 (A) (A) (A) (A) (A) (A) (A) (A) (A) (A) (A) (A)
                 (A) (A) (A) (A) (A) (A) (A) (A) (A) (A) (A) (A)
                 (A) (A) (A) (A) (A) (A) (A) (A) (A) (A) (A) (A)
                 (A) (A) (A) (A) (A) (A) (A) (A) (A) (A) (A) (A)
                 (A) (A) (A) (A) (A) (A) (A) (A) (A) (A) (A) (A)
                 (A) (A) (A) (A) (A) (A) (A) (A) (A) (A) (A) (A)
                 (A) (A) (A) (A) (A) (A) (A) (A) (A) (A) (A) (A)
                 (A) (A) (A) (A) (A) (A) (A) (A) (A) (A) (A) (A)
                 (A) (A) (A) (A) (A) (A) (A) (A) (A) (A) (A) (A)
                 (A) (A) (A) (A) (A) (A) (A) (A) (A) (A) (A) (A)
                 (A) (A) (A) (A) (A) (A) (A) (A) (A) (A) (A) (A)
                 (A) (A) (A) (A) (A) (A) (A) (A) (A) (A) (A) (A)
                 (A) (A) (A) (A) (A) (A) (A) (A) (A) (A) (A) (A)
                 (A) (A) (A) (A) (A) (A) (A) (A) (A) (A) (A) (A)
                 (A) (A) (A) (A) (A) (A) (A) (A) (A) (A) (A) (A)
                 (A) (A) (A) (A) (A) (A) (A) (A) (A) (A) (A) (A)
                 (A) (A) (A) (A) (A) (A) (A) (A) (A) (A) (A) (A)
                 (A) (A) (A) (A) (A) (A) (A) (A) (A) (A) (A) (A)
                 (A) (A) (A) (A) (A) (A) (A) (A) (A) (A) (A) (A)
                 (A) (A) (A) (A) (A) (A) (A) (A) (A) (A) (A) (A)
                 (A) (A) (A) (A) (A) (A) (A) (A) (A) (A) (A) (A)
                 (A) (A) (A) (A) (A) (A) (A) (A) (A) (A) (A) (A)
                 (A) (A) (A) (A) (A) (A) (A) (A) (A) (A) (A) (A)
                 (A) (A) (A) (A) (A) (A) (A) (A) (A) (A) (A) (A)
                 (A) (A) (A) (A) (A) (A) (A) (A) (A) (A) (A) (A)
                 (A) (A) (A) (A) (A) (A) (A) (A) (A) (A) (A) (A)
                 (A) (A) (A) (A) (A) (A) (A) (A) (A) (A) (A) (A)
                 (A) (A) (A) (A) (A) (A) (A) (A) (A) (A) (A) (A)
                 (A) (A) (A) (A) (A) (A) (A) (A) (A) (A) (A) (A)
                 (A) (A) (A) (A) (A) (A) (A) (A) (A) (A) (A) (A)
                 (A) (A) (A) (A) (A) (A) (A) (A) (A) (A) (A) (A)
                 (A) (A) (A) (A) (A) (A) (A) (A) (A) (A) (A) (A)
                 (A) (A) (A) (A) (A) (A) (A) (A) (A) (A) (A) (A)
                 (A) (A) (A) (A) (A) (A) (A) (A) (A) (A) (A) (A)
                 (A) (A) (A) (A) (A) (A) (A) (A) (A) (A) (A) (A)
                 (A) (A) (A) (A) (A) (A) (A) (A) (A) (A) (A) (A)
                 (A) (A) (A) (A) (A) (A) (A) (A) (A) (A) (A) (A)
                 (A) (A) (A) (A) (A) (A) (A) (A) (A) (A) (A) (A)
                 (A) (A) (A) (A) (A) (A) (A) (A) (A) (A) (A) (A)
                 (A) (A) (A) (A) (A) (A) (A) (A) (A) (A) (A) (A)
                 (A) (A) (A) (A) (A) (A) (A) (A) (A) (A) (A) (A)
                 (A) (A) (A) (A) (A) (A) (A) (A) (A) (A) (A) (A)
                 (A) (A) (A) (A) (A) (A) (A) (A) (A) (A) (A) (A)
                 (A) (A) (A) (A) (A) (A) (A) (A) (A) (A) (A) (A)
                 (A) (A) (A) (A) (A) (A) (A) (A) (A) (A) (A) (A)
                 (A) (A) (A) (A) (A) (A) (A) (A) (A) (A) (A) (A)
                 (A) (A) (A) (A) (A) (A) (A) (A) (A) (A) (A) (A)
                 (A) (A) (A) (A) (A) (A) (A) (A) (A) (A) (A) (A)
                 (A) (A) (A) (A) (A) (A) (A) (A) (A) (A) (A) (A)
                 (A) (A) (A) (A) (A) (A) (A) (A) (A) (A) (A) (A)
                 (A) (A) (A) (A) (A) (A) (A) (A) (A) (A) (A) (A)
                 (A) (A) (A) (A) (A) (A) (A) (A) (A) (A) (A) (A)
                 (A) (A) (A) (A) (A) (A) (A) (A) (A) (A) (A) (A)
                 (A) (A) (A) (A) (A) (A) (A) (A) (A) (A) (A) (A)
                 (A) (A) (A) (A) (A) (A) (A) (A) (A) (A) (A) (A)
                 (A) (A) (A) (A) (A) (A) (A) (A) (A) (A) (A) (A)
                 (A) (A) (A) (A) (A) (A) (A) (A) (A) (A) (A) (A)
                 (A) (A) (A) (A) (A) (A) (A) (A) (A) (A) (A) (A)
                 (A) (A) (A) (A) (A) (A) (A) (A) (A) (A) (A) (A)
                 (A) (A) (A) (A) (A) (A) (A) (A) (A) (A) (A) (A)
                 (A) (A) (A) (A) (A) (A) (A) (A) (A) (A) (A) (A)
                 (A) (A) (A) (A) (A) (A) (A) (A) (A) (A) (A) (A)
                 (A) (A) (A) (A) (A) (A) (A) (A) (A) (A) (A) (A)
                 (A) (A) (A) (A) (A) (A) (A) (A) (A) (A) (A) (A)
                 (A) (A) (A) (A) (A) (A) (A) (A) (A) (A) (A) (A)
                 (A) (A) (A) (A) (A) (A) (A) (A)
 The electronic state is 6-A.
 Alpha  occ. eigenvalues -- -256.40697 -89.04720 -30.31623 -26.14571 -26.14557
 Alpha  occ. eigenvalues --  -26.14536 -14.52380 -14.47181 -14.44687 -14.44529
 Alpha  occ. eigenvalues --  -14.44488 -14.44324 -10.36863 -10.34195 -10.32739
 Alpha  occ. eigenvalues --  -10.32731 -10.32629 -10.32463 -10.32457 -10.32431
 Alpha  occ. eigenvalues --  -10.32396 -10.32300 -10.31629 -10.31431 -10.30733
 Alpha  occ. eigenvalues --  -10.29976 -10.29838 -10.29785 -10.29696 -10.29583
 Alpha  occ. eigenvalues --  -10.29576 -10.29527 -10.29497 -10.29464 -10.29418
 Alpha  occ. eigenvalues --  -10.29367 -10.29341 -10.29338 -10.28861 -10.28831
 Alpha  occ. eigenvalues --  -10.27842 -10.27833 -10.27790 -10.27789 -10.27763
 Alpha  occ. eigenvalues --  -10.27654 -10.27581 -10.27494 -10.26941  -8.07569
 Alpha  occ. eigenvalues --   -6.02115  -6.01857  -6.01406  -3.77024  -2.53673
 Alpha  occ. eigenvalues --   -2.53653  -2.53509  -1.16345  -1.09032  -1.07966
 Alpha  occ. eigenvalues --   -1.07925  -1.06913  -1.02246  -0.93538  -0.92586
 Alpha  occ. eigenvalues --   -0.92151  -0.92081  -0.91458  -0.91067  -0.90686
 Alpha  occ. eigenvalues --   -0.90659  -0.90300  -0.86819  -0.85683  -0.85220
 Alpha  occ. eigenvalues --   -0.84888  -0.84342  -0.82922  -0.81901  -0.81291
 Alpha  occ. eigenvalues --   -0.80352  -0.78646  -0.78379  -0.78179  -0.75755
 Alpha  occ. eigenvalues --   -0.75296  -0.75135  -0.75086  -0.72080  -0.70899
 Alpha  occ. eigenvalues --   -0.70269  -0.69442  -0.68927  -0.68336  -0.66768
 Alpha  occ. eigenvalues --   -0.65207  -0.64580  -0.63968  -0.63816  -0.62160
 Alpha  occ. eigenvalues --   -0.61992  -0.61589  -0.61418  -0.59574  -0.58654
 Alpha  occ. eigenvalues --   -0.58559  -0.58518  -0.58053  -0.57169  -0.56290
 Alpha  occ. eigenvalues --   -0.55967  -0.55867  -0.55590  -0.54968  -0.54282
 Alpha  occ. eigenvalues --   -0.54203  -0.54057  -0.53965  -0.53732  -0.53626
 Alpha  occ. eigenvalues --   -0.53393  -0.53365  -0.53181  -0.52924  -0.52668
 Alpha  occ. eigenvalues --   -0.52614  -0.52391  -0.52156  -0.51888  -0.51739
 Alpha  occ. eigenvalues --   -0.51533  -0.51182  -0.50683  -0.50546  -0.50397
 Alpha  occ. eigenvalues --   -0.50175  -0.49787  -0.49714  -0.49515  -0.49260
 Alpha  occ. eigenvalues --   -0.48986  -0.48788  -0.48649  -0.48322  -0.48214
 Alpha  occ. eigenvalues --   -0.47717  -0.47438  -0.47027  -0.46893  -0.46398
 Alpha  occ. eigenvalues --   -0.45852  -0.45757  -0.45317  -0.44948  -0.44408
 Alpha  occ. eigenvalues --   -0.43868  -0.43645  -0.43506  -0.43039  -0.42644
 Alpha  occ. eigenvalues --   -0.42334  -0.41142  -0.40019  -0.39547  -0.38506
 Alpha  occ. eigenvalues --   -0.37612  -0.37485  -0.34733  -0.33872  -0.33497
 Alpha  occ. eigenvalues --   -0.32732  -0.32546  -0.31896  -0.31876  -0.29656
 Alpha  occ. eigenvalues --   -0.28968
 Alpha virt. eigenvalues --   -0.17938  -0.17872  -0.12221  -0.09600  -0.09067
 Alpha virt. eigenvalues --   -0.07927  -0.07139  -0.06460  -0.05679  -0.05356
 Alpha virt. eigenvalues --   -0.04740  -0.04432  -0.03649  -0.03046  -0.02734
 Alpha virt. eigenvalues --   -0.02577  -0.02132  -0.01981  -0.01787  -0.01129
 Alpha virt. eigenvalues --   -0.00875  -0.00616  -0.00371   0.00088   0.00323
 Alpha virt. eigenvalues --    0.00503   0.01064   0.01288   0.01402   0.01831
 Alpha virt. eigenvalues --    0.02175   0.02272   0.02464   0.02907   0.03053
 Alpha virt. eigenvalues --    0.03174   0.03325   0.03465   0.03921   0.04041
 Alpha virt. eigenvalues --    0.04165   0.04263   0.04450   0.04529   0.04739
 Alpha virt. eigenvalues --    0.04918   0.04999   0.05329   0.05566   0.05761
 Alpha virt. eigenvalues --    0.05894   0.06011   0.06105   0.06345   0.06750
 Alpha virt. eigenvalues --    0.06906   0.07262   0.07531   0.07574   0.07791
 Alpha virt. eigenvalues --    0.07861   0.08032   0.08412   0.08488   0.08611
 Alpha virt. eigenvalues --    0.08767   0.09014   0.09105   0.09567   0.09734
 Alpha virt. eigenvalues --    0.09897   0.10324   0.10444   0.10783   0.11025
 Alpha virt. eigenvalues --    0.11157   0.11693   0.11827   0.12113   0.12461
 Alpha virt. eigenvalues --    0.12638   0.12941   0.13039   0.13224   0.13471
 Alpha virt. eigenvalues --    0.13612   0.13963   0.14266   0.14308   0.14704
 Alpha virt. eigenvalues --    0.15056   0.15139   0.15627   0.15871   0.15925
 Alpha virt. eigenvalues --    0.16377   0.16628   0.16743   0.17044   0.17457
 Alpha virt. eigenvalues --    0.17595   0.17713   0.17836   0.18086   0.18312
 Alpha virt. eigenvalues --    0.18704   0.19336   0.19482   0.19622   0.19752
 Alpha virt. eigenvalues --    0.20012   0.20226   0.20398   0.20700   0.20850
 Alpha virt. eigenvalues --    0.21141   0.21431   0.21588   0.21801   0.21949
 Alpha virt. eigenvalues --    0.22228   0.22643   0.22669   0.23170   0.23249
 Alpha virt. eigenvalues --    0.23758   0.23842   0.23948   0.24326   0.24458
 Alpha virt. eigenvalues --    0.25140   0.25399   0.25752   0.25906   0.26037
 Alpha virt. eigenvalues --    0.26434   0.26692   0.26884   0.27075   0.27159
 Alpha virt. eigenvalues --    0.27454   0.27872   0.28079   0.28623   0.28753
 Alpha virt. eigenvalues --    0.29034   0.29241   0.29362   0.29491   0.29822
 Alpha virt. eigenvalues --    0.29909   0.30044   0.30226   0.30722   0.30923
 Alpha virt. eigenvalues --    0.30999   0.31440   0.31632   0.31792   0.31926
 Alpha virt. eigenvalues --    0.32155   0.32296   0.32719   0.32844   0.32995
 Alpha virt. eigenvalues --    0.33265   0.33323   0.33500   0.33696   0.33866
 Alpha virt. eigenvalues --    0.33982   0.34371   0.34580   0.34907   0.35088
 Alpha virt. eigenvalues --    0.35447   0.35494   0.35622   0.35909   0.36084
 Alpha virt. eigenvalues --    0.36214   0.36420   0.36548   0.36681   0.36852
 Alpha virt. eigenvalues --    0.37041   0.37297   0.37561   0.37905   0.38048
 Alpha virt. eigenvalues --    0.38147   0.38165   0.38478   0.38678   0.38873
 Alpha virt. eigenvalues --    0.39072   0.39187   0.39550   0.39691   0.39948
 Alpha virt. eigenvalues --    0.40163   0.40408   0.40549   0.40650   0.40934
 Alpha virt. eigenvalues --    0.41010   0.41118   0.41213   0.41426   0.41623
 Alpha virt. eigenvalues --    0.41783   0.42037   0.42166   0.42404   0.42602
 Alpha virt. eigenvalues --    0.42662   0.42837   0.43129   0.43402   0.43587
 Alpha virt. eigenvalues --    0.43709   0.43810   0.44087   0.44252   0.44598
 Alpha virt. eigenvalues --    0.44883   0.45014   0.45409   0.45548   0.45713
 Alpha virt. eigenvalues --    0.45839   0.46104   0.46415   0.46534   0.46753
 Alpha virt. eigenvalues --    0.46958   0.47350   0.47923   0.48146   0.48220
 Alpha virt. eigenvalues --    0.48357   0.48425   0.48791   0.48948   0.49136
 Alpha virt. eigenvalues --    0.49661   0.49757   0.50248   0.50442   0.50681
 Alpha virt. eigenvalues --    0.50727   0.51358   0.51758   0.52203   0.52442
 Alpha virt. eigenvalues --    0.52737   0.53105   0.53301   0.53664   0.53795
 Alpha virt. eigenvalues --    0.54235   0.54487   0.54689   0.54776   0.55050
 Alpha virt. eigenvalues --    0.55356   0.55457   0.55916   0.56419   0.56588
 Alpha virt. eigenvalues --    0.56822   0.57049   0.57455   0.57747   0.58074
 Alpha virt. eigenvalues --    0.58220   0.58577   0.58702   0.59008   0.59510
 Alpha virt. eigenvalues --    0.59904   0.60019   0.60910   0.61130   0.61326
 Alpha virt. eigenvalues --    0.61521   0.61652   0.61997   0.62249   0.62487
 Alpha virt. eigenvalues --    0.62994   0.63438   0.63511   0.63832   0.64154
 Alpha virt. eigenvalues --    0.64555   0.64776   0.64992   0.65523   0.65828
 Alpha virt. eigenvalues --    0.66083   0.66543   0.66647   0.66820   0.67059
 Alpha virt. eigenvalues --    0.67219   0.67475   0.67929   0.68292   0.68756
 Alpha virt. eigenvalues --    0.68974   0.69585   0.69801   0.70140   0.70520
 Alpha virt. eigenvalues --    0.70638   0.70829   0.71497   0.71539   0.71745
 Alpha virt. eigenvalues --    0.72068   0.72545   0.72906   0.73333   0.73464
 Alpha virt. eigenvalues --    0.74146   0.74480   0.74572   0.75605   0.75871
 Alpha virt. eigenvalues --    0.75958   0.76525   0.76639   0.77158   0.77562
 Alpha virt. eigenvalues --    0.78122   0.78225   0.78615   0.79000   0.79081
 Alpha virt. eigenvalues --    0.79415   0.79915   0.79977   0.80428   0.80747
 Alpha virt. eigenvalues --    0.81052   0.81065   0.81726   0.82091   0.82154
 Alpha virt. eigenvalues --    0.82596   0.82910   0.83378   0.83558   0.84007
 Alpha virt. eigenvalues --    0.84112   0.84534   0.84988   0.85117   0.85329
 Alpha virt. eigenvalues --    0.85822   0.85993   0.86207   0.86751   0.87007
 Alpha virt. eigenvalues --    0.87264   0.87643   0.87991   0.88105   0.88375
 Alpha virt. eigenvalues --    0.88702   0.88935   0.89192   0.90161   0.90352
 Alpha virt. eigenvalues --    0.90463   0.90607   0.91203   0.91555   0.91750
 Alpha virt. eigenvalues --    0.91987   0.92442   0.92555   0.92732   0.92855
 Alpha virt. eigenvalues --    0.93318   0.93445   0.93902   0.94094   0.94635
 Alpha virt. eigenvalues --    0.95001   0.95109   0.95668   0.95969   0.96437
 Alpha virt. eigenvalues --    0.96683   0.96723   0.96970   0.97290   0.97829
 Alpha virt. eigenvalues --    0.98225   0.98513   0.98756   0.99029   0.99404
 Alpha virt. eigenvalues --    0.99779   1.00174   1.00367   1.00730   1.01274
 Alpha virt. eigenvalues --    1.01779   1.02364   1.02572   1.03260   1.03753
 Alpha virt. eigenvalues --    1.03984   1.04135   1.04612   1.04957   1.05604
 Alpha virt. eigenvalues --    1.05837   1.06428   1.06574   1.06795   1.07100
 Alpha virt. eigenvalues --    1.07254   1.07973   1.08304   1.08927   1.09348
 Alpha virt. eigenvalues --    1.09530   1.09914   1.10156   1.10370   1.10572
 Alpha virt. eigenvalues --    1.10961   1.11204   1.11634   1.11842   1.11991
 Alpha virt. eigenvalues --    1.12565   1.12794   1.13090   1.13608   1.13874
 Alpha virt. eigenvalues --    1.14576   1.14698   1.14992   1.15316   1.16011
 Alpha virt. eigenvalues --    1.16290   1.16891   1.17288   1.17578   1.17911
 Alpha virt. eigenvalues --    1.18177   1.18535   1.18625   1.18788   1.19068
 Alpha virt. eigenvalues --    1.19313   1.19650   1.20079   1.20233   1.20898
 Alpha virt. eigenvalues --    1.21672   1.22347   1.22640   1.22829   1.22993
 Alpha virt. eigenvalues --    1.23721   1.24039   1.24500   1.24650   1.25474
 Alpha virt. eigenvalues --    1.26641   1.27162   1.27381   1.27687   1.28015
 Alpha virt. eigenvalues --    1.29245   1.29353   1.29670   1.30054   1.30608
 Alpha virt. eigenvalues --    1.31099   1.31997   1.32613   1.32799   1.32954
 Alpha virt. eigenvalues --    1.33845   1.34775   1.35016   1.35258   1.35842
 Alpha virt. eigenvalues --    1.36705   1.36964   1.37217   1.37576   1.37871
 Alpha virt. eigenvalues --    1.37975   1.38157   1.38380   1.38775   1.39101
 Alpha virt. eigenvalues --    1.39762   1.39954   1.40183   1.40484   1.40714
 Alpha virt. eigenvalues --    1.40969   1.41407   1.41778   1.42208   1.42559
 Alpha virt. eigenvalues --    1.42842   1.43143   1.43360   1.43401   1.43673
 Alpha virt. eigenvalues --    1.44039   1.44558   1.44929   1.45328   1.45566
 Alpha virt. eigenvalues --    1.45802   1.46087   1.46137   1.46457   1.46656
 Alpha virt. eigenvalues --    1.46846   1.47059   1.47249   1.47405   1.48192
 Alpha virt. eigenvalues --    1.48274   1.48425   1.48618   1.48750   1.48911
 Alpha virt. eigenvalues --    1.49244   1.49575   1.49682   1.49914   1.50105
 Alpha virt. eigenvalues --    1.50350   1.50719   1.51312   1.51669   1.51789
 Alpha virt. eigenvalues --    1.52027   1.52304   1.52563   1.53026   1.53238
 Alpha virt. eigenvalues --    1.53569   1.53679   1.54083   1.54369   1.54484
 Alpha virt. eigenvalues --    1.54896   1.55370   1.55466   1.56007   1.56173
 Alpha virt. eigenvalues --    1.56487   1.56633   1.56893   1.57085   1.57513
 Alpha virt. eigenvalues --    1.57675   1.57799   1.58276   1.58689   1.58806
 Alpha virt. eigenvalues --    1.58953   1.59367   1.59667   1.60073   1.60233
 Alpha virt. eigenvalues --    1.60784   1.61054   1.61164   1.61449   1.61517
 Alpha virt. eigenvalues --    1.61989   1.62532   1.62883   1.63012   1.63398
 Alpha virt. eigenvalues --    1.63602   1.63839   1.64279   1.64650   1.64907
 Alpha virt. eigenvalues --    1.65086   1.65878   1.66040   1.66717   1.67335
 Alpha virt. eigenvalues --    1.68123   1.68501   1.68940   1.69266   1.69504
 Alpha virt. eigenvalues --    1.70182   1.70464   1.71252   1.71815   1.72086
 Alpha virt. eigenvalues --    1.72905   1.73143   1.73340   1.73771   1.73907
 Alpha virt. eigenvalues --    1.74387   1.74538   1.75414   1.75876   1.76103
 Alpha virt. eigenvalues --    1.76346   1.76803   1.77105   1.77695   1.77957
 Alpha virt. eigenvalues --    1.78038   1.78170   1.78654   1.78750   1.79166
 Alpha virt. eigenvalues --    1.80120   1.80236   1.80836   1.81009   1.81678
 Alpha virt. eigenvalues --    1.81853   1.82736   1.82859   1.83665   1.83799
 Alpha virt. eigenvalues --    1.83944   1.84681   1.85227   1.85541   1.85960
 Alpha virt. eigenvalues --    1.86081   1.86758   1.87020   1.87389   1.88112
 Alpha virt. eigenvalues --    1.88500   1.88924   1.89179   1.89378   1.89544
 Alpha virt. eigenvalues --    1.89989   1.90625   1.90802   1.91230   1.91567
 Alpha virt. eigenvalues --    1.92075   1.92496   1.92773   1.93195   1.93838
 Alpha virt. eigenvalues --    1.94276   1.95015   1.95486   1.95524   1.96120
 Alpha virt. eigenvalues --    1.96407   1.96834   1.97425   1.97783   1.97940
 Alpha virt. eigenvalues --    1.98874   1.99337   1.99673   2.00098   2.00275
 Alpha virt. eigenvalues --    2.00738   2.00931   2.01145   2.01347   2.01892
 Alpha virt. eigenvalues --    2.02634   2.02787   2.03141   2.03273   2.03428
 Alpha virt. eigenvalues --    2.04372   2.04737   2.05071   2.05249   2.05981
 Alpha virt. eigenvalues --    2.06267   2.06559   2.07088   2.07356   2.08050
 Alpha virt. eigenvalues --    2.08325   2.08642   2.09293   2.09485   2.09929
 Alpha virt. eigenvalues --    2.10315   2.10776   2.11031   2.11377   2.12032
 Alpha virt. eigenvalues --    2.12134   2.13076   2.13406   2.14031   2.14508
 Alpha virt. eigenvalues --    2.14787   2.15348   2.15916   2.16053   2.16547
 Alpha virt. eigenvalues --    2.17081   2.17460   2.17740   2.17837   2.18433
 Alpha virt. eigenvalues --    2.18941   2.19353   2.19724   2.20002   2.20135
 Alpha virt. eigenvalues --    2.20367   2.21075   2.21456   2.22102   2.22257
 Alpha virt. eigenvalues --    2.23094   2.23484   2.24002   2.24738   2.25021
 Alpha virt. eigenvalues --    2.25049   2.25885   2.26258   2.26768   2.27018
 Alpha virt. eigenvalues --    2.27130   2.27517   2.27986   2.28437   2.28531
 Alpha virt. eigenvalues --    2.29025   2.29095   2.29629   2.29760   2.30281
 Alpha virt. eigenvalues --    2.31055   2.31268   2.31530   2.31962   2.32238
 Alpha virt. eigenvalues --    2.32664   2.32998   2.34008   2.34259   2.34635
 Alpha virt. eigenvalues --    2.34872   2.34919   2.35184   2.35350   2.35841
 Alpha virt. eigenvalues --    2.36297   2.36736   2.37030   2.37340   2.37417
 Alpha virt. eigenvalues --    2.38165   2.38611   2.39128   2.39293   2.39685
 Alpha virt. eigenvalues --    2.39967   2.40332   2.40739   2.41044   2.41653
 Alpha virt. eigenvalues --    2.42257   2.42688   2.42805   2.43263   2.43610
 Alpha virt. eigenvalues --    2.44228   2.44297   2.44623   2.44808   2.45380
 Alpha virt. eigenvalues --    2.45772   2.45902   2.46333   2.46991   2.47056
 Alpha virt. eigenvalues --    2.47324   2.47833   2.48136   2.48465   2.48496
 Alpha virt. eigenvalues --    2.48795   2.49060   2.49627   2.50022   2.50302
 Alpha virt. eigenvalues --    2.50480   2.50962   2.51381   2.51752   2.51794
 Alpha virt. eigenvalues --    2.52045   2.52519   2.52646   2.52810   2.53427
 Alpha virt. eigenvalues --    2.53617   2.54055   2.54775   2.55167   2.55581
 Alpha virt. eigenvalues --    2.55805   2.56022   2.56120   2.56720   2.57151
 Alpha virt. eigenvalues --    2.57332   2.57603   2.58046   2.58540   2.58775
 Alpha virt. eigenvalues --    2.59625   2.59760   2.59821   2.60193   2.60278
 Alpha virt. eigenvalues --    2.60740   2.61059   2.61130   2.61344   2.62133
 Alpha virt. eigenvalues --    2.62385   2.62644   2.63055   2.63446   2.63933
 Alpha virt. eigenvalues --    2.64027   2.64918   2.65086   2.65417   2.66216
 Alpha virt. eigenvalues --    2.66322   2.66449   2.66828   2.67172   2.68123
 Alpha virt. eigenvalues --    2.68200   2.68564   2.68861   2.69263   2.69612
 Alpha virt. eigenvalues --    2.70825   2.71177   2.71399   2.71581   2.71762
 Alpha virt. eigenvalues --    2.72361   2.72716   2.72963   2.73227   2.73568
 Alpha virt. eigenvalues --    2.74060   2.74321   2.74770   2.75149   2.75477
 Alpha virt. eigenvalues --    2.76182   2.76547   2.76993   2.77607   2.77956
 Alpha virt. eigenvalues --    2.78187   2.78721   2.78869   2.79436   2.79665
 Alpha virt. eigenvalues --    2.79789   2.80175   2.80389   2.81096   2.81379
 Alpha virt. eigenvalues --    2.81610   2.82478   2.82901   2.83022   2.83319
 Alpha virt. eigenvalues --    2.83818   2.84277   2.84379   2.84838   2.85154
 Alpha virt. eigenvalues --    2.85671   2.85996   2.86253   2.86550   2.86594
 Alpha virt. eigenvalues --    2.86798   2.87291   2.87527   2.87822   2.87972
 Alpha virt. eigenvalues --    2.88599   2.89026   2.89250   2.89548   2.89972
 Alpha virt. eigenvalues --    2.90301   2.90504   2.91200   2.91224   2.91277
 Alpha virt. eigenvalues --    2.91977   2.92334   2.93049   2.93221   2.93498
 Alpha virt. eigenvalues --    2.93783   2.93969   2.94742   2.95224   2.95510
 Alpha virt. eigenvalues --    2.96033   2.96497   2.96848   2.97202   2.97257
 Alpha virt. eigenvalues --    2.97819   2.97993   2.98376   2.98590   2.98827
 Alpha virt. eigenvalues --    2.99139   2.99648   2.99793   3.00429   3.00552
 Alpha virt. eigenvalues --    3.00883   3.01249   3.01644   3.01964   3.02333
 Alpha virt. eigenvalues --    3.02589   3.02728   3.03000   3.03519   3.03807
 Alpha virt. eigenvalues --    3.04101   3.04404   3.04538   3.04738   3.05494
 Alpha virt. eigenvalues --    3.05836   3.06157   3.06367   3.06604   3.06912
 Alpha virt. eigenvalues --    3.07158   3.07557   3.07979   3.08110   3.08426
 Alpha virt. eigenvalues --    3.08683   3.08910   3.09049   3.09865   3.09914
 Alpha virt. eigenvalues --    3.10359   3.10482   3.10735   3.10943   3.11493
 Alpha virt. eigenvalues --    3.11997   3.12037   3.12149   3.12676   3.13021
 Alpha virt. eigenvalues --    3.13194   3.13466   3.13657   3.14177   3.14368
 Alpha virt. eigenvalues --    3.14549   3.14925   3.15224   3.15319   3.15619
 Alpha virt. eigenvalues --    3.15880   3.16226   3.16455   3.16854   3.16909
 Alpha virt. eigenvalues --    3.16996   3.17328   3.17706   3.17948   3.18247
 Alpha virt. eigenvalues --    3.18366   3.18659   3.18830   3.19271   3.19777
 Alpha virt. eigenvalues --    3.19905   3.20354   3.20489   3.20921   3.21017
 Alpha virt. eigenvalues --    3.21356   3.21591   3.21712   3.21853   3.22229
 Alpha virt. eigenvalues --    3.22658   3.22864   3.23265   3.23433   3.23760
 Alpha virt. eigenvalues --    3.23982   3.24652   3.24872   3.24933   3.25151
 Alpha virt. eigenvalues --    3.25310   3.25636   3.25892   3.26077   3.26193
 Alpha virt. eigenvalues --    3.26501   3.26744   3.26814   3.27202   3.27645
 Alpha virt. eigenvalues --    3.28019   3.28213   3.28446   3.28795   3.28872
 Alpha virt. eigenvalues --    3.29161   3.29227   3.29756   3.30030   3.30250
 Alpha virt. eigenvalues --    3.30575   3.31175   3.31305   3.31657   3.32009
 Alpha virt. eigenvalues --    3.32088   3.32426   3.32833   3.33365   3.33623
 Alpha virt. eigenvalues --    3.33915   3.34242   3.34460   3.34682   3.35509
 Alpha virt. eigenvalues --    3.35754   3.35789   3.36204   3.36613   3.36948
 Alpha virt. eigenvalues --    3.37027   3.37496   3.38368   3.38789   3.39198
 Alpha virt. eigenvalues --    3.39450   3.39966   3.40212   3.40437   3.40833
 Alpha virt. eigenvalues --    3.41470   3.41601   3.42030   3.42871   3.42998
 Alpha virt. eigenvalues --    3.43488   3.43862   3.44182   3.44268   3.44848
 Alpha virt. eigenvalues --    3.45222   3.45782   3.46161   3.46318   3.46566
 Alpha virt. eigenvalues --    3.47302   3.47716   3.48091   3.48722   3.48983
 Alpha virt. eigenvalues --    3.49376   3.49478   3.49909   3.50266   3.50862
 Alpha virt. eigenvalues --    3.50943   3.51192   3.51774   3.52350   3.52423
 Alpha virt. eigenvalues --    3.53352   3.54038   3.54334   3.54548   3.54698
 Alpha virt. eigenvalues --    3.55450   3.55896   3.56215   3.56572   3.56721
 Alpha virt. eigenvalues --    3.57047   3.57417   3.57973   3.58811   3.59253
 Alpha virt. eigenvalues --    3.59497   3.59610   3.60080   3.60671   3.61191
 Alpha virt. eigenvalues --    3.61596   3.61689   3.62077   3.62252   3.62518
 Alpha virt. eigenvalues --    3.63068   3.63311   3.63937   3.64364   3.64594
 Alpha virt. eigenvalues --    3.65088   3.65165   3.65797   3.65998   3.66641
 Alpha virt. eigenvalues --    3.66921   3.67368   3.68034   3.68617   3.68737
 Alpha virt. eigenvalues --    3.69284   3.69965   3.70016   3.71005   3.71217
 Alpha virt. eigenvalues --    3.71706   3.72037   3.72307   3.73163   3.73429
 Alpha virt. eigenvalues --    3.73762   3.74383   3.75120   3.75622   3.76214
 Alpha virt. eigenvalues --    3.76622   3.77114   3.77246   3.78080   3.79038
 Alpha virt. eigenvalues --    3.79450   3.79894   3.80591   3.80784   3.81359
 Alpha virt. eigenvalues --    3.81714   3.82183   3.82479   3.83352   3.83882
 Alpha virt. eigenvalues --    3.84466   3.85113   3.86020   3.86597   3.86741
 Alpha virt. eigenvalues --    3.87059   3.87584   3.88305   3.88504   3.88868
 Alpha virt. eigenvalues --    3.89484   3.89826   3.90177   3.90416   3.90780
 Alpha virt. eigenvalues --    3.91007   3.91446   3.92110   3.92665   3.92811
 Alpha virt. eigenvalues --    3.94083   3.94459   3.95256   3.95777   3.96002
 Alpha virt. eigenvalues --    3.96539   3.97526   3.99134   3.99583   4.00042
 Alpha virt. eigenvalues --    4.00304   4.00990   4.02553   4.02791   4.03256
 Alpha virt. eigenvalues --    4.03942   4.04265   4.05340   4.05918   4.06154
 Alpha virt. eigenvalues --    4.06480   4.07209   4.07540   4.08100   4.08403
 Alpha virt. eigenvalues --    4.09405   4.09675   4.10263   4.11169   4.11728
 Alpha virt. eigenvalues --    4.12209   4.12964   4.13312   4.13495   4.13974
 Alpha virt. eigenvalues --    4.14079   4.15058   4.15337   4.15566   4.16349
 Alpha virt. eigenvalues --    4.16552   4.17566   4.17836   4.19045   4.19262
 Alpha virt. eigenvalues --    4.20484   4.21019   4.21689   4.22332   4.22612
 Alpha virt. eigenvalues --    4.23529   4.23594   4.24248   4.24503   4.24630
 Alpha virt. eigenvalues --    4.25110   4.25898   4.26490   4.27289   4.27655
 Alpha virt. eigenvalues --    4.28766   4.29602   4.29931   4.30252   4.30668
 Alpha virt. eigenvalues --    4.31166   4.31409   4.32021   4.32243   4.32810
 Alpha virt. eigenvalues --    4.33508   4.33697   4.34051   4.34661   4.35028
 Alpha virt. eigenvalues --    4.35095   4.35700   4.36349   4.36704   4.36882
 Alpha virt. eigenvalues --    4.37468   4.38277   4.38605   4.39043   4.40190
 Alpha virt. eigenvalues --    4.41366   4.41503   4.43435   4.43582   4.44341
 Alpha virt. eigenvalues --    4.44867   4.45896   4.46129   4.47184   4.47333
 Alpha virt. eigenvalues --    4.48059   4.48129   4.49547   4.49908   4.51824
 Alpha virt. eigenvalues --    4.53021   4.53772   4.54848   4.55726   4.57191
 Alpha virt. eigenvalues --    4.58259   4.58410   4.59001   4.59588   4.59986
 Alpha virt. eigenvalues --    4.61165   4.61779   4.62681   4.62843   4.63331
 Alpha virt. eigenvalues --    4.64223   4.64343   4.65379   4.65983   4.66333
 Alpha virt. eigenvalues --    4.68010   4.69428   4.70745   4.71173   4.72373
 Alpha virt. eigenvalues --    4.73273   4.73367   4.73774   4.74374   4.75002
 Alpha virt. eigenvalues --    4.75279   4.75611   4.75996   4.76729   4.77430
 Alpha virt. eigenvalues --    4.78114   4.78414   4.79589   4.81496   4.82293
 Alpha virt. eigenvalues --    4.83158   4.84158   4.84704   4.84850   4.85066
 Alpha virt. eigenvalues --    4.85700   4.86688   4.87666   4.88699   4.89204
 Alpha virt. eigenvalues --    4.90610   4.91738   4.92036   4.92871   4.93657
 Alpha virt. eigenvalues --    4.94338   4.95502   4.96248   4.97490   4.97851
 Alpha virt. eigenvalues --    4.98574   5.00347   5.00505   5.01539   5.03013
 Alpha virt. eigenvalues --    5.04353   5.04954   5.08222   5.09427   5.10109
 Alpha virt. eigenvalues --    5.10435   5.11432   5.12138   5.12736   5.13138
 Alpha virt. eigenvalues --    5.15538   5.16437   5.16635   5.18416   5.19484
 Alpha virt. eigenvalues --    5.19941   5.21633   5.24638   5.25979   5.26825
 Alpha virt. eigenvalues --    5.27196   5.28161   5.28296   5.28822   5.29989
 Alpha virt. eigenvalues --    5.31010   5.31617   5.33269   5.35976   5.37293
 Alpha virt. eigenvalues --    5.38297   5.39175   5.40443   5.41250   5.42371
 Alpha virt. eigenvalues --    5.43223   5.46702   5.49874   5.50435   5.51190
 Alpha virt. eigenvalues --    5.52523   5.52556   5.53953   5.54733   5.55923
 Alpha virt. eigenvalues --    5.56127   5.57076   5.58701   5.61010   5.63289
 Alpha virt. eigenvalues --    5.67151   5.67309   5.70551   5.75013   5.76621
 Alpha virt. eigenvalues --    5.82622   5.83897   5.87024   5.88826   5.90203
 Alpha virt. eigenvalues --    5.90740   5.91815   5.92512   5.98993   6.02323
 Alpha virt. eigenvalues --    6.03323   6.03934   6.05080   6.06928   6.09865
 Alpha virt. eigenvalues --    6.16497   6.23352   6.24694   6.30793   9.16354
 Alpha virt. eigenvalues --    9.36163   9.47223  19.89366  22.26898  22.27387
 Alpha virt. eigenvalues --   22.32272  22.35331  22.36841  22.37530  22.38723
 Alpha virt. eigenvalues --   22.41089  22.43774  22.44591  22.53202  22.53982
 Alpha virt. eigenvalues --   22.72099  22.77572  22.78328  22.82515  22.85223
 Alpha virt. eigenvalues --   22.86657  22.87615  22.88979  22.94219  22.94974
 Alpha virt. eigenvalues --   23.00741  23.04190  23.17804  23.18741  23.21439
 Alpha virt. eigenvalues --   23.22190  23.31125  23.32944  23.40795  23.40923
 Alpha virt. eigenvalues --   23.45594  23.63803  23.68342  23.69186  23.78657
 Alpha virt. eigenvalues --   32.31267  32.72285  32.85340  32.95107  32.98092
 Alpha virt. eigenvalues --   33.02105
  Beta  occ. eigenvalues -- -256.40547 -89.04622 -30.22039 -26.06602 -26.06528
  Beta  occ. eigenvalues --  -26.06514 -14.52363 -14.46878 -14.44380 -14.44222
  Beta  occ. eigenvalues --  -14.44174 -14.44017 -10.36840 -10.34181 -10.32719
  Beta  occ. eigenvalues --  -10.32705 -10.32607 -10.32439 -10.32433 -10.32411
  Beta  occ. eigenvalues --  -10.32374 -10.32281 -10.31625 -10.31431 -10.30736
  Beta  occ. eigenvalues --  -10.29940 -10.29836 -10.29755 -10.29698 -10.29551
  Beta  occ. eigenvalues --  -10.29544 -10.29495 -10.29470 -10.29465 -10.29389
  Beta  occ. eigenvalues --  -10.29368 -10.29346 -10.29310 -10.28867 -10.28837
  Beta  occ. eigenvalues --  -10.27841 -10.27833 -10.27789 -10.27788 -10.27762
  Beta  occ. eigenvalues --  -10.27654 -10.27567 -10.27480 -10.26941  -8.07468
  Beta  occ. eigenvalues --   -6.02046  -6.01743  -6.01185  -3.54480  -2.29760
  Beta  occ. eigenvalues --   -2.29452  -2.29435  -1.16169  -1.08658  -1.07601
  Beta  occ. eigenvalues --   -1.07565  -1.06534  -1.01930  -0.93478  -0.92385
  Beta  occ. eigenvalues --   -0.91951  -0.91921  -0.91287  -0.90898  -0.90585
  Beta  occ. eigenvalues --   -0.90543  -0.90251  -0.86756  -0.85608  -0.85163
  Beta  occ. eigenvalues --   -0.84819  -0.84283  -0.82892  -0.81811  -0.81187
  Beta  occ. eigenvalues --   -0.80211  -0.78492  -0.78251  -0.77980  -0.75399
  Beta  occ. eigenvalues --   -0.75153  -0.75034  -0.74990  -0.71974  -0.70721
  Beta  occ. eigenvalues --   -0.70117  -0.69194  -0.68790  -0.67953  -0.66581
  Beta  occ. eigenvalues --   -0.65074  -0.64348  -0.63645  -0.63318  -0.61794
  Beta  occ. eigenvalues --   -0.61768  -0.61342  -0.59193  -0.58679  -0.58335
  Beta  occ. eigenvalues --   -0.58125  -0.57829  -0.57315  -0.55762  -0.55167
  Beta  occ. eigenvalues --   -0.54885  -0.54840  -0.54373  -0.54146  -0.53699
  Beta  occ. eigenvalues --   -0.53479  -0.53431  -0.53319  -0.53205  -0.53073
  Beta  occ. eigenvalues --   -0.52925  -0.52692  -0.52257  -0.52073  -0.51839
  Beta  occ. eigenvalues --   -0.51744  -0.51267  -0.50675  -0.50529  -0.50425
  Beta  occ. eigenvalues --   -0.50213  -0.50065  -0.49769  -0.49615  -0.49461
  Beta  occ. eigenvalues --   -0.49335  -0.48949  -0.48706  -0.48334  -0.48030
  Beta  occ. eigenvalues --   -0.47684  -0.47540  -0.47378  -0.47104  -0.46990
  Beta  occ. eigenvalues --   -0.46493  -0.45965  -0.45813  -0.45572  -0.44845
  Beta  occ. eigenvalues --   -0.44457  -0.44284  -0.43724  -0.43215  -0.42872
  Beta  occ. eigenvalues --   -0.42637  -0.42433  -0.41398  -0.40750  -0.39968
  Beta  occ. eigenvalues --   -0.39376  -0.37809  -0.37470  -0.35945  -0.34863
  Beta  occ. eigenvalues --   -0.33964  -0.33422  -0.32499  -0.32263  -0.29491
  Beta  occ. eigenvalues --   -0.28856
  Beta virt. eigenvalues --   -0.20566  -0.20365  -0.18626  -0.16377  -0.16325
  Beta virt. eigenvalues --   -0.12545  -0.12083  -0.10243  -0.08985  -0.08928
  Beta virt. eigenvalues --   -0.07705  -0.06695  -0.06377  -0.05408  -0.05054
  Beta virt. eigenvalues --   -0.04694  -0.04364  -0.03486  -0.02974  -0.02387
  Beta virt. eigenvalues --   -0.02247  -0.02002  -0.01803  -0.01722  -0.01041
  Beta virt. eigenvalues --   -0.00781  -0.00515  -0.00318   0.00168   0.00361
  Beta virt. eigenvalues --    0.00555   0.01099   0.01324   0.01434   0.01902
  Beta virt. eigenvalues --    0.02211   0.02389   0.02632   0.02974   0.03124
  Beta virt. eigenvalues --    0.03368   0.03412   0.03596   0.03980   0.04084
  Beta virt. eigenvalues --    0.04247   0.04314   0.04487   0.04640   0.04805
  Beta virt. eigenvalues --    0.04973   0.05081   0.05445   0.05637   0.05819
  Beta virt. eigenvalues --    0.05936   0.06092   0.06158   0.06441   0.06853
  Beta virt. eigenvalues --    0.06955   0.07302   0.07598   0.07636   0.07878
  Beta virt. eigenvalues --    0.07923   0.08177   0.08513   0.08582   0.08729
  Beta virt. eigenvalues --    0.08837   0.09114   0.09155   0.09623   0.09794
  Beta virt. eigenvalues --    0.10158   0.10483   0.10652   0.10842   0.11154
  Beta virt. eigenvalues --    0.11242   0.11748   0.11959   0.12212   0.12526
  Beta virt. eigenvalues --    0.12728   0.13031   0.13175   0.13302   0.13626
  Beta virt. eigenvalues --    0.13708   0.14148   0.14455   0.14574   0.14820
  Beta virt. eigenvalues --    0.15198   0.15402   0.15898   0.16005   0.16435
  Beta virt. eigenvalues --    0.16476   0.16762   0.17063   0.17133   0.17594
  Beta virt. eigenvalues --    0.17686   0.17994   0.18311   0.18416   0.18486
  Beta virt. eigenvalues --    0.18796   0.19481   0.19673   0.19789   0.19899
  Beta virt. eigenvalues --    0.20220   0.20372   0.20558   0.20796   0.20972
  Beta virt. eigenvalues --    0.21237   0.21541   0.21765   0.21963   0.22116
  Beta virt. eigenvalues --    0.22351   0.22759   0.22936   0.23257   0.23380
  Beta virt. eigenvalues --    0.23902   0.23997   0.24095   0.24503   0.24641
  Beta virt. eigenvalues --    0.25326   0.25734   0.25815   0.26010   0.26256
  Beta virt. eigenvalues --    0.26583   0.26832   0.27027   0.27200   0.27314
  Beta virt. eigenvalues --    0.27597   0.28006   0.28174   0.28719   0.28930
  Beta virt. eigenvalues --    0.29166   0.29317   0.29487   0.29837   0.29928
  Beta virt. eigenvalues --    0.30154   0.30175   0.30470   0.30882   0.31074
  Beta virt. eigenvalues --    0.31329   0.31554   0.31818   0.31973   0.32045
  Beta virt. eigenvalues --    0.32247   0.32383   0.32837   0.32999   0.33231
  Beta virt. eigenvalues --    0.33451   0.33576   0.33686   0.33883   0.34098
  Beta virt. eigenvalues --    0.34174   0.34528   0.34825   0.35082   0.35151
  Beta virt. eigenvalues --    0.35524   0.35566   0.35734   0.36027   0.36323
  Beta virt. eigenvalues --    0.36335   0.36558   0.36608   0.36778   0.36943
  Beta virt. eigenvalues --    0.37123   0.37430   0.37704   0.38029   0.38175
  Beta virt. eigenvalues --    0.38260   0.38292   0.38582   0.38816   0.38967
  Beta virt. eigenvalues --    0.39146   0.39253   0.39656   0.39759   0.40018
  Beta virt. eigenvalues --    0.40287   0.40479   0.40613   0.40730   0.40987
  Beta virt. eigenvalues --    0.41120   0.41215   0.41340   0.41527   0.41675
  Beta virt. eigenvalues --    0.41886   0.42098   0.42232   0.42553   0.42728
  Beta virt. eigenvalues --    0.42791   0.42925   0.43190   0.43540   0.43678
  Beta virt. eigenvalues --    0.43785   0.43915   0.44158   0.44330   0.44743
  Beta virt. eigenvalues --    0.44976   0.45228   0.45580   0.45672   0.45804
  Beta virt. eigenvalues --    0.46087   0.46201   0.46489   0.46634   0.46873
  Beta virt. eigenvalues --    0.47057   0.47468   0.48028   0.48243   0.48344
  Beta virt. eigenvalues --    0.48439   0.48526   0.48882   0.49079   0.49287
  Beta virt. eigenvalues --    0.49780   0.49888   0.50367   0.50524   0.50792
  Beta virt. eigenvalues --    0.51112   0.51518   0.51914   0.52344   0.52556
  Beta virt. eigenvalues --    0.52926   0.53260   0.53399   0.53774   0.53886
  Beta virt. eigenvalues --    0.54439   0.54565   0.54824   0.54945   0.55156
  Beta virt. eigenvalues --    0.55574   0.55741   0.56002   0.56507   0.56730
  Beta virt. eigenvalues --    0.57005   0.57172   0.57704   0.57862   0.58162
  Beta virt. eigenvalues --    0.58334   0.58671   0.58877   0.59273   0.59771
  Beta virt. eigenvalues --    0.60128   0.60168   0.61103   0.61367   0.61468
  Beta virt. eigenvalues --    0.61689   0.61880   0.62158   0.62529   0.62782
  Beta virt. eigenvalues --    0.63127   0.63548   0.63730   0.64005   0.64328
  Beta virt. eigenvalues --    0.64702   0.64887   0.65120   0.65833   0.66141
  Beta virt. eigenvalues --    0.66323   0.66696   0.66787   0.67028   0.67187
  Beta virt. eigenvalues --    0.67361   0.67566   0.68046   0.68394   0.68838
  Beta virt. eigenvalues --    0.69144   0.69768   0.69952   0.70246   0.70608
  Beta virt. eigenvalues --    0.70911   0.71000   0.71655   0.71711   0.71935
  Beta virt. eigenvalues --    0.72253   0.72689   0.73107   0.73521   0.73603
  Beta virt. eigenvalues --    0.74264   0.74597   0.74725   0.75708   0.75953
  Beta virt. eigenvalues --    0.76039   0.76656   0.76813   0.77236   0.77654
  Beta virt. eigenvalues --    0.78239   0.78389   0.78763   0.79260   0.79338
  Beta virt. eigenvalues --    0.79591   0.80018   0.80134   0.80544   0.80849
  Beta virt. eigenvalues --    0.81222   0.81242   0.81845   0.82253   0.82282
  Beta virt. eigenvalues --    0.82716   0.83230   0.83499   0.83735   0.84113
  Beta virt. eigenvalues --    0.84312   0.84628   0.85120   0.85274   0.85486
  Beta virt. eigenvalues --    0.85955   0.86085   0.86363   0.86880   0.87173
  Beta virt. eigenvalues --    0.87367   0.87715   0.88098   0.88291   0.88462
  Beta virt. eigenvalues --    0.88805   0.89007   0.89270   0.90316   0.90486
  Beta virt. eigenvalues --    0.90568   0.90782   0.91320   0.91686   0.91829
  Beta virt. eigenvalues --    0.92151   0.92630   0.92702   0.92870   0.92996
  Beta virt. eigenvalues --    0.93509   0.93551   0.94049   0.94322   0.94769
  Beta virt. eigenvalues --    0.95167   0.95374   0.95818   0.96129   0.96627
  Beta virt. eigenvalues --    0.96850   0.96984   0.97243   0.97483   0.98043
  Beta virt. eigenvalues --    0.98650   0.98800   0.99063   0.99186   0.99633
  Beta virt. eigenvalues --    0.99910   1.00244   1.00523   1.01010   1.01462
  Beta virt. eigenvalues --    1.02083   1.02557   1.02737   1.03462   1.03896
  Beta virt. eigenvalues --    1.04212   1.04468   1.04769   1.05274   1.05817
  Beta virt. eigenvalues --    1.06181   1.06519   1.06764   1.06929   1.07221
  Beta virt. eigenvalues --    1.07497   1.08095   1.08694   1.09049   1.09527
  Beta virt. eigenvalues --    1.09804   1.10027   1.10316   1.10505   1.10707
  Beta virt. eigenvalues --    1.11274   1.11388   1.11768   1.12017   1.12101
  Beta virt. eigenvalues --    1.12846   1.12987   1.13245   1.13787   1.14072
  Beta virt. eigenvalues --    1.14757   1.14866   1.15203   1.15622   1.16377
  Beta virt. eigenvalues --    1.16556   1.17141   1.17530   1.17717   1.18103
  Beta virt. eigenvalues --    1.18467   1.18641   1.18835   1.19012   1.19223
  Beta virt. eigenvalues --    1.19566   1.20004   1.20221   1.20725   1.21208
  Beta virt. eigenvalues --    1.21833   1.22808   1.22970   1.23226   1.23368
  Beta virt. eigenvalues --    1.23882   1.24305   1.24774   1.24973   1.25809
  Beta virt. eigenvalues --    1.26724   1.27435   1.27690   1.28082   1.28173
  Beta virt. eigenvalues --    1.29425   1.29630   1.29902   1.30282   1.31210
  Beta virt. eigenvalues --    1.31447   1.32156   1.32791   1.33043   1.33241
  Beta virt. eigenvalues --    1.34073   1.34954   1.35112   1.35760   1.36087
  Beta virt. eigenvalues --    1.36877   1.37124   1.37438   1.37759   1.37976
  Beta virt. eigenvalues --    1.38110   1.38281   1.38641   1.38991   1.39230
  Beta virt. eigenvalues --    1.39989   1.40133   1.40376   1.40751   1.41026
  Beta virt. eigenvalues --    1.41123   1.41519   1.42038   1.42477   1.42697
  Beta virt. eigenvalues --    1.43050   1.43252   1.43460   1.43683   1.43798
  Beta virt. eigenvalues --    1.44170   1.44895   1.45122   1.45517   1.45657
  Beta virt. eigenvalues --    1.45905   1.46257   1.46401   1.46552   1.46758
  Beta virt. eigenvalues --    1.46964   1.47143   1.47422   1.47598   1.48294
  Beta virt. eigenvalues --    1.48417   1.48568   1.48667   1.48834   1.49013
  Beta virt. eigenvalues --    1.49381   1.49693   1.49797   1.50024   1.50253
  Beta virt. eigenvalues --    1.50452   1.50799   1.51386   1.51816   1.51902
  Beta virt. eigenvalues --    1.52118   1.52391   1.52645   1.53140   1.53359
  Beta virt. eigenvalues --    1.53642   1.53787   1.54223   1.54483   1.54540
  Beta virt. eigenvalues --    1.54967   1.55456   1.55547   1.56102   1.56249
  Beta virt. eigenvalues --    1.56618   1.56741   1.56976   1.57167   1.57616
  Beta virt. eigenvalues --    1.57811   1.57906   1.58395   1.58784   1.58928
  Beta virt. eigenvalues --    1.59050   1.59469   1.59759   1.60171   1.60315
  Beta virt. eigenvalues --    1.60858   1.61196   1.61265   1.61526   1.61643
  Beta virt. eigenvalues --    1.62113   1.62637   1.62967   1.63110   1.63550
  Beta virt. eigenvalues --    1.63692   1.63965   1.64382   1.64773   1.65073
  Beta virt. eigenvalues --    1.65302   1.65998   1.66164   1.66828   1.67449
  Beta virt. eigenvalues --    1.68250   1.68627   1.69072   1.69381   1.69694
  Beta virt. eigenvalues --    1.70311   1.70566   1.71450   1.71933   1.72188
  Beta virt. eigenvalues --    1.73081   1.73301   1.73499   1.73916   1.74036
  Beta virt. eigenvalues --    1.74526   1.74644   1.75509   1.75972   1.76208
  Beta virt. eigenvalues --    1.76433   1.76901   1.77205   1.77832   1.78076
  Beta virt. eigenvalues --    1.78149   1.78311   1.78784   1.78928   1.79296
  Beta virt. eigenvalues --    1.80251   1.80313   1.80972   1.81104   1.81871
  Beta virt. eigenvalues --    1.82023   1.82853   1.83176   1.83936   1.84021
  Beta virt. eigenvalues --    1.84119   1.84790   1.85434   1.85657   1.86162
  Beta virt. eigenvalues --    1.86275   1.86931   1.87229   1.87554   1.88310
  Beta virt. eigenvalues --    1.88790   1.89118   1.89354   1.89541   1.89681
  Beta virt. eigenvalues --    1.90071   1.90724   1.91008   1.91373   1.91674
  Beta virt. eigenvalues --    1.92220   1.92607   1.92874   1.93550   1.94048
  Beta virt. eigenvalues --    1.94465   1.95203   1.95601   1.95746   1.96287
  Beta virt. eigenvalues --    1.96990   1.97033   1.97597   1.97936   1.98090
  Beta virt. eigenvalues --    1.99031   1.99499   1.99878   2.00247   2.00411
  Beta virt. eigenvalues --    2.00897   2.01086   2.01297   2.01496   2.02028
[...]
  1229. RY*(   6) C  64                  0.00003     1.61440   
  1230. RY*(   7) C  64                  0.00000     1.49221   
  1231. RY*(   8) C  64                  0.00001     1.00264   
  1232. RY*(   9) C  64                  0.00001     2.01668   
  1233. RY*(  10) C  64                  0.00001     1.24219   
  1234. RY*(  11) C  64                  0.00000     3.07937   
  1235. RY*(  12) C  64                  0.00001     1.81174   
  1236. RY*(  13) C  64                  0.00000     2.76059   
  1237. RY*(  14) C  64                  0.00000     1.47265   
  1238. RY*(  15) C  64                  0.00000     3.21060   
  1239. RY*(  16) C  64                  0.00001     1.46015   
  1240. RY*(  17) C  64                  0.00000     2.78066   
  1241. RY*(  18) C  64                  0.00000    21.56476   
  1242. RY*(  19) C  64                  0.00000     2.96210   
  1243. RY*(  20) C  64                  0.00000     3.53244   
  1244. RY*(  21) C  64                  0.00000     3.20125   
  1245. RY*(  22) C  64                  0.00000     3.32163   
  1246. RY*(  23) C  64                  0.00000     3.58568   
  1247. RY*(  24) C  64                  0.00000     3.40005   
  1248. RY*(  25) C  64                  0.00000     3.30239   
  1249. RY*(  26) C  64                  0.00000     3.36492   
  1250. RY*(   1) H  65                  0.00032     0.70559   
  1251. RY*(   2) H  65                  0.00009     1.78495   
  1252. RY*(   3) H  65                  0.00005     2.09337   
  1253. RY*(   4) H  65                  0.00003     2.22754   
  1254. RY*(   5) H  65                  0.00000     2.90461   
  1255. RY*(   1) H  66                  0.00032     0.70752   
  1256. RY*(   2) H  66                  0.00009     1.78244   
  1257. RY*(   3) H  66                  0.00005     2.09292   
  1258. RY*(   4) H  66                  0.00003     2.22673   
  1259. RY*(   5) H  66                  0.00000     2.90431   
  1260. RY*(   1) H  67                  0.00011     1.91469   
  1261. RY*(   2) H  67                  0.00006     0.85518   
  1262. RY*(   3) H  67                  0.00006     2.08157   
  1263. RY*(   4) H  67                  0.00003     2.25111   
  1264. RY*(   5) H  67                  0.00000     2.71945   
  1265. RY*(   1) N  68                  0.00112     0.65677   
  1266. RY*(   2) N  68                  0.00099     1.72380   
  1267. RY*(   3) N  68                  0.00035     2.04859   
  1268. RY*(   4) N  68                  0.00032     1.98803   
  1269. RY*(   5) N  68                  0.00025     1.29937   
  1270. RY*(   6) N  68                  0.00015     1.70153   
  1271. RY*(   7) N  68                  0.00006     2.32227   
  1272. RY*(   8) N  68                  0.00003     2.41415   
  1273. RY*(   9) N  68                  0.00003     3.96280   
  1274. RY*(  10) N  68                  0.00001     1.65577   
  1275. RY*(  11) N  68                  0.00000     3.94647   
  1276. RY*(  12) N  68                  0.00001     3.15630   
  1277. RY*(  13) N  68                  0.00001     4.28403   
  1278. RY*(  14) N  68                  0.00001     2.68967   
  1279. RY*(  15) N  68                  0.00001     4.20251   
  1280. RY*(  16) N  68                  0.00000    30.65544   
  1281. RY*(  17) N  68                  0.00000     4.47789   
  1282. RY*(  18) N  68                  0.00001     2.17640   
  1283. RY*(  19) N  68                  0.00001     2.25947   
  1284. RY*(  20) N  68                  0.00000     4.59221   
  1285. RY*(  21) N  68                  0.00000     4.33898   
  1286. RY*(  22) N  68                  0.00000     4.66247   
  1287. RY*(  23) N  68                  0.00000     4.47752   
  1288. RY*(  24) N  68                  0.00000     4.27919   
  1289. RY*(  25) N  68                  0.00000     4.29497   
  1290. RY*(  26) N  68                  0.00000     4.30318   
  1291. RY*(   1) H  69                  0.00030     2.09898   
  1292. RY*(   2) H  69                  0.00021     1.98400   
  1293. RY*(   3) H  69                  0.00010     2.53713   
  1294. RY*(   4) H  69                  0.00007     1.12193   
  1295. RY*(   5) H  69                  0.00001     3.03246   
  1296. RY*(   1) C  70                  0.00185     1.70094   
  1297. RY*(   2) C  70                  0.00103     1.25216   
  1298. RY*(   3) C  70                  0.00091     1.23822   
  1299. RY*(   4) C  70                  0.00068     2.47807   
  1300. RY*(   5) C  70                  0.00054     2.11230   
  1301. RY*(   6) C  70                  0.00040     1.74407   
  1302. RY*(   7) C  70                  0.00023     2.44295   
  1303. RY*(   8) C  70                  0.00021     1.81807   
  1304. RY*(   9) C  70                  0.00009     2.83257   
  1305. RY*(  10) C  70                  0.00006     1.41963   
  1306. RY*(  11) C  70                  0.00004     2.92773   
  1307. RY*(  12) C  70                  0.00002     3.11205   
  1308. RY*(  13) C  70                  0.00002     2.38506   
  1309. RY*(  14) C  70                  0.00000     1.32241   
  1310. RY*(  15) C  70                  0.00001     2.12418   
  1311. RY*(  16) C  70                  0.00001     1.61487   
  1312. RY*(  17) C  70                  0.00000     3.32508   
  1313. RY*(  18) C  70                  0.00000    18.92534   
  1314. RY*(  19) C  70                  0.00000     2.87884   
  1315. RY*(  20) C  70                  0.00000     3.93899   
  1316. RY*(  21) C  70                  0.00000     3.53900   
  1317. RY*(  22) C  70                  0.00001     3.73370   
  1318. RY*(  23) C  70                  0.00000     3.63244   
  1319. RY*(  24) C  70                  0.00000     3.41393   
  1320. RY*(  25) C  70                  0.00000     3.37241   
  1321. RY*(  26) C  70                  0.00000     3.37759   
  1322. RY*(   1) C  71                  0.02388     1.63055   
  1323. RY*(   2) C  71                  0.00201     0.53900   
  1324. RY*(   3) C  71                  0.00101     2.11046   
  1325. RY*(   4) C  71                  0.00071     1.02768   
  1326. RY*(   5) C  71                  0.00063     2.68211   
  1327. RY*(   6) C  71                  0.00042     2.03838   
  1328. RY*(   7) C  71                  0.00014     1.80725   
  1329. RY*(   8) C  71                  0.00012     1.25821   
  1330. RY*(   9) C  71                  0.00011     1.65000   
  1331. RY*(  10) C  71                  0.00006     2.53598   
  1332. RY*(  11) C  71                  0.00007     1.89891   
  1333. RY*(  12) C  71                  0.00005     1.91861   
  1334. RY*(  13) C  71                  0.00004     2.19101   
  1335. RY*(  14) C  71                  0.00003     1.92705   
  1336. RY*(  15) C  71                  0.00002     3.01926   
  1337. RY*(  16) C  71                  0.00002     1.31598   
  1338. RY*(  17) C  71                  0.00000     3.51757   
  1339. RY*(  18) C  71                  0.00000     3.30685   
  1340. RY*(  19) C  71                  0.00000    21.22215   
  1341. RY*(  20) C  71                  0.00001     3.94136   
  1342. RY*(  21) C  71                  0.00000     3.43681   
  1343. RY*(  22) C  71                  0.00000     3.92571   
  1344. RY*(  23) C  71                  0.00000     3.55934   
  1345. RY*(  24) C  71                  0.00000     3.48232   
  1346. RY*(  25) C  71                  0.00000     3.39785   
  1347. RY*(  26) C  71                  0.00000     3.32139   
  1348. RY*(   1) H  72                  0.00025     0.62048   
  1349. RY*(   2) H  72                  0.00016     2.33438   
  1350. RY*(   3) H  72                  0.00009     2.15448   
  1351. RY*(   4) H  72                  0.00002     2.50641   
  1352. RY*(   5) H  72                  0.00001     3.00005   
  1353. RY*(   1) N  73                  0.00542     0.87577   
  1354. RY*(   2) N  73                  0.00177     0.64627   
  1355. RY*(   3) N  73                  0.00159     1.74051   
  1356. RY*(   4) N  73                  0.00121     1.15385   
  1357. RY*(   5) N  73                  0.00049     1.49030   
  1358. RY*(   6) N  73                  0.00049     1.96896   
  1359. RY*(   7) N  73                  0.00029     2.73380   
  1360. RY*(   8) N  73                  0.00025     3.08472   
  1361. RY*(   9) N  73                  0.00012     2.41745   
  1362. RY*(  10) N  73                  0.00006     3.39081   
  1363. RY*(  11) N  73                  0.00005     2.20695   
  1364. RY*(  12) N  73                  0.00004     3.08037   
  1365. RY*(  13) N  73                  0.00002     4.73506   
  1366. RY*(  14) N  73                  0.00001     4.10660   
  1367. RY*(  15) N  73                  0.00002     2.37017   
  1368. RY*(  16) N  73                  0.00001     3.41236   
  1369. RY*(  17) N  73                  0.00000     4.65919   
  1370. RY*(  18) N  73                  0.00000     4.59310   
  1371. RY*(  19) N  73                  0.00000    31.69503   
  1372. RY*(  20) N  73                  0.00000     4.33581   
  1373. RY*(  21) N  73                  0.00000     4.16040   
  1374. RY*(  22) N  73                  0.00000     4.58510   
  1375. RY*(  23) N  73                  0.00000     4.70440   
  1376. RY*(  24) N  73                  0.00000     4.65300   
  1377. RY*(  25) N  73                  0.00000     4.44619   
  1378. RY*(  26) N  73                  0.00000     4.43184   
  1379. RY*(   1) C  74                  0.00205     1.49442   
  1380. RY*(   2) C  74                  0.00142     0.57217   
  1381. RY*(   3) C  74                  0.00074     1.89341   
  1382. RY*(   4) C  74                  0.00051     1.14185   
  1383. RY*(   5) C  74                  0.00033     1.69564   
  1384. RY*(   6) C  74                  0.00029     2.60007   
  1385. RY*(   7) C  74                  0.00017     1.86674   
  1386. RY*(   8) C  74                  0.00015     1.04610   
  1387. RY*(   9) C  74                  0.00011     2.50833   
  1388. RY*(  10) C  74                  0.00007     2.11472   
  1389. RY*(  11) C  74                  0.00008     2.35808   
  1390. RY*(  12) C  74                  0.00005     2.16724   
  1391. RY*(  13) C  74                  0.00004     1.66578   
  1392. RY*(  14) C  74                  0.00003     3.62667   
  1393. RY*(  15) C  74                  0.00003     3.18108   
  1394. RY*(  16) C  74                  0.00002     1.67510   
  1395. RY*(  17) C  74                  0.00000     3.71359   
  1396. RY*(  18) C  74                  0.00000     3.34727   
  1397. RY*(  19) C  74                  0.00000    20.11127   
  1398. RY*(  20) C  74                  0.00000     3.91323   
  1399. RY*(  21) C  74                  0.00000     3.43180   
  1400. RY*(  22) C  74                  0.00000     3.86545   
  1401. RY*(  23) C  74                  0.00000     3.60947   
  1402. RY*(  24) C  74                  0.00000     3.39150   
  1403. RY*(  25) C  74                  0.00000     3.33901   
  1404. RY*(  26) C  74                  0.00000     3.38315   
  1405. RY*(   1) H  75                  0.00021     0.76676   
  1406. RY*(   2) H  75                  0.00015     2.18337   
  1407. RY*(   3) H  75                  0.00011     2.22752   
  1408. RY*(   4) H  75                  0.00003     2.63198   
  1409. RY*(   5) H  75                  0.00001     3.06162   
  1640. BD*(   1) C  64 - H  65          0.00504     0.37272   
  1641. BD*(   1) C  64 - H  66          0.00505     0.33819   
  1642. BD*(   1) C  64 - H  67          0.00156     0.32386   
  1643. BD*(   1) C  64 - C  70          0.00621     0.37538   
  1644. BD*(   1) N  68 - H  69          0.00683     0.47415   
  1645. BD*(   1) N  68 - C  70          0.01441     0.41057   
  1646. BD*(   1) C  70 - C  74          0.01041     0.65092   
  1647. BD*(   2) C  70 - C  74          0.13820    -0.06942  1650(v),1641(v),1640(v)
                                                    179(r)
  1648. BD*(   1) C  71 - H  72          0.01678     0.26556   
  1649. BD*(   1) C  71 - N  73          0.01783     0.43385   
  1650. BD*(   2) C  71 - N  73          0.21788    -0.10786  1647(v),167(r),1323(g)
                                                    168(r),1664(r),1354(g)
                                                    1380(v),1571(r),1663(r)
                                                    1568(r),170(r),1559(r)
                                                    1558(r),1555(r),1662(r)
                                                    1539(r),1619(r),1535(r)
                                                    1626(r),1557(r),1520(r)
                                                    1556(r)
  1651. BD*(   3) C  71 - N  73          0.37014    -0.04133  1322(g),1325(g),1648(g)
                                                    1652(g),1348(v),1270(r)
                                                    1353(g),1332(g),1646(v)
                                                    1266(r),1560(r),1644(r)
                                                    1334(g),169(r),1280(r)
                                                    1340(g),1362(g),1349(v)
                                                    1267(r),1338(g),1331(g)
                                                    1623(r),1269(r),1645(r)
                                                    1296(r),1663(r),168(r)
                                                    1631(r),1664(r),1556(r)
                                                    1294(r),1365(g),1278(r)
                                                    1273(r),1557(r),1555(r)
                                                    1554(r),1619(r),177(r)
                                                    1626(r),1662(r),182(r)
                                                    1562(r),1528(r),1540(r)
                                                    1523(r),1629(r),1521(r)
                                                    1532(r),1526(r),1633(r)
                                                    1520(r),178(r)
  1652. BD*(   1) N  73 - C  74          0.00807     0.37815   
  1653. BD*(   1) C  74 - H  75          0.00645     0.31869   
       -------------------------------
              Total Lewis   20.87065  ( 95.9270%)
        Valence non-Lewis    0.82485  (  3.7912%)
        Rydberg non-Lewis    0.06130  (  0.2818%)
       -------------------------------
            Total unit  2   21.75681  (100.0000%)
           Charge unit  2    0.24319
 Unable to Open any file for archive entry.
 1\1\GINC-BGN1015\SP\UAPFD\def2TZVP\C37H42Fe1N6S1(1+,6)\BECSLEIP\13-Nov
 -2024\0\\# apfd/def2TZVP guess=read scf=maxcycle=999 geom=check pop=nb
 o\\6qq1_III_H\\1,6\Fe,0,-8.6069686385,-28.4680709469,-44.6660434901\N,
 0,-8.5043162284,-29.4509621744,-46.43335435\N,0,-10.5889666483,-28.610
 6097335,-44.7691166122\N,0,-8.703398905,-27.4835234726,-42.9646290471\
 N,0,-6.6126109426,-28.3255348825,-44.6825659674\C,0,-7.3839788475,-29.
 9070285551,-47.0523844834\C,0,-7.7184251431,-30.6073965807,-48.2731799
 959\C,0,-9.0726594834,-30.5640548129,-48.3763501332\C,0,-9.5454580931,
 -29.849842957,-47.2106270266\C,0,-11.3645537616,-29.0299124213,-45.798
 6718748\C,0,-12.7666221618,-28.9208160934,-45.4658181562\C,0,-12.81894
 27255,-28.4569922314,-44.1884046247\C,0,-11.447222214,-28.2651400689,-
 43.7705272419\C,0,-9.8119226891,-27.3176014867,-42.2030890417\C,0,-9.4
 80054118,-26.6218718666,-40.9751588881\C,0,-8.139399633,-26.3440740032
 ,-41.0449072436\C,0,-7.6752712808,-26.9052354152,-42.2879178932\C,0,-5
 .862138947,-27.6394595044,-43.7789898452\C,0,-4.4497343836,-27.7818870
 943,-44.0795845575\C,0,-4.378873948,-28.6100947465,-45.1691437593\C,0,
 -5.7365334118,-28.927860938,-45.5270560605\C,0,-6.0891733335,-29.67860
 13504,-46.6356082852\H,0,-5.2918815009,-30.0920679618,-47.2339399468\C
 ,0,-10.8825350948,-29.6049262275,-46.9588378572\H,0,-11.6007673257,-29
 .9320062481,-47.6948757792\C,0,-11.0918632045,-27.7008356559,-42.55877
 25755\H,0,-11.8865772941,-27.4886590854,-41.859846182\C,0,-6.351266696
 3,-26.9313933838,-42.6954292173\H,0,-5.6351417417,-26.4042513615,-42.0
 829589582\C,0,-6.7185378922,-31.2280247617,-49.1873698165\H,0,-6.12788
 67521,-31.9761340081,-48.6579594234\H,0,-6.0356732858,-30.4735200432,-
 49.5783037351\H,0,-7.210174457,-31.7119818962,-50.0277949683\C,0,-9.95
 7297825,-31.1240105456,-49.4368433037\H,0,-10.5526415824,-30.334164923
 5,-49.8942251428\H,0,-10.641292928,-31.8625733076,-49.0176701495\H,0,-
 9.3702741589,-31.6046505308,-50.2156755121\C,0,-3.168695396,-29.154059
 8731,-45.8444976811\H,0,-2.9283900009,-28.5767894469,-46.7391857618\H,
 0,-3.3287524317,-30.1887250501,-46.1442323685\H,0,-2.3146374882,-29.11
 41754019,-45.1713481084\C,0,-3.3752256096,-27.1826877987,-43.320219724
 5\H,0,-3.5642695452,-27.0516959863,-42.2609279914\C,0,-2.2073980493,-2
 6.7858981561,-43.8161383331\H,0,-1.9804582123,-26.8453952201,-44.86612
 93569\H,0,-1.4431863972,-26.3610639558,-43.1865428682\C,0,-7.277812992
 6,-25.6927126445,-40.0191076376\H,0,-7.1064307118,-24.6421556954,-40.2
 622442923\H,0,-6.3083775355,-26.1853540066,-39.95771703\H,0,-7.7568022
 752,-25.7449974026,-39.0432101698\C,0,-10.4273710234,-26.3057413308,-3
 9.9288688745\H,0,-11.2132063705,-27.0365656957,-39.7745597752\C,0,-10.
 4079070799,-25.2100352722,-39.177125601\H,0,-9.6800103063,-24.43038869
 92,-39.3203859542\H,0,-11.1414226754,-25.0416708827,-38.405980048\C,0,
 -14.0066322705,-28.1751388682,-43.3334070719\H,0,-14.0345378214,-27.12
 44304893,-43.0464713599\H,0,-13.9715499892,-28.7728225978,-42.42305627
 52\H,0,-14.9275085431,-28.4112162219,-43.860034004\C,0,-13.8819308469,
 -29.276717116,-46.3877383783\H,0,-14.8373914903,-28.9634515835,-45.975
 0331188\H,0,-13.919144592,-30.3550699735,-46.5506037917\H,0,-13.748406
 9618,-28.7934314722,-47.3547058536\C,0,-7.390155966,-32.5851466828,-41
 .1226919955\H,0,-6.8466782386,-33.4463127996,-41.5112219487\H,0,-8.185
 2289628,-32.9492128214,-40.4719554697\H,0,-6.7082870819,-31.9799984324
 ,-40.5335969116\N,0,-8.8418320431,-32.273602357,-43.1390743302\H,0,-9.
 1985397415,-33.2149946159,-43.1531084451\C,0,-7.9484072133,-31.7693636
 615,-42.2304951671\C,0,-9.151396512,-31.281337969,-44.0039052838\H,0,-
 9.8285369015,-31.3868521249,-44.8260322812\N,0,-8.5078901252,-30.18139
 99344,-43.6980757109\C,0,-7.7558155566,-30.4683113681,-42.5979447625\H
 ,0,-7.1301337645,-29.7249672423,-42.148909317\C,0,-10.8787248799,-24.9
 619058956,-44.9573130026\H,0,-11.2100556504,-24.1131779488,-44.3617680
 515\H,0,-11.272354048,-25.8722434203,-44.5146724473\H,0,-11.2792755415
 ,-24.8650241716,-45.9637054342\C,0,-9.3638973205,-25.0122781034,-44.99
 54088263\H,0,-8.9479545385,-25.1160391106,-43.9942689714\H,0,-8.957684
 8819,-24.1207631624,-45.4735878915\S,0,-8.8047927128,-26.4482318489,-4
 6.0001865972\C,0,-7.128152601,-25.8506554959,-46.3759859635\H,0,-6.591
 4712189,-25.644259099,-45.4552595486\H,0,-7.2011496968,-24.957927207,-
 46.9918178014\H,0,-6.6280909101,-26.6428324091,-46.9229112669\\Version
 =ES64L-G16RevC.02\State=6-A\HF=-3424.6473441\S2=8.76004\S2-1=0.\S2A=8.
 75003\RMSD=6.403e-09\Dipole=-0.1737188,-1.5442226,0.4020379\Quadrupole
 =2.1615524,1.7351649,-3.8967173,4.2477875,-1.3264737,6.624469\PG=C01 [
 X(C37H42Fe1N6S1)]\\@
 The archive entry for this job was punched.


 THERE IS NOTHING NOBLE IN BEING SUPERIOR TO SOME OTHER MAN.
 TRUE NOBILITY IS BEING SUPERIOR TO YOUR FORMER SELF.

                                                   -- HINDU PROVERB
 Job cpu time:       0 days 15 hours  8 minutes 35.9 seconds.
 Elapsed time:       0 days  0 hours 14 minutes 11.7 seconds.
 File lengths (MBytes):  RWF=   2563 Int=      0 D2E=      0 Chk=    211 Scr=      1
 Normal termination of Gaussian 16 at Wed Nov 13 18:23:15 2024.
