 Entering Gaussian System, Link 0=g16
 Input=6rqd16.com
 Output=6rqd16.log
 Initial command:
 /sw/chem/gaussian/g16_C02/a100/g16/l1.exe "/local/becsleip_8082193/Gau-1447128.inp" -scrdir="/local/becsleip_8082193/"
 Entering Link 1 = /sw/chem/gaussian/g16_C02/a100/g16/l1.exe PID=   1447129.
  
 Copyright (c) 1988-2021, Gaussian, Inc.  All Rights Reserved.
  
 This is part of the Gaussian(R) 16 program.  It is based on
 the Gaussian(R) 09 system (copyright 2009, Gaussian, Inc.),
 the Gaussian(R) 03 system (copyright 2003, Gaussian, Inc.),
 the Gaussian(R) 98 system (copyright 1998, Gaussian, Inc.),
 the Gaussian(R) 94 system (copyright 1995, Gaussian, Inc.),
 the Gaussian 92(TM) system (copyright 1992, Gaussian, Inc.),
 the Gaussian 90(TM) system (copyright 1990, Gaussian, Inc.),
 the Gaussian 88(TM) system (copyright 1988, Gaussian, Inc.),
 the Gaussian 86(TM) system (copyright 1986, Carnegie Mellon
 University), and the Gaussian 82(TM) system (copyright 1983,
 Carnegie Mellon University). Gaussian is a federally registered
 trademark of Gaussian, Inc.
  
 This software contains proprietary and confidential information,
 including trade secrets, belonging to Gaussian, Inc.
  
 This software is provided under written license and may be
 used, copied, transmitted, or stored only in accord with that
 written license.
  
 The following legend is applicable only to US Government
 contracts under FAR:
  
                    RESTRICTED RIGHTS LEGEND
  
 Use, reproduction and disclosure by the US Government is
 subject to restrictions as set forth in subparagraphs (a)
 and (c) of the Commercial Computer Software - Restricted
 Rights clause in FAR 52.227-19.
  
 Gaussian, Inc.
 340 Quinnipiac St., Bldg. 40, Wallingford CT 06492
  
  
 ---------------------------------------------------------------
 Warning -- This program may not be used in any manner that
 competes with the business of Gaussian, Inc. or will provide
 assistance to any competitor of Gaussian, Inc.  The licensee
 of this program is prohibited from giving any competitor of
 Gaussian, Inc. access to this program.  By using this program,
 the user acknowledges that Gaussian, Inc. is engaged in the
 business of creating and licensing software in the field of
 computational chemistry and represents and warrants to the
 licensee that it is not a competitor of Gaussian, Inc. and that
 it will not use this program in any manner prohibited above.
 ---------------------------------------------------------------
  

 Cite this work as:
 Gaussian 16, Revision C.02,
 M. J. Frisch, G. W. Trucks, H. B. Schlegel, G. E. Scuseria, 
 M. A. Robb, J. R. Cheeseman, G. Scalmani, V. Barone, 
 G. A. Petersson, H. Nakatsuji, X. Li, M. Caricato, A. V. Marenich, 
 J. Bloino, B. G. Janesko, R. Gomperts, B. Mennucci, H. P. Hratchian, 
 J. V. Ortiz, A. F. Izmaylov, J. L. Sonnenberg, D. Williams-Young, 
 F. Ding, F. Lipparini, F. Egidi, J. Goings, B. Peng, A. Petrone, 
 T. Henderson, D. Ranasinghe, V. G. Zakrzewski, J. Gao, N. Rega, 
 G. Zheng, W. Liang, M. Hada, M. Ehara, K. Toyota, R. Fukuda, 
 J. Hasegawa, M. Ishida, T. Nakajima, Y. Honda, O. Kitao, H. Nakai, 
 T. Vreven, K. Throssell, J. A. Montgomery, Jr., J. E. Peralta, 
 F. Ogliaro, M. J. Bearpark, J. J. Heyd, E. N. Brothers, K. N. Kudin, 
 V. N. Staroverov, T. A. Keith, R. Kobayashi, J. Normand, 
 K. Raghavachari, A. P. Rendell, J. C. Burant, S. S. Iyengar, 
 J. Tomasi, M. Cossi, J. M. Millam, M. Klene, C. Adamo, R. Cammi, 
 J. W. Ochterski, R. L. Martin, K. Morokuma, O. Farkas, 
 J. B. Foresman, and D. J. Fox, Gaussian, Inc., Wallingford CT, 2019.
 
 ******************************************
 Gaussian 16:  ES64L-G16RevC.02  7-Dec-2021
                15-Nov-2024 
 ******************************************
 %mem=16GB
 %CPU=0-71
 SetSPE:  set environment variable "OMP_PROC_BIND" = "true"
 SetSPE:  set environment variable "OMP_PLACES" = "{0},{1},{2},{3},{4},{5},{6},{7},{8},{9},{10},{11},{12},{13},{14},{15},{16},{17},{18},{19},{20},{21},{22},{23},{24},{25},{26},{27},{28},{29},{30},{31},{32},{33},{34},{35},{36},{37},{38},{39},{40},{41},{42},{43},{44},{45},{46},{47},{48},{49},{50},{51},{52},{53},{54},{55},{56},{57},{58},{59},{60},{61},{62},{63},{64},{65},{66},{67},{68},{69},{70},{71}"
 Will use up to   72 processors via shared memory.
 %gpucpu=0,1,2,3=0,1,2,3
 Will use    4 GPUs:
 Thread  CPU   GPU
      0    0     0
      1    1     1
      2    2     2
      3    3     3
      4    4    -1
      5    5    -1
      6    6    -1
      7    7    -1
      8    8    -1
      9    9    -1
     10   10    -1
     11   11    -1
     12   12    -1
     13   13    -1
     14   14    -1
     15   15    -1
     16   16    -1
     17   17    -1
     18   18    -1
     19   19    -1
     20   20    -1
     21   21    -1
     22   22    -1
     23   23    -1
     24   24    -1
     25   25    -1
     26   26    -1
     27   27    -1
     28   28    -1
     29   29    -1
     30   30    -1
     31   31    -1
     32   32    -1
     33   33    -1
     34   34    -1
     35   35    -1
     36   36    -1
     37   37    -1
     38   38    -1
     39   39    -1
     40   40    -1
     41   41    -1
     42   42    -1
     43   43    -1
     44   44    -1
     45   45    -1
     46   46    -1
     47   47    -1
     48   48    -1
     49   49    -1
     50   50    -1
     51   51    -1
     52   52    -1
     53   53    -1
     54   54    -1
     55   55    -1
     56   56    -1
     57   57    -1
     58   58    -1
     59   59    -1
     60   60    -1
     61   61    -1
     62   62    -1
     63   63    -1
     64   64    -1
     65   65    -1
     66   66    -1
     67   67    -1
     68   68    -1
     69   69    -1
     70   70    -1
     71   71    -1
 SetGPE:  set environment variable "OMP_PROC_BIND" = "true"
 SetGPE:  set environment variable "OMP_PLACES" = "{0},{1},{2},{3},{4},{5},{6},{7},{8},{9},{10},{11},{12},{13},{14},{15},{16},{17},{18},{19},{20},{21},{22},{23},{24},{25},{26},{27},{28},{29},{30},{31},{32},{33},{34},{35},{36},{37},{38},{39},{40},{41},{42},{43},{44},{45},{46},{47},{48},{49},{50},{51},{52},{53},{54},{55},{56},{57},{58},{59},{60},{61},{62},{63},{64},{65},{66},{67},{68},{69},{70},{71}"
 %oldchk=6rqd_III_Dre.chk
 %chk=6rqd_III_Hn.chk
 Properties for Device   0
 Minimum vector length:                              32
 Maximum vector length:                            1024
 Number of SMPs:                                    108
 Maximum number of threads per SMP:                2048
 Number of ASync Engines:                             5
 Memory:                                           9207742464
 Properties for Device   1
 Minimum vector length:                              32
 Maximum vector length:                            1024
 Number of SMPs:                                    108
 Maximum number of threads per SMP:                2048
 Number of ASync Engines:                             5
 Memory:                                           9207742464
 Properties for Device   2
 Minimum vector length:                              32
 Maximum vector length:                            1024
 Number of SMPs:                                    108
 Maximum number of threads per SMP:                2048
 Number of ASync Engines:                             5
 Memory:                                           9207742464
 Properties for Device   3
 Minimum vector length:                              32
 Maximum vector length:                            1024
 Number of SMPs:                                    108
 Maximum number of threads per SMP:                2048
 Number of ASync Engines:                             5
 Memory:                                           9207742464
   8286968217 words of memory will be used on each GPU.
 Copying data from "6rqd_III_Dre.chk" to current chk file "6rqd_III_Hn.chk"
 IOpt=  2 FromEx=T IUOpen= 4 IOptOp= 5 NList=   0 IFRang= 0 IUIn= 4 IUOut= 2.
 --------------------------------------------------------------
 # apfd/def2TZVP guess=read scf=maxcycle=999 geom=check pop=nbo
 --------------------------------------------------------------
 1/29=2,38=1,172=1/1;
 2/12=2,40=1/2;
 3/5=44,7=101,11=2,14=-4,25=1,30=1,74=-44,116=-2/1,2,3;
 4/5=1/1;
 5/5=2,7=999,38=6/2;
 6/7=2,8=2,9=2,10=2,28=1,40=1/1,7;
 99/5=1,9=1/99;
 ----------
 6rqd_III_H
 ----------
 Structure from the checkpoint file:  "6rqd_III_Hn.chk"
 Charge =  1 Multiplicity = 6
 Z-Matrix found in chk file.
 Fe,0,-6.2238644522,24.7826275523,271.2061810127
 N,0,-4.5379234319,23.7048922699,270.9881304467
 N,0,-5.8629697337,24.8715098233,273.1850242902
 N,0,-8.018387587,25.6241162371,271.5258630547
 N,0,-6.706124337,24.4931945845,269.3129538663
 C,0,-3.9944917456,23.3385370636,269.7968420896
 C,0,-2.6782219579,22.7738740655,269.9898557982
 C,0,-2.4412695962,22.8044713445,271.3299082073
 C,0,-3.613984353,23.392317084,271.9349128379
 C,0,-4.8242448621,24.3039709018,273.8612712416
 C,0,-4.9258930747,24.5711676431,275.2733006685
 C,0,-6.0422306917,25.3462733374,275.4394703019
 C,0,-6.6203347372,25.5035375494,274.1191687658
 C,0,-8.4018113497,26.3094132685,272.6375135019
 C,0,-9.6116782758,27.0498456096,272.392116861
 C,0,-9.9742091554,26.7725620384,271.0996279293
 C,0,-8.9653809627,25.8686029993,270.5852016949
 C,0,-7.927855678,24.6431951898,268.7366667872
 C,0,-7.9224620986,24.1506176752,267.3772816613
 C,0,-6.689051664,23.6195288397,267.1730781179
 C,0,-5.9628331012,23.7919239878,268.4144460562
 C,0,-4.6513347621,23.3882095142,268.5818575597
 H,0,-4.1409220556,22.9789597892,267.7238358958
 C,0,-3.7669326674,23.6152835494,273.2887055164
 H,0,-2.982409257,23.2705356087,273.9441846232
 C,0,-7.7641551082,26.2349494624,273.8633022853
 H,0,-8.2043496326,26.7727280688,274.6887260915
 C,0,-8.9779938529,25.3352566116,269.3077593778
 H,0,-9.8537236729,25.5049260801,268.7006401849
 C,0,-1.2477258641,22.3410766707,272.091680623
 H,0,-0.4971889211,21.9291070445,271.4217967747
 H,0,-1.5268619358,21.5691274407,272.8093326199
 H,0,-0.7998625414,23.1681525426,272.6432506944
 C,0,-1.8089898793,22.2749822912,268.8877580074
 H,0,-1.6484527712,23.0552157512,268.1439543627
 H,0,-2.273918738,21.4239831583,268.3886603269
 H,0,-0.8413426805,21.9596120308,269.2701587982
 C,0,-4.004319786,24.0373919666,276.3133870301
 H,0,-3.0991120417,24.6435033535,276.3815715374
 H,0,-3.7093113998,23.0156709922,276.0787700964
 H,0,-4.4950676722,24.0444205248,277.284421867
 C,0,-6.609179867,25.8837696758,276.6569404364
 H,0,-7.6909855996,25.9418232101,276.6843977919
 C,0,-5.9132489878,26.3053704982,277.7074793302
 H,0,-4.8371893998,26.3135743181,277.7163849319
 H,0,-6.4003495474,26.6840795478,278.5905459002
 C,0,-10.3296763101,27.8811459977,273.3963192454
 H,0,-9.8827373588,28.873953849,273.4689568844
 H,0,-10.28632949,27.4210367849,274.3820971456
 H,0,-11.3733658586,27.9939929031,273.1104954017
 C,0,-11.120471796,27.2390331582,270.3516144724
 H,0,-11.5331969228,26.5345865905,269.6387077439
 C,0,-11.6779288646,28.4397938919,270.4661771262
 H,0,-11.2799331887,29.1961394468,271.1197397482
 H,0,-12.5397315784,28.7182580812,269.8827880383
 C,0,-9.0882238322,24.229895347,266.453457967
 H,0,-9.3523651536,25.2702755525,266.2626717639
 H,0,-9.9567075165,23.7348339933,266.8880887912
 H,0,-8.8618678459,23.75432875,265.5024289775
 C,0,-6.1353940887,22.9585846022,265.9581157142
 H,0,-5.2577853181,23.4946508405,265.5964020669
 H,0,-6.8742482106,22.9360944046,265.1610353985
 H,0,-5.8381337859,21.9334314208,266.1803969487
 O,0,-7.16,22.791,271.614
 H,0,-6.464,22.138,271.54
 H,0,-8.022,22.626,271.757
 C,0,-3.5355031311,26.7869196647,271.4906216924
 H,0,-3.1521447874,27.7963742967,271.6022062369
 H,0,-2.9350864381,26.2350205292,270.7747397578
 H,0,-3.5499767601,26.2614261161,272.4398040266
 S,0,-5.2290874331,26.860148466,270.8053936481
 H,0,-5.7456234932,27.5253134813,271.8465843346
 Recover connectivity data from disk.
 Stoichiometry    C31H34FeN4OS(1+,6)
 Framework group  C1[X(C31H34FeN4OS)]
 Deg. of freedom   210
 Full point group                 C1      NOp   1
 Largest Abelian subgroup         C1      NOp   1
 Largest concise Abelian subgroup C1      NOp   1
                         Standard orientation:                         
 ---------------------------------------------------------------------
 Center     Atomic      Atomic             Coordinates (Angstroms)
 Number     Number       Type             X           Y           Z
 ---------------------------------------------------------------------
      1         26           0        0.012789   -0.204401   -0.038196
      2          7           0       -1.579700   -1.431462   -0.136968
      3          7           0       -1.232428    1.362930   -0.254698
      4          7           0        1.571908    1.047937   -0.215429
      5          7           0        1.253785   -1.740507   -0.069257
      6          6           0       -1.544660   -2.774098    0.074700
      7          6           0       -2.883638   -3.312640    0.150704
      8          6           0       -3.729792   -2.260937   -0.024702
      9          6           0       -2.895200   -1.094894   -0.199783
     10          6           0       -2.585003    1.326197   -0.420679
     11          6           0       -3.119149    2.656335   -0.565503
     12          6           0       -2.056824    3.512659   -0.452430
     13          6           0       -0.885540    2.676263   -0.277301
     14          6           0        1.542532    2.399936   -0.061654
     15          6           0        2.873984    2.930078    0.074081
     16          6           0        3.724176    1.860019   -0.030751
     17          6           0        2.882529    0.696328   -0.223006
     18          6           0        2.579506   -1.728990   -0.368533
     19          6           0        3.097745   -3.074733   -0.473382
     20          6           0        2.032792   -3.902819   -0.314622
     21          6           0        0.879763   -3.047807   -0.120748
     22          6           0       -0.393891   -3.539167    0.096993
     23          1           0       -0.509679   -4.608745    0.179482
     24          6           0       -3.372169    0.186192   -0.392608
     25          1           0       -4.439844    0.314604   -0.479571
     26          6           0        0.394541    3.170529   -0.116523
     27          1           0        0.508187    4.241429   -0.048991
     28          6           0        3.362578   -0.591352   -0.390073
     29          1           0        4.427595   -0.719821   -0.506341
     30          6           0       -5.219216   -2.237433   -0.050065
     31          1           0       -5.624464   -3.235412    0.096842
     32          1           0       -5.580483   -1.858546   -1.006504
     33          1           0       -5.606071   -1.589638    0.737063
     34          6           0       -3.198300   -4.750868    0.377783
     35          1           0       -2.724967   -5.106288    1.292886
     36          1           0       -2.830728   -5.358616   -0.449857
     37          1           0       -4.271292   -4.903779    0.463440
     38          6           0       -4.545884    2.979908   -0.840683
     39          1           0       -5.133401    2.969091    0.079169
     40          1           0       -4.979944    2.254053   -1.526770
     41          1           0       -4.623886    3.969919   -1.285188
     42          6           0       -2.033774    4.956731   -0.534236
     43          1           0       -1.148348    5.386373   -0.987951
     44          6           0       -2.992270    5.766222   -0.096391
     45          1           0       -3.870906    5.396636    0.403065
     46          1           0       -2.917111    6.835837   -0.200157
     47          6           0        3.214565    4.371077    0.224190
     48          1           0        3.115424    4.686863    1.263973
     49          1           0        2.552538    4.990300   -0.378819
     50          1           0        4.240393    4.547553   -0.092433
     51          6           0        5.169209    1.832607    0.015788
     52          1           0        5.644349    1.088219   -0.612664
     53          6           0        5.930705    2.625137    0.762600
     54          1           0        5.512628    3.346599    1.442533
     55          1           0        7.005620    2.556878    0.740514
     56          6           0        4.528212   -3.403603   -0.727041
     57          1           0        5.153050   -3.037323    0.087807
     58          1           0        4.870931   -2.938300   -1.651320
     59          1           0        4.669732   -4.478257   -0.810393
     60          6           0        1.981916   -5.391438   -0.345349
     61          1           0        1.608149   -5.781818    0.601383
     62          1           0        2.971068   -5.807387   -0.519456
     63          1           0        1.319142   -5.736707   -1.139221
     64          8           0       -0.029709   -0.360128   -2.270502
     65          1           0       -0.758114   -0.939821   -2.493399
     66          1           0        0.551913   -0.004172   -2.841228
     67          6           0       -1.710676   -0.082931    2.849761
     68          1           0       -1.772220    0.294891    3.865574
     69          1           0       -2.013288   -1.124574    2.818365
     70          1           0       -2.327322    0.498878    2.172601
     71         16           0        0.030067   -0.027791    2.293073
     72          1           0        0.137871    1.303865    2.384745
 ---------------------------------------------------------------------
 Rotational constants (GHZ):           0.1090149           0.1070807           0.0600123
 Standard basis: def2TZVP (5D, 7F)
 There are  1594 symmetry adapted cartesian basis functions of A   symmetry.
 There are  1402 symmetry adapted basis functions of A   symmetry.
  1402 basis functions,  2279 primitive gaussians,  1594 cartesian basis functions
   151 alpha electrons      146 beta electrons
       nuclear repulsion energy      5416.7636284073 Hartrees.
 NAtoms=   72 NActive=   72 NUniq=   72 SFac= 1.00D+00 NAtFMM=   60 NAOKFM=T Big=T
 Integral buffers will be    131072 words long.
 Raffenetti 2 integral format.
 Two-electron integral symmetry is turned on.
 R6APFD:  NTU= -4 IXU= 1 FactS= 1.050
 Nuclear repulsion after empirical dispersion term =     5416.6112857059 Hartrees.
 One-electron integrals computed using PRISM.
   1 Symmetry operations used in ECPInt.
 ECPInt:  NShTT=  157080 NPrTT=  488567 LenC2=  124778 LenP2D=  258907.
 LDataN:  DoStor=T MaxTD1= 6 Len=  172
 Number of processors reduced to  25 by ecpmxn.
 NBasis=  1402 RedAO= T EigKep=  3.42D-06  NBF=  1402
 NBsUse=  1402 1.00D-06 EigRej= -1.00D+00 NBFU=  1402
 Initial guess from the checkpoint file:  "6rqd_III_Hn.chk"
 B after Tr=    -0.000000    0.000000   -0.000000
         Rot=    1.000000    0.000000   -0.000000   -0.000000 Ang=   0.00 deg.
 Initial guess <Sx>= 0.0000 <Sy>= 0.0000 <Sz>= 2.5000 <S**2>= 8.8326 S= 2.5137
 Requested convergence on RMS density matrix=1.00D-08 within 999 cycles.
 Requested convergence on MAX density matrix=1.00D-06.
 Requested convergence on             energy=1.00D-06.
 No special actions if energy rises.
 EnCoef did   100 forward-backward iterations
 EnCoef did     5 forward-backward iterations
 EnCoef did    25 forward-backward iterations
 EnCoef did     4 forward-backward iterations
 EnCoef did     6 forward-backward iterations
 Rare condition: small coef for last iteration:  0.000D+00
 Rare condition: small coef for last iteration:  0.000D+00
 Restarting incremental Fock formation.
 Rare condition: small coef for last iteration:  0.000D+00
 EnCoef did   100 forward-backward iterations
 Rare condition: small coef for last iteration:  0.000D+00
 EnCoef did   100 forward-backward iterations
 Rare condition: small coef for last iteration:  0.000D+00
 EnCoef did   100 forward-backward iterations
 Rare condition: small coef for last iteration:  0.000D+00
 EnCoef did   100 forward-backward iterations
 Rare condition: small coef for last iteration:  0.000D+00
 Rare condition: small coef for last iteration:  0.000D+00
 Rare condition: small coef for last iteration:  0.000D+00
 EnCoef did   100 forward-backward iterations
 Rare condition: small coef for last iteration:  0.000D+00
 Rare condition: small coef for last iteration:  0.000D+00
 Rare condition: small coef for last iteration:  0.000D+00
 Rare condition: small coef for last iteration:  0.000D+00
 Rare condition: small coef for last iteration:  0.000D+00
 Rare condition: small coef for last iteration:  0.000D+00
 Restarting incremental Fock formation.
 Rare condition: small coef for last iteration:  0.000D+00
 Rare condition: small coef for last iteration:  0.000D+00
 Rare condition: small coef for last iteration:  0.000D+00
 Rare condition: small coef for last iteration:  0.000D+00
 Restarting incremental Fock formation.
 Restarting incremental Fock formation.
 SCF Done:  E(UAPFD) =  -3156.93536698     A.U. after   93 cycles
            NFock= 93  Conv=0.12D-08     -V/T= 2.0029
 <Sx>= 0.0000 <Sy>= 0.0000 <Sz>= 2.5000 <S**2>= 8.8550 S= 2.5174
 <L.S>=  0.00000000000    
 Annihilation of the first spin contaminant:
 S**2 before annihilation     8.8550,   after     8.7532

 **********************************************************************

            Population analysis using the SCF Density.

 **********************************************************************

 Orbital symmetries:
 Alpha Orbitals:
       Occupied  (A) (A) (A) (A) (A) (A) (A) (A) (A) (A) (A) (A)
                 (A) (A) (A) (A) (A) (A) (A) (A) (A) (A) (A) (A)
                 (A) (A) (A) (A) (A) (A) (A) (A) (A) (A) (A) (A)
                 (A) (A) (A) (A) (A) (A) (A) (A) (A) (A) (A) (A)
                 (A) (A) (A) (A) (A) (A) (A) (A) (A) (A) (A) (A)
                 (A) (A) (A) (A) (A) (A) (A) (A) (A) (A) (A) (A)
                 (A) (A) (A) (A) (A) (A) (A) (A) (A) (A) (A) (A)
                 (A) (A) (A) (A) (A) (A) (A) (A) (A) (A) (A) (A)
                 (A) (A) (A) (A) (A) (A) (A) (A) (A) (A) (A) (A)
                 (A) (A) (A) (A) (A) (A) (A) (A) (A) (A) (A) (A)
                 (A) (A) (A) (A) (A) (A) (A) (A) (A) (A) (A) (A)
                 (A) (A) (A) (A) (A) (A) (A) (A) (A) (A) (A) (A)
                 (A) (A) (A) (A) (A) (A) (A)
       Virtual   (A) (A) (A) (A) (A) (A) (A) (A) (A) (A) (A) (A)
                 (A) (A) (A) (A) (A) (A) (A) (A) (A) (A) (A) (A)
                 (A) (A) (A) (A) (A) (A) (A) (A) (A) (A) (A) (A)
                 (A) (A) (A) (A) (A) (A) (A) (A) (A) (A) (A) (A)
                 (A) (A) (A) (A) (A) (A) (A) (A) (A) (A) (A) (A)
                 (A) (A) (A) (A) (A) (A) (A) (A) (A) (A) (A) (A)
                 (A) (A) (A) (A) (A) (A) (A) (A) (A) (A) (A) (A)
                 (A) (A) (A) (A) (A) (A) (A) (A) (A) (A) (A) (A)
                 (A) (A) (A) (A) (A) (A) (A) (A) (A) (A) (A) (A)
                 (A) (A) (A) (A) (A) (A) (A) (A) (A) (A) (A) (A)
                 (A) (A) (A) (A) (A) (A) (A) (A) (A) (A) (A) (A)
                 (A) (A) (A) (A) (A) (A) (A) (A) (A) (A) (A) (A)
                 (A) (A) (A) (A) (A) (A) (A) (A) (A) (A) (A) (A)
                 (A) (A) (A) (A) (A) (A) (A) (A) (A) (A) (A) (A)
                 (A) (A) (A) (A) (A) (A) (A) (A) (A) (A) (A) (A)
                 (A) (A) (A) (A) (A) (A) (A) (A) (A) (A) (A) (A)
                 (A) (A) (A) (A) (A) (A) (A) (A) (A) (A) (A) (A)
                 (A) (A) (A) (A) (A) (A) (A) (A) (A) (A) (A) (A)
                 (A) (A) (A) (A) (A) (A) (A) (A) (A) (A) (A) (A)
                 (A) (A) (A) (A) (A) (A) (A) (A) (A) (A) (A) (A)
                 (A) (A) (A) (A) (A) (A) (A) (A) (A) (A) (A) (A)
                 (A) (A) (A) (A) (A) (A) (A) (A) (A) (A) (A) (A)
                 (A) (A) (A) (A) (A) (A) (A) (A) (A) (A) (A) (A)
                 (A) (A) (A) (A) (A) (A) (A) (A) (A) (A) (A) (A)
                 (A) (A) (A) (A) (A) (A) (A) (A) (A) (A) (A) (A)
                 (A) (A) (A) (A) (A) (A) (A) (A) (A) (A) (A) (A)
                 (A) (A) (A) (A) (A) (A) (A) (A) (A) (A) (A) (A)
                 (A) (A) (A) (A) (A) (A) (A) (A) (A) (A) (A) (A)
                 (A) (A) (A) (A) (A) (A) (A) (A) (A) (A) (A) (A)
                 (A) (A) (A) (A) (A) (A) (A) (A) (A) (A) (A) (A)
                 (A) (A) (A) (A) (A) (A) (A) (A) (A) (A) (A) (A)
                 (A) (A) (A) (A) (A) (A) (A) (A) (A) (A) (A) (A)
                 (A) (A) (A) (A) (A) (A) (A) (A) (A) (A) (A) (A)
                 (A) (A) (A) (A) (A) (A) (A) (A) (A) (A) (A) (A)
                 (A) (A) (A) (A) (A) (A) (A) (A) (A) (A) (A) (A)
                 (A) (A) (A) (A) (A) (A) (A) (A) (A) (A) (A) (A)
                 (A) (A) (A) (A) (A) (A) (A) (A) (A) (A) (A) (A)
                 (A) (A) (A) (A) (A) (A) (A) (A) (A) (A) (A) (A)
                 (A) (A) (A) (A) (A) (A) (A) (A) (A) (A) (A) (A)
                 (A) (A) (A) (A) (A) (A) (A) (A) (A) (A) (A) (A)
                 (A) (A) (A) (A) (A) (A) (A) (A) (A) (A) (A) (A)
                 (A) (A) (A) (A) (A) (A) (A) (A) (A) (A) (A) (A)
                 (A) (A) (A) (A) (A) (A) (A) (A) (A) (A) (A) (A)
                 (A) (A) (A) (A) (A) (A) (A) (A) (A) (A) (A) (A)
                 (A) (A) (A) (A) (A) (A) (A) (A) (A) (A) (A) (A)
                 (A) (A) (A) (A) (A) (A) (A) (A) (A) (A) (A) (A)
                 (A) (A) (A) (A) (A) (A) (A) (A) (A) (A) (A) (A)
                 (A) (A) (A) (A) (A) (A) (A) (A) (A) (A) (A) (A)
                 (A) (A) (A) (A) (A) (A) (A) (A) (A) (A) (A) (A)
                 (A) (A) (A) (A) (A) (A) (A) (A) (A) (A) (A) (A)
                 (A) (A) (A) (A) (A) (A) (A) (A) (A) (A) (A) (A)
                 (A) (A) (A) (A) (A) (A) (A) (A) (A) (A) (A) (A)
                 (A) (A) (A) (A) (A) (A) (A) (A) (A) (A) (A) (A)
                 (A) (A) (A) (A) (A) (A) (A) (A) (A) (A) (A) (A)
                 (A) (A) (A) (A) (A) (A) (A) (A) (A) (A) (A) (A)
                 (A) (A) (A) (A) (A) (A) (A) (A) (A) (A) (A) (A)
                 (A) (A) (A) (A) (A) (A) (A) (A) (A) (A) (A) (A)
                 (A) (A) (A) (A) (A) (A) (A) (A) (A) (A) (A) (A)
                 (A) (A) (A) (A) (A) (A) (A) (A) (A) (A) (A) (A)
                 (A) (A) (A) (A) (A) (A) (A) (A) (A) (A) (A) (A)
                 (A) (A) (A) (A) (A) (A) (A) (A) (A) (A) (A) (A)
                 (A) (A) (A) (A) (A) (A) (A) (A) (A) (A) (A) (A)
                 (A) (A) (A) (A) (A) (A) (A) (A) (A) (A) (A) (A)
                 (A) (A) (A) (A) (A) (A) (A) (A) (A) (A) (A) (A)
                 (A) (A) (A) (A) (A) (A) (A) (A) (A) (A) (A) (A)
                 (A) (A) (A) (A) (A) (A) (A) (A) (A) (A) (A) (A)
                 (A) (A) (A) (A) (A) (A) (A) (A) (A) (A) (A) (A)
                 (A) (A) (A) (A) (A) (A) (A) (A) (A) (A) (A) (A)
                 (A) (A) (A) (A) (A) (A) (A) (A) (A) (A) (A) (A)
                 (A) (A) (A) (A) (A) (A) (A) (A) (A) (A) (A) (A)
                 (A) (A) (A) (A) (A) (A) (A) (A) (A) (A) (A) (A)
                 (A) (A) (A) (A) (A) (A) (A) (A) (A) (A) (A) (A)
                 (A) (A) (A) (A) (A) (A) (A) (A) (A) (A) (A) (A)
                 (A) (A) (A) (A) (A) (A) (A) (A) (A) (A) (A) (A)
                 (A) (A) (A) (A) (A) (A) (A) (A) (A) (A) (A) (A)
                 (A) (A) (A) (A) (A) (A) (A) (A) (A) (A) (A) (A)
                 (A) (A) (A) (A) (A) (A) (A) (A) (A) (A) (A) (A)
                 (A) (A) (A) (A) (A) (A) (A) (A) (A) (A) (A) (A)
                 (A) (A) (A) (A) (A) (A) (A) (A) (A) (A) (A) (A)
                 (A) (A) (A) (A) (A) (A) (A) (A) (A) (A) (A) (A)
                 (A) (A) (A) (A) (A) (A) (A) (A) (A) (A) (A) (A)
                 (A) (A) (A) (A) (A) (A) (A) (A) (A) (A) (A) (A)
                 (A) (A) (A) (A) (A) (A) (A) (A) (A) (A) (A) (A)
                 (A) (A) (A) (A) (A) (A) (A) (A) (A) (A) (A) (A)
                 (A) (A) (A) (A) (A) (A) (A) (A) (A) (A) (A) (A)
                 (A) (A) (A) (A) (A) (A) (A) (A) (A) (A) (A) (A)
                 (A) (A) (A) (A) (A) (A) (A) (A) (A) (A) (A) (A)
                 (A) (A) (A) (A) (A) (A) (A) (A) (A) (A) (A) (A)
                 (A) (A) (A) (A) (A) (A) (A) (A) (A) (A) (A) (A)
                 (A) (A) (A) (A) (A) (A) (A) (A) (A) (A) (A) (A)
                 (A) (A) (A) (A) (A) (A) (A) (A) (A) (A) (A) (A)
                 (A) (A) (A) (A) (A) (A) (A) (A) (A) (A) (A) (A)
                 (A) (A) (A) (A) (A) (A) (A) (A) (A) (A) (A) (A)
                 (A) (A) (A) (A) (A) (A) (A) (A) (A) (A) (A) (A)
                 (A) (A) (A) (A) (A) (A) (A) (A) (A) (A) (A) (A)
                 (A) (A) (A) (A) (A) (A) (A) (A) (A) (A) (A) (A)
                 (A) (A) (A) (A) (A) (A) (A) (A) (A) (A) (A) (A)
                 (A) (A) (A) (A) (A) (A) (A) (A) (A) (A) (A) (A)
                 (A) (A) (A) (A) (A) (A) (A) (A) (A) (A) (A) (A)
                 (A) (A) (A) (A) (A) (A) (A) (A) (A) (A) (A) (A)
                 (A) (A) (A) (A) (A) (A) (A) (A) (A) (A) (A) (A)
                 (A) (A) (A) (A) (A) (A) (A) (A) (A) (A) (A) (A)
                 (A) (A) (A) (A) (A) (A) (A) (A) (A) (A) (A) (A)
                 (A) (A) (A) (A) (A) (A) (A) (A) (A) (A) (A) (A)
                 (A) (A) (A)
 Beta  Orbitals:
       Occupied  (A) (A) (A) (A) (A) (A) (A) (A) (A) (A) (A) (A)
                 (A) (A) (A) (A) (A) (A) (A) (A) (A) (A) (A) (A)
                 (A) (A) (A) (A) (A) (A) (A) (A) (A) (A) (A) (A)
                 (A) (A) (A) (A) (A) (A) (A) (A) (A) (A) (A) (A)
                 (A) (A) (A) (A) (A) (A) (A) (A) (A) (A) (A) (A)
                 (A) (A) (A) (A) (A) (A) (A) (A) (A) (A) (A) (A)
                 (A) (A) (A) (A) (A) (A) (A) (A) (A) (A) (A) (A)
                 (A) (A) (A) (A) (A) (A) (A) (A) (A) (A) (A) (A)
                 (A) (A) (A) (A) (A) (A) (A) (A) (A) (A) (A) (A)
                 (A) (A) (A) (A) (A) (A) (A) (A) (A) (A) (A) (A)
                 (A) (A) (A) (A) (A) (A) (A) (A) (A) (A) (A) (A)
                 (A) (A) (A) (A) (A) (A) (A) (A) (A) (A) (A) (A)
                 (A) (A)
       Virtual   (A) (A) (A) (A) (A) (A) (A) (A) (A) (A) (A) (A)
                 (A) (A) (A) (A) (A) (A) (A) (A) (A) (A) (A) (A)
                 (A) (A) (A) (A) (A) (A) (A) (A) (A) (A) (A) (A)
                 (A) (A) (A) (A) (A) (A) (A) (A) (A) (A) (A) (A)
                 (A) (A) (A) (A) (A) (A) (A) (A) (A) (A) (A) (A)
                 (A) (A) (A) (A) (A) (A) (A) (A) (A) (A) (A) (A)
                 (A) (A) (A) (A) (A) (A) (A) (A) (A) (A) (A) (A)
                 (A) (A) (A) (A) (A) (A) (A) (A) (A) (A) (A) (A)
                 (A) (A) (A) (A) (A) (A) (A) (A) (A) (A) (A) (A)
                 (A) (A) (A) (A) (A) (A) (A) (A) (A) (A) (A) (A)
                 (A) (A) (A) (A) (A) (A) (A) (A) (A) (A) (A) (A)
                 (A) (A) (A) (A) (A) (A) (A) (A) (A) (A) (A) (A)
                 (A) (A) (A) (A) (A) (A) (A) (A) (A) (A) (A) (A)
                 (A) (A) (A) (A) (A) (A) (A) (A) (A) (A) (A) (A)
                 (A) (A) (A) (A) (A) (A) (A) (A) (A) (A) (A) (A)
                 (A) (A) (A) (A) (A) (A) (A) (A) (A) (A) (A) (A)
                 (A) (A) (A) (A) (A) (A) (A) (A) (A) (A) (A) (A)
                 (A) (A) (A) (A) (A) (A) (A) (A) (A) (A) (A) (A)
                 (A) (A) (A) (A) (A) (A) (A) (A) (A) (A) (A) (A)
                 (A) (A) (A) (A) (A) (A) (A) (A) (A) (A) (A) (A)
                 (A) (A) (A) (A) (A) (A) (A) (A) (A) (A) (A) (A)
                 (A) (A) (A) (A) (A) (A) (A) (A) (A) (A) (A) (A)
                 (A) (A) (A) (A) (A) (A) (A) (A) (A) (A) (A) (A)
                 (A) (A) (A) (A) (A) (A) (A) (A) (A) (A) (A) (A)
                 (A) (A) (A) (A) (A) (A) (A) (A) (A) (A) (A) (A)
                 (A) (A) (A) (A) (A) (A) (A) (A) (A) (A) (A) (A)
                 (A) (A) (A) (A) (A) (A) (A) (A) (A) (A) (A) (A)
                 (A) (A) (A) (A) (A) (A) (A) (A) (A) (A) (A) (A)
                 (A) (A) (A) (A) (A) (A) (A) (A) (A) (A) (A) (A)
                 (A) (A) (A) (A) (A) (A) (A) (A) (A) (A) (A) (A)
                 (A) (A) (A) (A) (A) (A) (A) (A) (A) (A) (A) (A)
                 (A) (A) (A) (A) (A) (A) (A) (A) (A) (A) (A) (A)
                 (A) (A) (A) (A) (A) (A) (A) (A) (A) (A) (A) (A)
                 (A) (A) (A) (A) (A) (A) (A) (A) (A) (A) (A) (A)
                 (A) (A) (A) (A) (A) (A) (A) (A) (A) (A) (A) (A)
                 (A) (A) (A) (A) (A) (A) (A) (A) (A) (A) (A) (A)
                 (A) (A) (A) (A) (A) (A) (A) (A) (A) (A) (A) (A)
                 (A) (A) (A) (A) (A) (A) (A) (A) (A) (A) (A) (A)
                 (A) (A) (A) (A) (A) (A) (A) (A) (A) (A) (A) (A)
                 (A) (A) (A) (A) (A) (A) (A) (A) (A) (A) (A) (A)
                 (A) (A) (A) (A) (A) (A) (A) (A) (A) (A) (A) (A)
                 (A) (A) (A) (A) (A) (A) (A) (A) (A) (A) (A) (A)
                 (A) (A) (A) (A) (A) (A) (A) (A) (A) (A) (A) (A)
                 (A) (A) (A) (A) (A) (A) (A) (A) (A) (A) (A) (A)
                 (A) (A) (A) (A) (A) (A) (A) (A) (A) (A) (A) (A)
                 (A) (A) (A) (A) (A) (A) (A) (A) (A) (A) (A) (A)
                 (A) (A) (A) (A) (A) (A) (A) (A) (A) (A) (A) (A)
                 (A) (A) (A) (A) (A) (A) (A) (A) (A) (A) (A) (A)
                 (A) (A) (A) (A) (A) (A) (A) (A) (A) (A) (A) (A)
                 (A) (A) (A) (A) (A) (A) (A) (A) (A) (A) (A) (A)
                 (A) (A) (A) (A) (A) (A) (A) (A) (A) (A) (A) (A)
                 (A) (A) (A) (A) (A) (A) (A) (A) (A) (A) (A) (A)
                 (A) (A) (A) (A) (A) (A) (A) (A) (A) (A) (A) (A)
                 (A) (A) (A) (A) (A) (A) (A) (A) (A) (A) (A) (A)
                 (A) (A) (A) (A) (A) (A) (A) (A) (A) (A) (A) (A)
                 (A) (A) (A) (A) (A) (A) (A) (A) (A) (A) (A) (A)
                 (A) (A) (A) (A) (A) (A) (A) (A) (A) (A) (A) (A)
                 (A) (A) (A) (A) (A) (A) (A) (A) (A) (A) (A) (A)
                 (A) (A) (A) (A) (A) (A) (A) (A) (A) (A) (A) (A)
                 (A) (A) (A) (A) (A) (A) (A) (A) (A) (A) (A) (A)
                 (A) (A) (A) (A) (A) (A) (A) (A) (A) (A) (A) (A)
                 (A) (A) (A) (A) (A) (A) (A) (A) (A) (A) (A) (A)
                 (A) (A) (A) (A) (A) (A) (A) (A) (A) (A) (A) (A)
                 (A) (A) (A) (A) (A) (A) (A) (A) (A) (A) (A) (A)
                 (A) (A) (A) (A) (A) (A) (A) (A) (A) (A) (A) (A)
                 (A) (A) (A) (A) (A) (A) (A) (A) (A) (A) (A) (A)
                 (A) (A) (A) (A) (A) (A) (A) (A) (A) (A) (A) (A)
                 (A) (A) (A) (A) (A) (A) (A) (A) (A) (A) (A) (A)
                 (A) (A) (A) (A) (A) (A) (A) (A) (A) (A) (A) (A)
                 (A) (A) (A) (A) (A) (A) (A) (A) (A) (A) (A) (A)
                 (A) (A) (A) (A) (A) (A) (A) (A) (A) (A) (A) (A)
                 (A) (A) (A) (A) (A) (A) (A) (A) (A) (A) (A) (A)
                 (A) (A) (A) (A) (A) (A) (A) (A) (A) (A) (A) (A)
                 (A) (A) (A) (A) (A) (A) (A) (A) (A) (A) (A) (A)
                 (A) (A) (A) (A) (A) (A) (A) (A) (A) (A) (A) (A)
                 (A) (A) (A) (A) (A) (A) (A) (A) (A) (A) (A) (A)
                 (A) (A) (A) (A) (A) (A) (A) (A) (A) (A) (A) (A)
                 (A) (A) (A) (A) (A) (A) (A) (A) (A) (A) (A) (A)
                 (A) (A) (A) (A) (A) (A) (A) (A) (A) (A) (A) (A)
                 (A) (A) (A) (A) (A) (A) (A) (A) (A) (A) (A) (A)
                 (A) (A) (A) (A) (A) (A) (A) (A) (A) (A) (A) (A)
                 (A) (A) (A) (A) (A) (A) (A) (A) (A) (A) (A) (A)
                 (A) (A) (A) (A) (A) (A) (A) (A) (A) (A) (A) (A)
                 (A) (A) (A) (A) (A) (A) (A) (A) (A) (A) (A) (A)
                 (A) (A) (A) (A) (A) (A) (A) (A) (A) (A) (A) (A)
                 (A) (A) (A) (A) (A) (A) (A) (A) (A) (A) (A) (A)
                 (A) (A) (A) (A) (A) (A) (A) (A) (A) (A) (A) (A)
                 (A) (A) (A) (A) (A) (A) (A) (A) (A) (A) (A) (A)
                 (A) (A) (A) (A) (A) (A) (A) (A) (A) (A) (A) (A)
                 (A) (A) (A) (A) (A) (A) (A) (A) (A) (A) (A) (A)
                 (A) (A) (A) (A) (A) (A) (A) (A) (A) (A) (A) (A)
                 (A) (A) (A) (A) (A) (A) (A) (A) (A) (A) (A) (A)
                 (A) (A) (A) (A) (A) (A) (A) (A) (A) (A) (A) (A)
                 (A) (A) (A) (A) (A) (A) (A) (A) (A) (A) (A) (A)
                 (A) (A) (A) (A) (A) (A) (A) (A) (A) (A) (A) (A)
                 (A) (A) (A) (A) (A) (A) (A) (A) (A) (A) (A) (A)
                 (A) (A) (A) (A) (A) (A) (A) (A) (A) (A) (A) (A)
                 (A) (A) (A) (A) (A) (A) (A) (A) (A) (A) (A) (A)
                 (A) (A) (A) (A) (A) (A) (A) (A) (A) (A) (A) (A)
                 (A) (A) (A) (A) (A) (A) (A) (A) (A) (A) (A) (A)
                 (A) (A) (A) (A) (A) (A) (A) (A) (A) (A) (A) (A)
                 (A) (A) (A) (A) (A) (A) (A) (A) (A) (A) (A) (A)
                 (A) (A) (A) (A) (A) (A) (A) (A) (A) (A) (A) (A)
                 (A) (A) (A) (A) (A) (A) (A) (A) (A) (A) (A) (A)
                 (A) (A) (A) (A) (A) (A) (A) (A)
 The electronic state is 6-A.
 Alpha  occ. eigenvalues -- -256.40222 -89.07923 -30.28987 -26.13763 -26.11593
 Alpha  occ. eigenvalues --  -26.11459 -19.29207 -14.46842 -14.46767 -14.46622
 Alpha  occ. eigenvalues --  -14.46618 -10.35083 -10.34988 -10.34962 -10.34931
 Alpha  occ. eigenvalues --  -10.34443 -10.34337 -10.34210 -10.34079 -10.33378
 Alpha  occ. eigenvalues --  -10.31194 -10.30899 -10.30897 -10.30849 -10.30791
 Alpha  occ. eigenvalues --  -10.30689 -10.30665 -10.30512 -10.30406 -10.30357
 Alpha  occ. eigenvalues --  -10.29737 -10.29403 -10.29052 -10.28760 -10.28753
 Alpha  occ. eigenvalues --  -10.28724 -10.28640 -10.28519 -10.28476 -10.28461
 Alpha  occ. eigenvalues --  -10.28279 -10.28184  -8.10904  -6.05423  -6.05171
 Alpha  occ. eigenvalues --   -6.04766  -3.71199  -2.51503  -2.45723  -2.45473
 Alpha  occ. eigenvalues --   -1.17369  -1.10551  -1.09703  -1.09373  -1.08546
 Alpha  occ. eigenvalues --   -0.94943  -0.93459  -0.93115  -0.92746  -0.92417
 Alpha  occ. eigenvalues --   -0.92360  -0.92037  -0.91930  -0.87967  -0.86543
 Alpha  occ. eigenvalues --   -0.86286  -0.85491  -0.83961  -0.82366  -0.81255
 Alpha  occ. eigenvalues --   -0.79798  -0.79616  -0.79225  -0.78233  -0.76601
 Alpha  occ. eigenvalues --   -0.76403  -0.72811  -0.71788  -0.71164  -0.70195
 Alpha  occ. eigenvalues --   -0.69302  -0.66535  -0.65780  -0.64791  -0.64697
 Alpha  occ. eigenvalues --   -0.63142  -0.63069  -0.62767  -0.60658  -0.59482
 Alpha  occ. eigenvalues --   -0.59415  -0.58915  -0.58013  -0.57245  -0.57120
 Alpha  occ. eigenvalues --   -0.56425  -0.56101  -0.55535  -0.55338  -0.55013
 Alpha  occ. eigenvalues --   -0.54603  -0.54386  -0.54144  -0.53878  -0.53327
 Alpha  occ. eigenvalues --   -0.53055  -0.52608  -0.52378  -0.51994  -0.51794
 Alpha  occ. eigenvalues --   -0.51650  -0.51469  -0.51245  -0.51213  -0.51064
 Alpha  occ. eigenvalues --   -0.50744  -0.50348  -0.49863  -0.49772  -0.49697
 Alpha  occ. eigenvalues --   -0.49341  -0.49273  -0.48953  -0.48917  -0.48740
 Alpha  occ. eigenvalues --   -0.48338  -0.47757  -0.47706  -0.47174  -0.46187
 Alpha  occ. eigenvalues --   -0.46114  -0.45548  -0.44945  -0.44658  -0.44341
 Alpha  occ. eigenvalues --   -0.44040  -0.43619  -0.42909  -0.42343  -0.41318
 Alpha  occ. eigenvalues --   -0.40907  -0.39509  -0.39144  -0.36352  -0.35054
 Alpha  occ. eigenvalues --   -0.34878  -0.33779  -0.33560  -0.32074  -0.31201
 Alpha  occ. eigenvalues --   -0.23250
 Alpha virt. eigenvalues --   -0.20250  -0.19060  -0.14003  -0.10480  -0.10262
 Alpha virt. eigenvalues --   -0.09402  -0.08221  -0.07500  -0.06480  -0.04945
 Alpha virt. eigenvalues --   -0.04526  -0.04277  -0.03830  -0.03504  -0.02994
 Alpha virt. eigenvalues --   -0.02103  -0.02004  -0.01845  -0.00750  -0.00590
 Alpha virt. eigenvalues --   -0.00252  -0.00048   0.00089   0.00479   0.00772
 Alpha virt. eigenvalues --    0.01124   0.01513   0.01690   0.01885   0.02037
 Alpha virt. eigenvalues --    0.02183   0.02672   0.03051   0.03405   0.03746
 Alpha virt. eigenvalues --    0.03782   0.03894   0.04292   0.04334   0.04706
 Alpha virt. eigenvalues --    0.04999   0.05356   0.05477   0.05892   0.06083
 Alpha virt. eigenvalues --    0.06283   0.06568   0.06803   0.06922   0.06974
 Alpha virt. eigenvalues --    0.07249   0.07428   0.07606   0.07992   0.08237
 Alpha virt. eigenvalues --    0.08356   0.08498   0.09009   0.09319   0.09754
 Alpha virt. eigenvalues --    0.09995   0.10164   0.10266   0.10599   0.10753
 Alpha virt. eigenvalues --    0.11203   0.11622   0.11820   0.11910   0.12402
 Alpha virt. eigenvalues --    0.12652   0.12961   0.13088   0.13584   0.13738
 Alpha virt. eigenvalues --    0.14124   0.14352   0.14802   0.14928   0.15711
 Alpha virt. eigenvalues --    0.15840   0.16114   0.16369   0.16552   0.16649
 Alpha virt. eigenvalues --    0.16824   0.17036   0.17436   0.17587   0.17852
 Alpha virt. eigenvalues --    0.18536   0.18651   0.18883   0.19017   0.19530
 Alpha virt. eigenvalues --    0.19786   0.19868   0.20076   0.20390   0.20766
 Alpha virt. eigenvalues --    0.21033   0.21265   0.21366   0.21679   0.22044
 Alpha virt. eigenvalues --    0.22387   0.22556   0.22805   0.23371   0.23710
 Alpha virt. eigenvalues --    0.24017   0.24153   0.24411   0.24736   0.25485
 Alpha virt. eigenvalues --    0.25599   0.25837   0.26175   0.26526   0.26606
 Alpha virt. eigenvalues --    0.26889   0.27473   0.27680   0.27992   0.28289
 Alpha virt. eigenvalues --    0.28574   0.28902   0.29264   0.29356   0.29559
 Alpha virt. eigenvalues --    0.29901   0.29960   0.30175   0.30485   0.30659
 Alpha virt. eigenvalues --    0.31236   0.31292   0.31483   0.31666   0.32218
 Alpha virt. eigenvalues --    0.32378   0.32596   0.32723   0.32901   0.33266
 Alpha virt. eigenvalues --    0.33425   0.33812   0.34025   0.34362   0.34594
 Alpha virt. eigenvalues --    0.34880   0.34922   0.35523   0.35615   0.36023
 Alpha virt. eigenvalues --    0.36073   0.36530   0.36848   0.37040   0.37365
 Alpha virt. eigenvalues --    0.37387   0.37696   0.37916   0.38045   0.38432
 Alpha virt. eigenvalues --    0.38673   0.38851   0.39054   0.39379   0.39595
 Alpha virt. eigenvalues --    0.39745   0.40198   0.40359   0.40762   0.40952
 Alpha virt. eigenvalues --    0.41080   0.41307   0.41540   0.42013   0.42157
 Alpha virt. eigenvalues --    0.42352   0.42548   0.42693   0.42974   0.43032
 Alpha virt. eigenvalues --    0.43318   0.43512   0.43682   0.43953   0.44349
 Alpha virt. eigenvalues --    0.44528   0.44632   0.44987   0.45197   0.45406
 Alpha virt. eigenvalues --    0.46092   0.46195   0.46556   0.46908   0.47085
 Alpha virt. eigenvalues --    0.47292   0.47624   0.47804   0.48095   0.48200
 Alpha virt. eigenvalues --    0.48672   0.49672   0.50085   0.50436   0.50582
 Alpha virt. eigenvalues --    0.50854   0.50935   0.51232   0.51579   0.51715
 Alpha virt. eigenvalues --    0.52437   0.52535   0.52943   0.52993   0.53164
 Alpha virt. eigenvalues --    0.53672   0.53827   0.54151   0.54521   0.54852
 Alpha virt. eigenvalues --    0.55149   0.55407   0.55622   0.56212   0.56327
 Alpha virt. eigenvalues --    0.56546   0.56720   0.57082   0.57374   0.57740
 Alpha virt. eigenvalues --    0.58144   0.58818   0.59063   0.59463   0.59746
 Alpha virt. eigenvalues --    0.59843   0.60382   0.60710   0.60950   0.61282
 Alpha virt. eigenvalues --    0.62071   0.62261   0.62574   0.62780   0.62813
 Alpha virt. eigenvalues --    0.63188   0.63476   0.63846   0.64249   0.64870
 Alpha virt. eigenvalues --    0.65082   0.65686   0.66036   0.66295   0.66708
 Alpha virt. eigenvalues --    0.66947   0.67374   0.67690   0.68094   0.68216
 Alpha virt. eigenvalues --    0.68525   0.68970   0.69438   0.69874   0.70102
 Alpha virt. eigenvalues --    0.70225   0.70749   0.71515   0.71882   0.71949
 Alpha virt. eigenvalues --    0.72795   0.73239   0.73496   0.73839   0.74437
 Alpha virt. eigenvalues --    0.74460   0.75496   0.75740   0.76071   0.76444
 Alpha virt. eigenvalues --    0.77051   0.77691   0.78363   0.78595   0.79444
 Alpha virt. eigenvalues --    0.79670   0.80075   0.80616   0.80756   0.80964
 Alpha virt. eigenvalues --    0.81397   0.81718   0.81933   0.82230   0.82661
 Alpha virt. eigenvalues --    0.83253   0.83790   0.83924   0.84350   0.84471
 Alpha virt. eigenvalues --    0.84916   0.85468   0.86121   0.86784   0.87048
 Alpha virt. eigenvalues --    0.87385   0.87585   0.87807   0.88185   0.88384
 Alpha virt. eigenvalues --    0.88569   0.89064   0.89176   0.89976   0.90243
 Alpha virt. eigenvalues --    0.90674   0.90898   0.91222   0.91309   0.91931
 Alpha virt. eigenvalues --    0.92090   0.92414   0.92856   0.93001   0.93185
 Alpha virt. eigenvalues --    0.93576   0.93865   0.94138   0.94433   0.94983
 Alpha virt. eigenvalues --    0.95372   0.95793   0.96218   0.96321   0.96966
 Alpha virt. eigenvalues --    0.97278   0.98160   0.98765   0.99246   0.99562
 Alpha virt. eigenvalues --    1.00062   1.01215   1.01582   1.01859   1.02308
 Alpha virt. eigenvalues --    1.02793   1.03628   1.04161   1.04910   1.05627
 Alpha virt. eigenvalues --    1.06065   1.06242   1.06629   1.07106   1.07541
 Alpha virt. eigenvalues --    1.07996   1.08281   1.08400   1.08792   1.09312
 Alpha virt. eigenvalues --    1.09624   1.09956   1.10372   1.10643   1.10904
 Alpha virt. eigenvalues --    1.11316   1.11936   1.12650   1.13097   1.13636
 Alpha virt. eigenvalues --    1.13926   1.14784   1.15039   1.15236   1.15709
 Alpha virt. eigenvalues --    1.15724   1.16606   1.16971   1.17360   1.17635
 Alpha virt. eigenvalues --    1.17890   1.18305   1.18479   1.19155   1.20128
 Alpha virt. eigenvalues --    1.20394   1.21013   1.21711   1.22514   1.22793
 Alpha virt. eigenvalues --    1.23103   1.24956   1.25158   1.25663   1.26195
 Alpha virt. eigenvalues --    1.26218   1.26824   1.27604   1.28596   1.29704
 Alpha virt. eigenvalues --    1.29995   1.30650   1.31111   1.31566   1.31835
 Alpha virt. eigenvalues --    1.32336   1.33384   1.33543   1.33921   1.34275
 Alpha virt. eigenvalues --    1.34423   1.34867   1.35647   1.35768   1.35979
 Alpha virt. eigenvalues --    1.36915   1.37137   1.37449   1.38474   1.38652
 Alpha virt. eigenvalues --    1.38996   1.39093   1.39962   1.40057   1.40108
 Alpha virt. eigenvalues --    1.40380   1.40693   1.41201   1.41306   1.41592
 Alpha virt. eigenvalues --    1.42395   1.42850   1.42929   1.43535   1.43918
 Alpha virt. eigenvalues --    1.44220   1.44607   1.44777   1.44918   1.45188
 Alpha virt. eigenvalues --    1.45490   1.45757   1.45924   1.46270   1.46548
 Alpha virt. eigenvalues --    1.46722   1.47084   1.47174   1.47509   1.47515
 Alpha virt. eigenvalues --    1.48013   1.48587   1.48827   1.49097   1.49238
 Alpha virt. eigenvalues --    1.49626   1.50133   1.50556   1.50968   1.51276
 Alpha virt. eigenvalues --    1.51538   1.51869   1.52219   1.52416   1.52505
 Alpha virt. eigenvalues --    1.53070   1.53422   1.53931   1.54155   1.54536
 Alpha virt. eigenvalues --    1.54665   1.54882   1.55294   1.55581   1.55735
 Alpha virt. eigenvalues --    1.56202   1.56845   1.57129   1.57687   1.58222
 Alpha virt. eigenvalues --    1.58422   1.58585   1.58892   1.59200   1.59522
 Alpha virt. eigenvalues --    1.59807   1.60184   1.60431   1.60760   1.61147
 Alpha virt. eigenvalues --    1.61866   1.62420   1.62658   1.62994   1.63383
 Alpha virt. eigenvalues --    1.63785   1.63830   1.64644   1.65365   1.65722
 Alpha virt. eigenvalues --    1.66740   1.67233   1.67461   1.67772   1.68313
 Alpha virt. eigenvalues --    1.69392   1.69703   1.70798   1.70901   1.71343
 Alpha virt. eigenvalues --    1.71968   1.72245   1.72707   1.73387   1.73532
 Alpha virt. eigenvalues --    1.74320   1.74697   1.75207   1.75572   1.75986
 Alpha virt. eigenvalues --    1.76350   1.77078   1.77823   1.77862   1.78107
 Alpha virt. eigenvalues --    1.78247   1.78760   1.79501   1.79957   1.80294
 Alpha virt. eigenvalues --    1.80908   1.81080   1.81715   1.82079   1.82950
 Alpha virt. eigenvalues --    1.83730   1.84073   1.84593   1.84873   1.85058
 Alpha virt. eigenvalues --    1.86057   1.86561   1.86811   1.87768   1.87836
 Alpha virt. eigenvalues --    1.88381   1.88730   1.88991   1.89275   1.89939
 Alpha virt. eigenvalues --    1.90172   1.90447   1.91081   1.91415   1.91990
 Alpha virt. eigenvalues --    1.92389   1.93267   1.93586   1.94698   1.95295
 Alpha virt. eigenvalues --    1.95710   1.95927   1.96437   1.96863   1.97975
 Alpha virt. eigenvalues --    1.98130   1.98253   1.98427   1.99429   2.00330
 Alpha virt. eigenvalues --    2.00479   2.00571   2.01111   2.01698   2.02007
 Alpha virt. eigenvalues --    2.02460   2.03002   2.04029   2.04359   2.04685
 Alpha virt. eigenvalues --    2.05098   2.05984   2.06942   2.07063   2.07979
 Alpha virt. eigenvalues --    2.08005   2.08305   2.09146   2.09487   2.10153
 Alpha virt. eigenvalues --    2.10423   2.10762   2.11882   2.11981   2.12912
 Alpha virt. eigenvalues --    2.13510   2.13961   2.14355   2.14690   2.15365
 Alpha virt. eigenvalues --    2.15489   2.16189   2.16267   2.16935   2.17865
 Alpha virt. eigenvalues --    2.18088   2.18433   2.18807   2.19292   2.20031
 Alpha virt. eigenvalues --    2.20581   2.20701   2.21053   2.21352   2.21928
 Alpha virt. eigenvalues --    2.22408   2.23602   2.24182   2.24757   2.24896
 Alpha virt. eigenvalues --    2.25304   2.25897   2.26126   2.26496   2.26939
 Alpha virt. eigenvalues --    2.27066   2.27179   2.27603   2.27977   2.28635
 Alpha virt. eigenvalues --    2.29093   2.29219   2.29973   2.30321   2.30668
 Alpha virt. eigenvalues --    2.31062   2.31265   2.31758   2.32550   2.33851
 Alpha virt. eigenvalues --    2.33989   2.34360   2.35104   2.35399   2.35711
 Alpha virt. eigenvalues --    2.35912   2.36453   2.36778   2.36980   2.37702
 Alpha virt. eigenvalues --    2.38298   2.38879   2.39228   2.40008   2.41006
 Alpha virt. eigenvalues --    2.41782   2.42539   2.42965   2.43111   2.43314
 Alpha virt. eigenvalues --    2.43687   2.43912   2.44297   2.44802   2.45182
 Alpha virt. eigenvalues --    2.46017   2.46186   2.46471   2.46825   2.47136
 Alpha virt. eigenvalues --    2.47451   2.47870   2.47982   2.48453   2.49203
 Alpha virt. eigenvalues --    2.49336   2.49501   2.50341   2.50687   2.51069
 Alpha virt. eigenvalues --    2.51314   2.51628   2.51979   2.52573   2.53027
 Alpha virt. eigenvalues --    2.53991   2.54282   2.54504   2.54997   2.55203
 Alpha virt. eigenvalues --    2.55531   2.56100   2.56239   2.56819   2.57283
 Alpha virt. eigenvalues --    2.57627   2.57775   2.58211   2.58966   2.59227
 Alpha virt. eigenvalues --    2.59782   2.60009   2.60335   2.60566   2.61099
 Alpha virt. eigenvalues --    2.62225   2.62369   2.62978   2.63179   2.63862
 Alpha virt. eigenvalues --    2.63954   2.64551   2.65427   2.65502   2.66545
 Alpha virt. eigenvalues --    2.67104   2.67193   2.67550   2.68057   2.68364
 Alpha virt. eigenvalues --    2.69351   2.69725   2.70118   2.70350   2.70653
 Alpha virt. eigenvalues --    2.71188   2.71718   2.71835   2.72059   2.72466
 Alpha virt. eigenvalues --    2.73335   2.73840   2.74033   2.74324   2.74617
 Alpha virt. eigenvalues --    2.75394   2.75869   2.76194   2.77053   2.77201
 Alpha virt. eigenvalues --    2.77805   2.78395   2.78846   2.79187   2.79562
 Alpha virt. eigenvalues --    2.79712   2.79936   2.80656   2.80983   2.81633
 Alpha virt. eigenvalues --    2.82569   2.82604   2.83147   2.83650   2.83809
 Alpha virt. eigenvalues --    2.84180   2.84360   2.84976   2.85339   2.85717
 Alpha virt. eigenvalues --    2.85946   2.86156   2.86393   2.87309   2.87850
 Alpha virt. eigenvalues --    2.88217   2.88864   2.89516   2.89707   2.90161
 Alpha virt. eigenvalues --    2.90712   2.91555   2.91944   2.92289   2.92487
 Alpha virt. eigenvalues --    2.93583   2.93875   2.93964   2.94522   2.95047
 Alpha virt. eigenvalues --    2.95594   2.95663   2.95953   2.96718   2.97052
 Alpha virt. eigenvalues --    2.97267   2.97884   2.98241   2.98324   2.98649
 Alpha virt. eigenvalues --    2.99518   2.99595   2.99907   3.00268   3.00667
 Alpha virt. eigenvalues --    3.01067   3.01401   3.01698   3.02109   3.02378
 Alpha virt. eigenvalues --    3.02843   3.03461   3.04011   3.04279   3.04693
 Alpha virt. eigenvalues --    3.04896   3.05444   3.05655   3.06154   3.06292
 Alpha virt. eigenvalues --    3.07001   3.07477   3.08145   3.08521   3.08645
 Alpha virt. eigenvalues --    3.08925   3.09250   3.09564   3.09785   3.10153
 Alpha virt. eigenvalues --    3.10421   3.10790   3.10971   3.11102   3.11527
 Alpha virt. eigenvalues --    3.11881   3.12110   3.12452   3.13216   3.13327
 Alpha virt. eigenvalues --    3.14026   3.14323   3.14490   3.14820   3.14907
 Alpha virt. eigenvalues --    3.15656   3.15844   3.15884   3.16026   3.16673
 Alpha virt. eigenvalues --    3.16969   3.17003   3.17782   3.18042   3.18171
 Alpha virt. eigenvalues --    3.18653   3.19176   3.19670   3.19902   3.20503
 Alpha virt. eigenvalues --    3.20610   3.20870   3.21217   3.21324   3.21778
 Alpha virt. eigenvalues --    3.22194   3.22479   3.22667   3.22854   3.23357
 Alpha virt. eigenvalues --    3.23595   3.24064   3.24278   3.24567   3.24679
 Alpha virt. eigenvalues --    3.24838   3.25240   3.25715   3.25961   3.26243
 Alpha virt. eigenvalues --    3.26557   3.26678   3.26924   3.27434   3.27758
 Alpha virt. eigenvalues --    3.28117   3.28339   3.28676   3.29137   3.29278
 Alpha virt. eigenvalues --    3.29459   3.29687   3.30074   3.30697   3.31112
 Alpha virt. eigenvalues --    3.31482   3.31694   3.31842   3.32800   3.33221
 Alpha virt. eigenvalues --    3.33559   3.33875   3.34036   3.34711   3.34812
 Alpha virt. eigenvalues --    3.35158   3.35593   3.36567   3.36612   3.36989
 Alpha virt. eigenvalues --    3.37802   3.38347   3.38849   3.39363   3.39998
 Alpha virt. eigenvalues --    3.40769   3.41227   3.41465   3.42326   3.42574
 Alpha virt. eigenvalues --    3.43025   3.44193   3.44583   3.45243   3.45520
 Alpha virt. eigenvalues --    3.46126   3.46748   3.46941   3.47460   3.47821
 Alpha virt. eigenvalues --    3.48105   3.48796   3.49137   3.49681   3.50362
 Alpha virt. eigenvalues --    3.50872   3.51342   3.51521   3.52167   3.52970
 Alpha virt. eigenvalues --    3.53396   3.53926   3.54660   3.54925   3.55520
 Alpha virt. eigenvalues --    3.55994   3.56884   3.56927   3.57677   3.58586
 Alpha virt. eigenvalues --    3.59295   3.59481   3.60033   3.60334   3.60496
 Alpha virt. eigenvalues --    3.60920   3.61414   3.61933   3.62440   3.63053
 Alpha virt. eigenvalues --    3.63191   3.63733   3.64118   3.64305   3.64600
 Alpha virt. eigenvalues --    3.65766   3.65859   3.66884   3.67203   3.67445
 Alpha virt. eigenvalues --    3.67523   3.68929   3.69378   3.70509   3.71529
 Alpha virt. eigenvalues --    3.71680   3.71896   3.72561   3.73048   3.73913
 Alpha virt. eigenvalues --    3.74384   3.75192   3.75552   3.75962   3.76612
 Alpha virt. eigenvalues --    3.76935   3.77359   3.78189   3.79011   3.79825
 Alpha virt. eigenvalues --    3.80436   3.80824   3.81845   3.82092   3.84485
 Alpha virt. eigenvalues --    3.85104   3.85677   3.86048   3.86396   3.87072
 Alpha virt. eigenvalues --    3.87908   3.88346   3.88902   3.89106   3.89528
 Alpha virt. eigenvalues --    3.89801   3.90395   3.90977   3.91422   3.91846
 Alpha virt. eigenvalues --    3.93412   3.93810   3.94076   3.95271   3.95882
 Alpha virt. eigenvalues --    3.96618   3.97743   3.97912   3.98383   3.98683
 Alpha virt. eigenvalues --    3.99673   4.00578   4.00990   4.01323   4.02001
 Alpha virt. eigenvalues --    4.02552   4.03589   4.04497   4.04643   4.05050
 Alpha virt. eigenvalues --    4.05845   4.06179   4.06890   4.07032   4.07962
 Alpha virt. eigenvalues --    4.08568   4.09242   4.09878   4.10501   4.10902
 Alpha virt. eigenvalues --    4.11593   4.12130   4.12374   4.13040   4.13502
 Alpha virt. eigenvalues --    4.14118   4.15310   4.16288   4.17409   4.17968
 Alpha virt. eigenvalues --    4.18624   4.19175   4.19367   4.19973   4.20521
 Alpha virt. eigenvalues --    4.21647   4.21858   4.22338   4.22783   4.23325
 Alpha virt. eigenvalues --    4.23539   4.25030   4.25816   4.26259   4.27211
 Alpha virt. eigenvalues --    4.28231   4.29059   4.29881   4.30197   4.30441
 Alpha virt. eigenvalues --    4.30912   4.31618   4.32705   4.32984   4.33322
 Alpha virt. eigenvalues --    4.34144   4.34471   4.34983   4.36226   4.37089
 Alpha virt. eigenvalues --    4.37342   4.38569   4.39679   4.40544   4.40912
 Alpha virt. eigenvalues --    4.41976   4.42412   4.43001   4.43738   4.44589
 Alpha virt. eigenvalues --    4.45654   4.46342   4.47140   4.47523   4.50362
 Alpha virt. eigenvalues --    4.51735   4.52174   4.53385   4.54361   4.55690
 Alpha virt. eigenvalues --    4.55816   4.56990   4.57239   4.57794   4.59204
 Alpha virt. eigenvalues --    4.60598   4.62341   4.63132   4.63815   4.64801
 Alpha virt. eigenvalues --    4.66542   4.67623   4.68433   4.70838   4.70894
 Alpha virt. eigenvalues --    4.71161   4.72263   4.72514   4.72817   4.73814
 Alpha virt. eigenvalues --    4.74390   4.75518   4.75996   4.76789   4.77621
 Alpha virt. eigenvalues --    4.79481   4.80384   4.81027   4.81740   4.82291
 Alpha virt. eigenvalues --    4.84410   4.84491   4.87297   4.88143   4.89472
 Alpha virt. eigenvalues --    4.90114   4.90810   4.91529   4.92077   4.92853
 Alpha virt. eigenvalues --    4.93470   4.94756   4.95512   4.97234   4.97492
 Alpha virt. eigenvalues --    5.01334   5.01842   5.03529   5.04502   5.05156
 Alpha virt. eigenvalues --    5.07807   5.09101   5.09162   5.10637   5.11080
 Alpha virt. eigenvalues --    5.11972   5.13103   5.13886   5.15155   5.15802
 Alpha virt. eigenvalues --    5.16721   5.22807   5.23750   5.24285   5.25006
 Alpha virt. eigenvalues --    5.25801   5.26291   5.26609   5.27079   5.27738
 Alpha virt. eigenvalues --    5.30552   5.35270   5.35652   5.36987   5.37849
 Alpha virt. eigenvalues --    5.39131   5.39429   5.40983   5.43172   5.46347
 Alpha virt. eigenvalues --    5.47429   5.48507   5.49379   5.50360   5.51557
 Alpha virt. eigenvalues --    5.54065   5.55240   5.56022   5.59463   5.62661
 Alpha virt. eigenvalues --    5.62864   5.64968   5.66096   5.73206   5.74269
 Alpha virt. eigenvalues --    5.77084   5.78372   5.87408   5.88420   5.89075
 Alpha virt. eigenvalues --    5.95946   5.97708   5.98026   5.99403   6.05567
 Alpha virt. eigenvalues --    6.11472   6.12452   6.19892   6.20943   6.28332
 Alpha virt. eigenvalues --    6.35416   6.39010   6.40093   6.53458   6.84728
 Alpha virt. eigenvalues --    7.16114   8.95667   9.12559   9.28273  19.48395
 Alpha virt. eigenvalues --   22.22083  22.25994  22.26362  22.36009  22.36697
 Alpha virt. eigenvalues --   22.42542  22.43634  22.52180  22.52509  22.73067
 Alpha virt. eigenvalues --   22.76317  22.79776  22.80824  22.83523  22.84063
 Alpha virt. eigenvalues --   22.84845  22.91663  22.93211  23.03413  23.14061
 Alpha virt. eigenvalues --   23.18344  23.19163  23.27573  23.29540  23.38103
 Alpha virt. eigenvalues --   23.39230  23.43500  23.62301  23.66523  23.67112
 Alpha virt. eigenvalues --   23.75760  32.74509  32.77535  32.79719  32.90161
 Alpha virt. eigenvalues --   43.79746
  Beta  occ. eigenvalues -- -256.40118 -89.07820 -30.22794 -26.07428 -26.07317
  Beta  occ. eigenvalues --  -26.06560 -19.29047 -14.46904 -14.46803 -14.46696
  Beta  occ. eigenvalues --  -14.46691 -10.34883 -10.34815 -10.34744 -10.34738
  Beta  occ. eigenvalues --  -10.33964 -10.33886 -10.33754 -10.33605 -10.33376
  Beta  occ. eigenvalues --  -10.31240 -10.30954 -10.30930 -10.30903 -10.30815
  Beta  occ. eigenvalues --  -10.30766 -10.30654 -10.30469 -10.30224 -10.30141
  Beta  occ. eigenvalues --  -10.29747 -10.29472 -10.29048 -10.28773 -10.28637
  Beta  occ. eigenvalues --  -10.28514 -10.28507 -10.28473 -10.28461 -10.28437
  Beta  occ. eigenvalues --  -10.28292 -10.28049  -8.10799  -6.05354  -6.05055
  Beta  occ. eigenvalues --   -6.04523  -3.56409  -2.32953  -2.32789  -2.29606
  Beta  occ. eigenvalues --   -1.17101  -1.10130  -1.09279  -1.08957  -1.08129
  Beta  occ. eigenvalues --   -0.94348  -0.93264  -0.92902  -0.92531  -0.92142
  Beta  occ. eigenvalues --   -0.91983  -0.91770  -0.91242  -0.87607  -0.86383
  Beta  occ. eigenvalues --   -0.86014  -0.85261  -0.83808  -0.82117  -0.81073
  Beta  occ. eigenvalues --   -0.79576  -0.79294  -0.79100  -0.77951  -0.76143
  Beta  occ. eigenvalues --   -0.75777  -0.72651  -0.71592  -0.70947  -0.69714
  Beta  occ. eigenvalues --   -0.69032  -0.66254  -0.65570  -0.64592  -0.64417
  Beta  occ. eigenvalues --   -0.62943  -0.62848  -0.62551  -0.60299  -0.59328
  Beta  occ. eigenvalues --   -0.59123  -0.58214  -0.57034  -0.56744  -0.55776
  Beta  occ. eigenvalues --   -0.55489  -0.55088  -0.54806  -0.54495  -0.54424
  Beta  occ. eigenvalues --   -0.54277  -0.53923  -0.53462  -0.53335  -0.53078
  Beta  occ. eigenvalues --   -0.52873  -0.51826  -0.51605  -0.51286  -0.51228
  Beta  occ. eigenvalues --   -0.51053  -0.51017  -0.50713  -0.50597  -0.50236
  Beta  occ. eigenvalues --   -0.50073  -0.49816  -0.49539  -0.49215  -0.48910
  Beta  occ. eigenvalues --   -0.48639  -0.48345  -0.48064  -0.47906  -0.47597
  Beta  occ. eigenvalues --   -0.47112  -0.46871  -0.45982  -0.45950  -0.45187
  Beta  occ. eigenvalues --   -0.44556  -0.43659  -0.43272  -0.43051  -0.42737
  Beta  occ. eigenvalues --   -0.41036  -0.40464  -0.39806  -0.38076  -0.37767
  Beta  occ. eigenvalues --   -0.37269  -0.35494  -0.34888  -0.33533  -0.33103
  Beta  occ. eigenvalues --   -0.30682
  Beta virt. eigenvalues --   -0.25557  -0.20886  -0.20257  -0.17017  -0.16105
  Beta virt. eigenvalues --   -0.15765  -0.12364  -0.11763  -0.09763  -0.09389
  Beta virt. eigenvalues --   -0.08183  -0.07565  -0.06101  -0.05767  -0.04618
  Beta virt. eigenvalues --   -0.04205  -0.03591  -0.02977  -0.02767  -0.02472
  Beta virt. eigenvalues --   -0.01926  -0.01679  -0.01068  -0.00512  -0.00428
  Beta virt. eigenvalues --    0.00024   0.00306   0.00543   0.00985   0.01231
  Beta virt. eigenvalues --    0.01602   0.01923   0.02100   0.02171   0.02743
  Beta virt. eigenvalues --    0.02889   0.03037   0.03270   0.03733   0.03894
  Beta virt. eigenvalues --    0.04001   0.04261   0.04448   0.04808   0.04871
  Beta virt. eigenvalues --    0.05250   0.05528   0.05784   0.06035   0.06293
  Beta virt. eigenvalues --    0.06564   0.06827   0.07074   0.07165   0.07171
  Beta virt. eigenvalues --    0.07467   0.07810   0.07939   0.08351   0.08460
  Beta virt. eigenvalues --    0.08534   0.08764   0.09218   0.09530   0.10044
  Beta virt. eigenvalues --    0.10173   0.10400   0.10467   0.10773   0.10995
  Beta virt. eigenvalues --    0.11454   0.11925   0.12016   0.12160   0.12690
  Beta virt. eigenvalues --    0.12861   0.13199   0.13288   0.13881   0.14073
  Beta virt. eigenvalues --    0.14462   0.14736   0.15146   0.15381   0.15924
  Beta virt. eigenvalues --    0.16050   0.16330   0.16514   0.16936   0.17024
  Beta virt. eigenvalues --    0.17198   0.17366   0.17729   0.17965   0.18194
  Beta virt. eigenvalues --    0.18791   0.19028   0.19187   0.19291   0.19794
  Beta virt. eigenvalues --    0.20048   0.20238   0.20318   0.20746   0.20991
  Beta virt. eigenvalues --    0.21455   0.21574   0.21789   0.21942   0.22335
  Beta virt. eigenvalues --    0.22761   0.22976   0.23084   0.23785   0.24155
  Beta virt. eigenvalues --    0.24294   0.24454   0.24980   0.25307   0.25860
  Beta virt. eigenvalues --    0.25892   0.26223   0.26663   0.26898   0.26946
  Beta virt. eigenvalues --    0.27214   0.27787   0.27972   0.28335   0.28692
  Beta virt. eigenvalues --    0.28996   0.29226   0.29582   0.29678   0.29884
  Beta virt. eigenvalues --    0.30183   0.30314   0.30545   0.30734   0.31006
  Beta virt. eigenvalues --    0.31531   0.31623   0.31733   0.32082   0.32472
  Beta virt. eigenvalues --    0.32692   0.32751   0.33068   0.33194   0.33465
  Beta virt. eigenvalues --    0.33713   0.34082   0.34254   0.34535   0.34824
  Beta virt. eigenvalues --    0.35086   0.35214   0.35757   0.35885   0.36200
  Beta virt. eigenvalues --    0.36400   0.36766   0.36996   0.37244   0.37520
  Beta virt. eigenvalues --    0.37585   0.37881   0.38093   0.38282   0.38691
  Beta virt. eigenvalues --    0.38923   0.39056   0.39250   0.39555   0.39772
  Beta virt. eigenvalues --    0.39965   0.40421   0.40548   0.40966   0.41131
  Beta virt. eigenvalues --    0.41284   0.41537   0.41790   0.42167   0.42284
  Beta virt. eigenvalues --    0.42527   0.42766   0.42897   0.43145   0.43243
  Beta virt. eigenvalues --    0.43510   0.43787   0.43861   0.44131   0.44607
  Beta virt. eigenvalues --    0.44814   0.44905   0.45268   0.45418   0.45641
  Beta virt. eigenvalues --    0.46298   0.46519   0.46860   0.47205   0.47353
  Beta virt. eigenvalues --    0.47567   0.47902   0.48047   0.48293   0.48499
  Beta virt. eigenvalues --    0.48912   0.50002   0.50356   0.50760   0.50907
  Beta virt. eigenvalues --    0.51123   0.51352   0.51480   0.51905   0.52018
  Beta virt. eigenvalues --    0.52666   0.52805   0.53155   0.53204   0.53424
  Beta virt. eigenvalues --    0.54059   0.54076   0.54502   0.54835   0.55070
  Beta virt. eigenvalues --    0.55463   0.55647   0.55894   0.56444   0.56640
  Beta virt. eigenvalues --    0.56809   0.57072   0.57388   0.57691   0.57993
  Beta virt. eigenvalues --    0.58402   0.59146   0.59454   0.59793   0.60042
  Beta virt. eigenvalues --    0.60125   0.60774   0.61014   0.61266   0.61665
  Beta virt. eigenvalues --    0.62578   0.62615   0.62934   0.62977   0.63326
  Beta virt. eigenvalues --    0.63487   0.63746   0.64176   0.64538   0.65114
  Beta virt. eigenvalues --    0.65390   0.66034   0.66318   0.66724   0.67107
  Beta virt. eigenvalues --    0.67332   0.67627   0.68056   0.68384   0.68560
  Beta virt. eigenvalues --    0.68745   0.69282   0.69789   0.70202   0.70472
  Beta virt. eigenvalues --    0.70569   0.71061   0.71760   0.72233   0.72283
  Beta virt. eigenvalues --    0.73066   0.73498   0.73888   0.74224   0.74706
  Beta virt. eigenvalues --    0.74875   0.75712   0.76151   0.76297   0.76734
  Beta virt. eigenvalues --    0.77434   0.77956   0.78632   0.78904   0.79748
  Beta virt. eigenvalues --    0.79923   0.80402   0.80832   0.81021   0.81260
  Beta virt. eigenvalues --    0.81686   0.81969   0.82373   0.82502   0.82982
  Beta virt. eigenvalues --    0.83501   0.84077   0.84223   0.84592   0.84719
  Beta virt. eigenvalues --    0.85236   0.85759   0.86447   0.87128   0.87381
  Beta virt. eigenvalues --    0.87767   0.87801   0.88132   0.88409   0.88696
  Beta virt. eigenvalues --    0.88919   0.89431   0.89569   0.90409   0.90531
  Beta virt. eigenvalues --    0.90970   0.91174   0.91557   0.91687   0.92197
  Beta virt. eigenvalues --    0.92742   0.92765   0.93072   0.93504   0.93600
  Beta virt. eigenvalues --    0.93910   0.94207   0.94389   0.94790   0.95472
  Beta virt. eigenvalues --    0.95794   0.96210   0.96592   0.96770   0.97453
  Beta virt. eigenvalues --    0.97661   0.98629   0.99242   0.99749   0.99963
  Beta virt. eigenvalues --    1.00293   1.01661   1.01946   1.02295   1.02656
  Beta virt. eigenvalues --    1.03069   1.03919   1.04509   1.05180   1.06126
  Beta virt. eigenvalues --    1.06397   1.06501   1.06996   1.07494   1.07902
  Beta virt. eigenvalues --    1.08247   1.08586   1.08736   1.09034   1.09620
  Beta virt. eigenvalues --    1.10014   1.10243   1.10669   1.10989   1.11325
  Beta virt. eigenvalues --    1.11706   1.12490   1.13029   1.13553   1.14088
  Beta virt. eigenvalues --    1.14735   1.15150   1.15448   1.15856   1.16123
  Beta virt. eigenvalues --    1.16273   1.17006   1.17435   1.17627   1.17868
  Beta virt. eigenvalues --    1.18173   1.18736   1.18851   1.19528   1.20516
  Beta virt. eigenvalues --    1.20859   1.21499   1.22046   1.22999   1.23191
  Beta virt. eigenvalues --    1.23382   1.25395   1.25515   1.26173   1.26533
  Beta virt. eigenvalues --    1.26636   1.27248   1.28072   1.28952   1.30070
  Beta virt. eigenvalues --    1.30453   1.31179   1.31531   1.31995   1.32140
  Beta virt. eigenvalues --    1.32757   1.33879   1.34013   1.34393   1.34705
  Beta virt. eigenvalues --    1.34877   1.35229   1.36026   1.36176   1.36412
  Beta virt. eigenvalues --    1.37261   1.37518   1.37919   1.38838   1.38944
  Beta virt. eigenvalues --    1.39379   1.39389   1.40290   1.40318   1.40518
  Beta virt. eigenvalues --    1.40791   1.41113   1.41656   1.41750   1.41877
  Beta virt. eigenvalues --    1.42631   1.43101   1.43296   1.43783   1.44167
  Beta virt. eigenvalues --    1.44489   1.44844   1.45090   1.45114   1.45366
  Beta virt. eigenvalues --    1.45708   1.46005   1.46157   1.46485   1.46763
  Beta virt. eigenvalues --    1.47098   1.47290   1.47434   1.47689   1.47743
  Beta virt. eigenvalues --    1.48346   1.48888   1.49070   1.49343   1.49519
  Beta virt. eigenvalues --    1.49934   1.50408   1.50747   1.51244   1.51552
  Beta virt. eigenvalues --    1.51979   1.52180   1.52522   1.52758   1.52777
  Beta virt. eigenvalues --    1.53438   1.53739   1.54183   1.54471   1.54779
  Beta virt. eigenvalues --    1.54903   1.55142   1.55536   1.55798   1.55991
  Beta virt. eigenvalues --    1.56484   1.57116   1.57483   1.57889   1.58587
  Beta virt. eigenvalues --    1.58696   1.58978   1.59092   1.59425   1.59789
  Beta virt. eigenvalues --    1.60086   1.60420   1.60687   1.61025   1.61427
  Beta virt. eigenvalues --    1.62124   1.62674   1.62906   1.63243   1.63612
  Beta virt. eigenvalues --    1.64022   1.64134   1.65044   1.65728   1.65987
  Beta virt. eigenvalues --    1.67065   1.67552   1.67805   1.68191   1.68766
  Beta virt. eigenvalues --    1.69677   1.70142   1.71132   1.71173   1.71610
  Beta virt. eigenvalues --    1.72276   1.72664   1.72999   1.73652   1.73861
  Beta virt. eigenvalues --    1.74665   1.75014   1.75575   1.75892   1.76291
  Beta virt. eigenvalues --    1.76947   1.77435   1.78052   1.78258   1.78500
  Beta virt. eigenvalues --    1.78683   1.79075   1.79994   1.80393   1.80798
  Beta virt. eigenvalues --    1.81313   1.81656   1.82159   1.82578   1.83312
  Beta virt. eigenvalues --    1.84129   1.84408   1.84886   1.85249   1.85453
  Beta virt. eigenvalues --    1.86432   1.86994   1.87240   1.88073   1.88269
  Beta virt. eigenvalues --    1.88727   1.89108   1.89263   1.89523   1.90399
  Beta virt. eigenvalues --    1.90419   1.90750   1.91527   1.91866   1.92284
  Beta virt. eigenvalues --    1.92813   1.93617   1.94086   1.95027   1.95673
  Beta virt. eigenvalues --    1.96131   1.96356   1.96770   1.97390   1.98261
  Beta virt. eigenvalues --    1.98526   1.98616   1.98726   1.99802   2.00711
  Beta virt. eigenvalues --    2.00860   2.01123   2.01445   2.02032   2.02296
  Beta virt. eigenvalues --    2.02786   2.03327   2.04377   2.04709   2.05063
  Beta virt. eigenvalues --    2.05582   2.06281   2.07288   2.07536   2.08216
  Beta virt. eigenvalues --    2.08335   2.08809   2.09492   2.09841   2.10495
  Beta virt. eigenvalues --    2.10664   2.11096   2.12135   2.12316   2.13326
  Beta virt. eigenvalues --    2.13905   2.14181   2.14807   2.15146   2.15759
  Beta virt. eigenvalues --    2.15920   2.16421   2.16605   2.17213   2.18326
  Beta virt. eigenvalues --    2.18362   2.18896   2.19166   2.19605   2.20352
  Beta virt. eigenvalues --    2.20898   2.21032   2.21347   2.21849   2.22227
  Beta virt. eigenvalues --    2.22710   2.24013   2.24428   2.24972   2.25367
  Beta virt. eigenvalues --    2.25519   2.26156   2.26615   2.26984   2.27253
  Beta virt. eigenvalues --    2.27294   2.27419   2.27822   2.28261   2.28872
  Beta virt. eigenvalues --    2.29407   2.29770   2.30245   2.30666   2.31153
  Beta virt. eigenvalues --    2.31390   2.32112   2.32465   2.32845   2.34203
  Beta virt. eigenvalues --    2.34399   2.34829   2.35375   2.35669   2.36044
  Beta virt. eigenvalues --    2.36170   2.37024   2.37213   2.37460   2.38138
  Beta virt. eigenvalues --    2.38730   2.39145   2.39547   2.40352   2.41328
  Beta virt. eigenvalues --    2.42102   2.42715   2.43094   2.43445   2.43641
  Beta virt. eigenvalues --    2.44037   2.44174   2.44611   2.45047   2.45474
  Beta virt. eigenvalues --    2.46334   2.46366   2.46658   2.47026   2.47307
  Beta virt. eigenvalues --    2.47724   2.48228   2.48317   2.48732   2.49420
  Beta virt. eigenvalues --    2.49601   2.49748   2.50626   2.50944   2.51324
  Beta virt. eigenvalues --    2.51651   2.51938   2.52190   2.52874   2.53448
  Beta virt. eigenvalues --    2.54400   2.54557   2.54769   2.55356   2.55579
  Beta virt. eigenvalues --    2.55846   2.56337   2.56589   2.57156   2.57559
  Beta virt. eigenvalues --    2.57973   2.58109   2.58517   2.59299   2.59564
  Beta virt. eigenvalues --    2.60042   2.60347   2.60726   2.60867   2.61513
  Beta virt. eigenvalues --    2.62646   2.62857   2.63306   2.63538   2.64215
  Beta virt. eigenvalues --    2.64282   2.64842   2.65712   2.65945   2.66870
  Beta virt. eigenvalues --    2.67467   2.67674   2.67904   2.68396   2.68785
  Beta virt. eigenvalues --    2.69751   2.70130   2.70519   2.70818   2.71031
  Beta virt. eigenvalues --    2.71514   2.71979   2.72198   2.72341   2.72939
  Beta virt. eigenvalues --    2.73611   2.74229   2.74401   2.74643   2.74980
  Beta virt. eigenvalues --    2.75805   2.76237   2.76607   2.77404   2.77550
  Beta virt. eigenvalues --    2.78160   2.78902   2.79229   2.79688   2.79918
  Beta virt. eigenvalues --    2.80226   2.80335   2.81029   2.81423   2.82014
  Beta virt. eigenvalues --    2.82934   2.83154   2.83418   2.83966   2.84477
  Beta virt. eigenvalues --    2.84694   2.84830   2.85357   2.85714   2.86105
  Beta virt. eigenvalues --    2.86251   2.86609   2.86806   2.87699   2.88172
  Beta virt. eigenvalues --    2.88590   2.89259   2.89895   2.89984   2.90528
  Beta virt. eigenvalues --    2.91114   2.91885   2.92336   2.92626   2.92911
  Beta virt. eigenvalues --    2.93990   2.94249   2.94434   2.94990   2.95503
  Beta virt. eigenvalues --    2.96042   2.96097   2.96370   2.97074   2.97380
  Beta virt. eigenvalues --    2.97615   2.98192   2.98541   2.98652   2.98981
  Beta virt. eigenvalues --    2.99849   2.99920   3.00280   3.00703   3.01071
  Beta virt. eigenvalues --    3.01521   3.01812   3.02045   3.02541   3.02941
  Beta virt. eigenvalues --    3.03196   3.03879   3.04330   3.04708   3.05137
  Beta virt. eigenvalues --    3.05317   3.05934   3.06036   3.06514   3.06639
  Beta virt. eigenvalues --    3.07383   3.07824   3.08499   3.08881   3.09018
  Beta virt. eigenvalues --    3.09241   3.09624   3.09959   3.10179   3.10585
  Beta virt. eigenvalues --    3.10759   3.11115   3.11303   3.11482   3.12000
  Beta virt. eigenvalues --    3.12250   3.12452   3.13005   3.13524   3.13642
  Beta virt. eigenvalues --    3.14342   3.14713   3.14881   3.15193   3.15392
  Beta virt. eigenvalues --    3.15946   3.16198   3.16282   3.16392   3.16988
  Beta virt. eigenvalues --    3.17295   3.17464   3.18257   3.18327   3.18515
  Beta virt. eigenvalues --    3.18927   3.19481   3.19938   3.20184   3.20695
  Beta virt. eigenvalues --    3.20934   3.21340   3.21639   3.21705   3.22178
  Beta virt. eigenvalues --    3.22583   3.22925   3.23072   3.23251   3.23664
  Beta virt. eigenvalues --    3.23972   3.24509   3.24715   3.24903   3.25108
  Beta virt. eigenvalues --    3.25226   3.25690   3.26061   3.26372   3.26582
  Beta virt. eigenvalues --    3.26937   3.27103   3.27269   3.27781   3.28134
  Beta virt. eigenvalues --    3.28589   3.28729   3.29149   3.29546   3.29641
  Beta virt. eigenvalues --    3.29870   3.30093   3.30472   3.31098   3.31521
  Beta virt. eigenvalues --    3.31804   3.32216   3.32275   3.33233   3.33710
  Beta virt. eigenvalues --    3.33910   3.34404   3.34476   3.35099   3.35235
  Beta virt. eigenvalues --    3.35493   3.36072   3.36895   3.37023   3.37468
  Beta virt. eigenvalues --    3.38145   3.38762   3.39290   3.39742   3.40342
  Beta virt. eigenvalues --    3.41046   3.41697   3.42077   3.42835   3.43006
  Beta virt. eigenvalues --    3.43471   3.44554   3.44921   3.45674   3.45959
  Beta virt. eigenvalues --    3.46568   3.47122   3.47332   3.47976   3.48174
  Beta virt. eigenvalues --    3.48539   3.49181   3.49532   3.50141   3.50850
  Beta virt. eigenvalues --    3.51433   3.51752   3.52062   3.52692   3.53463
  Beta virt. eigenvalues --    3.53834   3.54480   3.55259   3.55415   3.55933
  Beta virt. eigenvalues --    3.56539   3.57295   3.57486   3.58076   3.58971
  Beta virt. eigenvalues --    3.59735   3.60201   3.60747   3.60832   3.61038
  Beta virt. eigenvalues --    3.61422   3.61838   3.62305   3.63046   3.63489
  Beta virt. eigenvalues --    3.64015   3.64138   3.64584   3.64915   3.65276
  Beta virt. eigenvalues --    3.66179   3.66406   3.67167   3.67722   3.67901
  Beta virt. eigenvalues --    3.68765   3.69648   3.69758   3.71257   3.71966
  Beta virt. eigenvalues --    3.72377   3.73213   3.73542   3.73989   3.74235
  Beta virt. eigenvalues --    3.75306   3.76458   3.76685   3.77003   3.77381
  Beta virt. eigenvalues --    3.77473   3.78693   3.78876   3.79883   3.80897
  Beta virt. eigenvalues --    3.81305   3.81444   3.82563   3.83530   3.85031
  Beta virt. eigenvalues --    3.85562   3.86452   3.86913   3.87649   3.87707
  Beta virt. eigenvalues --    3.88895   3.89047   3.89535   3.89738   3.90614
  Beta virt. eigenvalues --    3.91500   3.91837   3.92643   3.92738   3.93641
  Beta virt. eigenvalues --    3.94104   3.95158   3.95450   3.96351   3.96759
  Beta virt. eigenvalues --    3.98120   3.99018   3.99671   4.00244   4.01021
  Beta virt. eigenvalues --    4.01358   4.02012   4.02406   4.03054   4.04065
  Beta virt. eigenvalues --    4.04411   4.04934   4.05376   4.05835   4.05876
  Beta virt. eigenvalues --    4.06696   4.07261   4.07945   4.08520   4.09007
  Beta virt. eigenvalues --    4.09476   4.10142   4.10714   4.11770   4.12521
  Beta virt. eigenvalues --    4.13110   4.13492   4.14197   4.14709   4.16193
  Beta virt. eigenvalues --    4.16485   4.17240   4.17681   4.18260   4.18908
  Beta virt. eigenvalues --    4.19606   4.19832   4.20040   4.21299   4.22168
  Beta virt. eigenvalues --    4.22326   4.23118   4.23276   4.23997   4.24150
  Beta virt. eigenvalues --    4.25518   4.26094   4.26673   4.27446   4.28189
  Beta virt. eigenvalues --    4.28854   4.30231   4.30556   4.31069   4.31442
  Beta virt. eigenvalues --    4.31946   4.32608   4.33381   4.33563   4.33775
  Beta virt. eigenvalues --    4.34748   4.35084   4.35423   4.36568   4.37504
  Beta virt. eigenvalues --    4.37646   4.38841   4.39974   4.40838   4.41340
  Beta virt. eigenvalues --    4.42290   4.42769   4.43365   4.44124   4.44944
  Beta virt. eigenvalues --    4.45930   4.46658   4.47416   4.47891   4.50638
  Beta virt. eigenvalues --    4.52122   4.52610   4.53649   4.55048   4.55892
  Beta virt. eigenvalues --    4.56022   4.57227   4.57460   4.57963   4.59935
  Beta virt. eigenvalues --    4.60808   4.62570   4.63291   4.64081   4.64987
  Beta virt. eigenvalues --    4.66853   4.68019   4.68781   4.71102   4.71191
  Beta virt. eigenvalues --    4.71691   4.72513   4.72732   4.73215   4.74217
  Beta virt. eigenvalues --    4.74675   4.75728   4.76279   4.77063   4.77872
  Beta virt. eigenvalues --    4.79751   4.80642   4.81303   4.82079   4.82573
  Beta virt. eigenvalues --    4.84675   4.84752   4.87604   4.88463   4.89789
  Beta virt. eigenvalues --    4.90443   4.91120   4.91922   4.92361   4.93173
  Beta virt. eigenvalues --    4.93887   4.95046   4.95815   4.97491   4.97775
  Beta virt. eigenvalues --    5.01576   5.02070   5.03840   5.04904   5.05402
  Beta virt. eigenvalues --    5.08041   5.09366   5.09541   5.10911   5.11470
  Beta virt. eigenvalues --    5.12360   5.13410   5.14122   5.15387   5.16308
  Beta virt. eigenvalues --    5.16968   5.23103   5.24028   5.24631   5.25303
  Beta virt. eigenvalues --    5.26094   5.26582   5.26897   5.27288   5.28028
  Beta virt. eigenvalues --    5.30827   5.35457   5.35898   5.37040   5.37930
[...]
  1252. RY*(  10) C  67                  0.00000     1.52736   
  1253. RY*(  11) C  67                  0.00000     2.90976   
  1254. RY*(  12) C  67                  0.00001     1.59468   
  1255. RY*(  13) C  67                  0.00000     2.75316   
  1256. RY*(  14) C  67                  0.00001     1.27557   
  1257. RY*(  15) C  67                  0.00000     3.01223   
  1258. RY*(  16) C  67                  0.00000    20.85075   
  1259. RY*(  17) C  67                  0.00000     3.04495   
  1260. RY*(  18) C  67                  0.00001     1.28237   
  1261. RY*(  19) C  67                  0.00000     2.79600   
  1262. RY*(  20) C  67                  0.00000     3.28797   
  1263. RY*(  21) C  67                  0.00000     3.14171   
  1264. RY*(  22) C  67                  0.00000     3.45362   
  1265. RY*(  23) C  67                  0.00000     3.04570   
  1266. RY*(  24) C  67                  0.00000     3.35132   
  1267. RY*(  25) C  67                  0.00000     3.22555   
  1268. RY*(  26) C  67                  0.00000     3.18212   
  1269. RY*(   1) H  68                  0.00022     1.25573   
  1270. RY*(   2) H  68                  0.00008     1.33705   
  1271. RY*(   3) H  68                  0.00005     1.82881   
  1272. RY*(   4) H  68                  0.00003     2.03523   
  1273. RY*(   5) H  68                  0.00000     2.83799   
  1274. RY*(   1) H  69                  0.00024     1.54827   
  1275. RY*(   2) H  69                  0.00009     1.60823   
  1276. RY*(   3) H  69                  0.00004     2.12545   
  1277. RY*(   4) H  69                  0.00002     1.56413   
  1278. RY*(   5) H  69                  0.00001     2.82982   
  1279. RY*(   1) H  70                  0.00046     0.93043   
  1280. RY*(   2) H  70                  0.00016     2.19993   
  1281. RY*(   3) H  70                  0.00004     2.41859   
  1282. RY*(   4) H  70                  0.00004     2.54646   
  1283. RY*(   5) H  70                  0.00001     2.13514   
  1284. RY*(   1) S  71                  0.00168     0.53835   
  1285. RY*(   2) S  71                  0.00144     0.65689   
  1286. RY*(   3) S  71                  0.00073     0.64980   
  1287. RY*(   4) S  71                  0.00045     0.96201   
  1288. RY*(   5) S  71                  0.00027     1.15396   
  1289. RY*(   6) S  71                  0.00016     0.89247   
  1290. RY*(   7) S  71                  0.00015     1.18450   
  1291. RY*(   8) S  71                  0.00010     1.38140   
  1292. RY*(   9) S  71                  0.00005     2.06650   
  1293. RY*(  10) S  71                  0.00005     0.90362   
  1294. RY*(  11) S  71                  0.00001     1.69949   
  1295. RY*(  12) S  71                  0.00002     1.53363   
  1296. RY*(  13) S  71                  0.00001     1.54828   
  1297. RY*(  14) S  71                  0.00000     2.26989   
  1298. RY*(  15) S  71                  0.00000     8.48457   
  1299. RY*(  16) S  71                  0.00001     2.44226   
  1300. RY*(  17) S  71                  0.00001     1.51402   
  1301. RY*(  18) S  71                  0.00001     2.52546   
  1302. RY*(  19) S  71                  0.00000     8.18464   
  1303. RY*(  20) S  71                  0.00000     8.38048   
  1304. RY*(  21) S  71                  0.00000    18.32846   
  1305. RY*(  22) S  71                  0.00001     2.00408   
  1306. RY*(  23) S  71                  0.00000     2.00426   
  1307. RY*(  24) S  71                  0.00000     1.92237   
  1308. RY*(  25) S  71                  0.00000     2.01155   
  1309. RY*(  26) S  71                  0.00001     1.75159   
  1310. RY*(  27) S  71                  0.00000     2.01037   
  1311. RY*(  28) S  71                  0.00000     2.12708   
  1312. RY*(   1) H  72                  0.00073     1.02810   
  1313. RY*(   2) H  72                  0.00013     1.69305   
  1314. RY*(   3) H  72                  0.00010     2.01265   
  1315. RY*(   4) H  72                  0.00004     1.82038   
  1316. RY*(   5) H  72                  0.00001     2.48921   
  1317. BD*(   1)Fe   1 - N   2          0.11713    -0.06950  1321(g),139(g),1319(g)
                                                    144(v),143(v),184(g),1318(g)
                                                    157(g),1320(g),237(v),210(v)
                                                    1209(r),262(v),1289(v)
                                                    1288(v),1402(v),1208(r)
                                                    1210(r)
  1318. BD*(   1)Fe   1 - N   3          0.03172     0.23484   
  1319. BD*(   1)Fe   1 - N   4          0.11646    -0.06138  1321(g),139(g),1317(g)
                                                    147(v),146(v),1320(g),236(g)
                                                    1401(v),1318(g),1208(r)
                                                    185(v),262(v),210(v),1209(r)
                                                    1207(r)
  1320. BD*(   1)Fe   1 - N   5          0.03441     0.24532   
  1321. BD*(   1)Fe   1 - S  71          0.01931     0.14155   
  1322. BD*(   1) N   2 - C   6          0.01429     0.38307   
  1323. BD*(   1) N   2 - C   9          0.01435     0.38522   
  1324. BD*(   1) N   3 - C  10          0.01465     0.38424   
  1325. BD*(   2) N   3 - C  10          0.24829    -0.09354  1343(v),145(v),393(g),138(v)
                                                    211(g),734(v),140(v),1319(v)
  1326. BD*(   1) N   3 - C  13          0.01408     0.39003   
  1327. BD*(   1) N   4 - C  14          0.01432     0.38222   
  1328. BD*(   1) N   4 - C  17          0.01379     0.38942   
  1329. BD*(   1) N   5 - C  18          0.01452     0.38895   
  1330. BD*(   2) N   5 - C  18          0.24343    -0.09079  1359(v),148(v),601(g),138(v)
                                                    797(v),263(g),1317(v)
  1331. BD*(   1) N   5 - C  21          0.01475     0.38425   
  1332. BD*(   1) C   6 - C   7          0.01737     0.37486   
  1333. BD*(   1) C   6 - C  22          0.01047     0.46442   
  1334. BD*(   1) C   7 - C   8          0.01165     0.49053   
  1335. BD*(   2) C   7 - C   8          0.07287    -0.03861   
  1336. BD*(   1) C   7 - C  34          0.00818     0.31030   
  1337. BD*(   1) C   8 - C   9          0.01742     0.37566   
  1338. BD*(   1) C   8 - C  30          0.00805     0.30692   
  1339. BD*(   1) C   9 - C  24          0.01048     0.46011   
  1340. BD*(   1) C  10 - C  11          0.01693     0.38409   
  1341. BD*(   1) C  10 - C  24          0.01044     0.45230   
  1342. BD*(   1) C  11 - C  12          0.01271     0.48256   
  1343. BD*(   2) C  11 - C  12          0.09022    -0.03712   
  1344. BD*(   1) C  11 - C  38          0.00770     0.31248   
  1345. BD*(   1) C  12 - C  13          0.01703     0.37365   
  1346. BD*(   1) C  12 - C  42          0.01342     0.39306   
  1347. BD*(   1) C  13 - C  26          0.01022     0.46743   
  1348. BD*(   1) C  14 - C  15          0.01684     0.38490   
  1349. BD*(   1) C  14 - C  26          0.01059     0.46406   
  1350. BD*(   1) C  15 - C  16          0.01250     0.47957   
  1351. BD*(   2) C  15 - C  16          0.08803    -0.03770   
  1352. BD*(   1) C  15 - C  47          0.00775     0.31514   
  1353. BD*(   1) C  16 - C  17          0.01670     0.37360   
  1354. BD*(   1) C  16 - C  51          0.01325     0.39045   
  1355. BD*(   1) C  17 - C  28          0.01023     0.45589   
  1356. BD*(   1) C  18 - C  19          0.01723     0.37718   
  1357. BD*(   1) C  18 - C  28          0.01030     0.46023   
  1358. BD*(   1) C  19 - C  20          0.01153     0.49878   
  1359. BD*(   2) C  19 - C  20          0.06850    -0.03269   
  1360. BD*(   1) C  19 - C  56          0.00802     0.31170   
  1361. BD*(   1) C  20 - C  21          0.01740     0.37345   
  1362. BD*(   1) C  20 - C  60          0.00820     0.31312   
  1363. BD*(   1) C  21 - C  22          0.01022     0.46503   
  1364. BD*(   1) C  22 - H  23          0.00666     0.32537   
  1365. BD*(   1) C  24 - H  25          0.00643     0.31987   
  1366. BD*(   1) C  26 - H  27          0.00705     0.32782   
  1367. BD*(   1) C  28 - H  29          0.00651     0.31885   
  1368. BD*(   1) C  30 - H  31          0.00298     0.29518   
  1369. BD*(   1) C  30 - H  32          0.00457     0.28162   
  1370. BD*(   1) C  30 - H  33          0.00459     0.28109   
  1371. BD*(   1) C  34 - H  35          0.00382     0.28674   
  1372. BD*(   1) C  34 - H  36          0.00413     0.28524   
  1373. BD*(   1) C  34 - H  37          0.00291     0.29709   
  1374. BD*(   1) C  38 - H  39          0.00538     0.28309   
  1375. BD*(   1) C  38 - H  40          0.00454     0.29016   
  1376. BD*(   1) C  38 - H  41          0.00375     0.30009   
  1377. BD*(   1) C  42 - H  43          0.01000     0.32956   
  1378. BD*(   1) C  42 - C  44          0.00356     0.53859   
  1379. BD*(   2) C  42 - C  44          0.02257    -0.03300   
  1380. BD*(   1) C  44 - H  45          0.00513     0.34477   
  1381. BD*(   1) C  44 - H  46          0.00387     0.35053   
  1382. BD*(   1) C  47 - H  48          0.00448     0.28776   
  1383. BD*(   1) C  47 - H  49          0.00414     0.29460   
  1384. BD*(   1) C  47 - H  50          0.00360     0.30140   
  1385. BD*(   1) C  51 - H  52          0.01041     0.32480   
  1386. BD*(   1) C  51 - C  53          0.00361     0.53481   
  1387. BD*(   2) C  51 - C  53          0.02693    -0.03655   
  1388. BD*(   1) C  53 - H  54          0.00503     0.34266   
  1389. BD*(   1) C  53 - H  55          0.00378     0.34717   
  1390. BD*(   1) C  56 - H  57          0.00463     0.28623   
  1391. BD*(   1) C  56 - H  58          0.00434     0.28606   
  1392. BD*(   1) C  56 - H  59          0.00299     0.29887   
  1393. BD*(   1) C  60 - H  61          0.00413     0.28895   
  1394. BD*(   1) C  60 - H  62          0.00294     0.30083   
  1395. BD*(   1) C  60 - H  63          0.00400     0.28884   
  1398. BD*(   1) C  67 - H  68          0.00422     0.26351   
  1399. BD*(   1) C  67 - H  69          0.00354     0.25801   
  1400. BD*(   1) C  67 - H  70          0.00576     0.27254   
  1401. BD*(   1) C  67 - S  71          0.00465     0.02566   
  1402. BD*(   1) S  71 - H  72          0.00681     0.07113   
       -------------------------------
              Total Lewis  136.42449  ( 96.6780%)
        Valence non-Lewis    4.43229  (  3.1410%)
        Rydberg non-Lewis    0.25543  (  0.1810%)
       -------------------------------
            Total unit  1  141.11222  (100.0000%)
           Charge unit  1    2.88778
 
 Molecular unit  2  (H2O)
    80. BD (   1) O  64 - H  65          0.99400    -0.93273  140(r),1317(r),1239(v)
                                                    139(r),157(r),1319(r)
                                                    1321(r),162(r),236(r),239(r)
                                                    1320(r),138(r),160(r),238(r)
                                                    1288(r),187(r),1318(r)
                                                    243(r)
    81. BD (   1) O  64 - H  66          0.99655    -0.99549  140(r),1319(r),157(r)
                                                    1235(v),1317(r),1396(g)
                                                    1321(r),187(r),186(r),184(r)
                                                    162(r),138(r),191(r),213(r)
                                                    160(r)
   130. CR (   1) O  64                  0.99991   -19.07862  140(r),1317(r),1319(r)
                                                    1239(v),1235(v),1321(r)
                                                    160(r),1320(r),1318(r)
                                                    139(r)
   153. LP (   1) O  64                  0.98502    -0.45228  138(r),1318(r),1238(v)
                                                    1320(r),1233(v),213(r)
                                                    265(r),269(r),140(r),217(r)
   154. LP (   2) O  64                  0.90568    -0.61143  140(r),1317(r),1319(r)
                                                    1239(v),1396(g),1397(g)
                                                    162(r),1234(v),138(r)
                                                    1321(r),139(r),264(r),184(r)
                                                    212(r),236(r),211(r),186(r)
                                                    210(r),1320(r),161(r),262(r)
                                                    1290(r),1318(r),185(r)
                                                    238(r),160(r),1326(r),237(r)
                                                    1331(r),1329(r),1324(r)
                                                    1323(r),1327(r),159(r)
  1207. RY*(   1) O  64                  0.00058     0.89090   
  1208. RY*(   2) O  64                  0.00034     0.88254   
  1209. RY*(   3) O  64                  0.00026     1.00380   
  1210. RY*(   4) O  64                  0.00008     0.79713   
  1211. RY*(   5) O  64                  0.00002     5.46033   
  1212. RY*(   6) O  64                  0.00002     2.32428   
  1213. RY*(   7) O  64                  0.00002     2.24380   
  1214. RY*(   8) O  64                  0.00000     3.18483   
  1215. RY*(   9) O  64                  0.00001     2.89354   
  1216. RY*(  10) O  64                  0.00001     2.62093   
  1217. RY*(  11) O  64                  0.00000     6.26418   
  1218. RY*(  12) O  64                  0.00000    41.56743   
  1219. RY*(  13) O  64                  0.00000     6.41611   
  1220. RY*(  14) O  64                  0.00000     2.87558   
  1221. RY*(  15) O  64                  0.00000     6.35585   
  1222. RY*(  16) O  64                  0.00000     2.19976   
  1223. RY*(  17) O  64                  0.00000     6.05881   
  1224. RY*(  18) O  64                  0.00000     2.35564   
  1225. RY*(  19) O  64                  0.00000     6.20760   
  1226. RY*(  20) O  64                  0.00000     5.24367   
  1227. RY*(  21) O  64                  0.00000     5.37220   
  1228. RY*(  22) O  64                  0.00000     5.15305   
  1229. RY*(  23) O  64                  0.00000     5.24013   
  1230. RY*(  24) O  64                  0.00000     5.55861   
  1231. RY*(  25) O  64                  0.00000     5.27356   
  1232. RY*(  26) O  64                  0.00000     5.49274   
  1233. RY*(   1) H  65                  0.00041     1.60058   
  1234. RY*(   2) H  65                  0.00036     1.12819   
  1235. RY*(   3) H  65                  0.00025     2.02915   
  1236. RY*(   4) H  65                  0.00008     1.89859   
  1237. RY*(   5) H  65                  0.00001     2.77844   
  1238. RY*(   1) H  66                  0.00044     1.90271   
  1239. RY*(   2) H  66                  0.00036     1.95653   
  1240. RY*(   3) H  66                  0.00029     0.81494   
  1241. RY*(   4) H  66                  0.00013     1.92584   
  1242. RY*(   5) H  66                  0.00000     2.89916   
  1396. BD*(   1) O  64 - H  65          0.00162     0.31257   
  1397. BD*(   1) O  64 - H  66          0.00122     0.48430   
       -------------------------------
              Total Lewis    4.88116  ( 99.8663%)
        Valence non-Lewis    0.00284  (  0.0581%)
        Rydberg non-Lewis    0.00369  (  0.0755%)
       -------------------------------
            Total unit  2    4.88769  (100.0000%)
           Charge unit  2    0.11231
 Unable to Open any file for archive entry.
 1\1\GINC-BGN1036\SP\UAPFD\def2TZVP\C31H34Fe1N4O1S1(1+,6)\BECSLEIP\15-N
 ov-2024\0\\# apfd/def2TZVP guess=read scf=maxcycle=999 geom=check pop=
 nbo\\6rqd_III_H\\1,6\Fe,0,-6.2238644522,24.7826275523,271.2061810127\N
 ,0,-4.5379234319,23.7048922699,270.9881304467\N,0,-5.8629697337,24.871
 5098233,273.1850242902\N,0,-8.018387587,25.6241162371,271.5258630547\N
 ,0,-6.706124337,24.4931945845,269.3129538663\C,0,-3.9944917456,23.3385
 370636,269.7968420896\C,0,-2.6782219579,22.7738740655,269.9898557982\C
 ,0,-2.4412695962,22.8044713445,271.3299082073\C,0,-3.613984353,23.3923
 17084,271.9349128379\C,0,-4.8242448621,24.3039709018,273.8612712416\C,
 0,-4.9258930747,24.5711676431,275.2733006685\C,0,-6.0422306917,25.3462
 733374,275.4394703019\C,0,-6.6203347372,25.5035375494,274.1191687658\C
 ,0,-8.4018113497,26.3094132685,272.6375135019\C,0,-9.6116782758,27.049
 8456096,272.392116861\C,0,-9.9742091554,26.7725620384,271.0996279293\C
 ,0,-8.9653809627,25.8686029993,270.5852016949\C,0,-7.927855678,24.6431
 951898,268.7366667872\C,0,-7.9224620986,24.1506176752,267.3772816613\C
 ,0,-6.689051664,23.6195288397,267.1730781179\C,0,-5.9628331012,23.7919
 239878,268.4144460562\C,0,-4.6513347621,23.3882095142,268.5818575597\H
 ,0,-4.1409220556,22.9789597892,267.7238358958\C,0,-3.7669326674,23.615
 2835494,273.2887055164\H,0,-2.982409257,23.2705356087,273.9441846232\C
 ,0,-7.7641551082,26.2349494624,273.8633022853\H,0,-8.2043496326,26.772
 7280688,274.6887260915\C,0,-8.9779938529,25.3352566116,269.3077593778\
 H,0,-9.8537236729,25.5049260801,268.7006401849\C,0,-1.2477258641,22.34
 10766707,272.091680623\H,0,-0.4971889211,21.9291070445,271.4217967747\
 H,0,-1.5268619358,21.5691274407,272.8093326199\H,0,-0.7998625414,23.16
 81525426,272.6432506944\C,0,-1.8089898793,22.2749822912,268.8877580074
 \H,0,-1.6484527712,23.0552157512,268.1439543627\H,0,-2.273918738,21.42
 39831583,268.3886603269\H,0,-0.8413426805,21.9596120308,269.2701587982
 \C,0,-4.004319786,24.0373919666,276.3133870301\H,0,-3.0991120417,24.64
 35033535,276.3815715374\H,0,-3.7093113998,23.0156709922,276.0787700964
 \H,0,-4.4950676722,24.0444205248,277.284421867\C,0,-6.609179867,25.883
 7696758,276.6569404364\H,0,-7.6909855996,25.9418232101,276.6843977919\
 C,0,-5.9132489878,26.3053704982,277.7074793302\H,0,-4.8371893998,26.31
 35743181,277.7163849319\H,0,-6.4003495474,26.6840795478,278.5905459002
 \C,0,-10.3296763101,27.8811459977,273.3963192454\H,0,-9.8827373588,28.
 873953849,273.4689568844\H,0,-10.28632949,27.4210367849,274.3820971456
 \H,0,-11.3733658586,27.9939929031,273.1104954017\C,0,-11.120471796,27.
 2390331582,270.3516144724\H,0,-11.5331969228,26.5345865905,269.6387077
 439\C,0,-11.6779288646,28.4397938919,270.4661771262\H,0,-11.2799331887
 ,29.1961394468,271.1197397482\H,0,-12.5397315784,28.7182580812,269.882
 7880383\C,0,-9.0882238322,24.229895347,266.453457967\H,0,-9.3523651536
 ,25.2702755525,266.2626717639\H,0,-9.9567075165,23.7348339933,266.8880
 887912\H,0,-8.8618678459,23.75432875,265.5024289775\C,0,-6.1353940887,
 22.9585846022,265.9581157142\H,0,-5.2577853181,23.4946508405,265.59640
 20669\H,0,-6.8742482106,22.9360944046,265.1610353985\H,0,-5.8381337859
 ,21.9334314208,266.1803969487\O,0,-7.16,22.791,271.614\H,0,-6.464,22.1
 38,271.54\H,0,-8.022,22.626,271.757\C,0,-3.5355031311,26.7869196647,27
 1.4906216924\H,0,-3.1521447874,27.7963742967,271.6022062369\H,0,-2.935
 0864381,26.2350205292,270.7747397578\H,0,-3.5499767601,26.2614261161,2
 72.4398040266\S,0,-5.2290874331,26.860148466,270.8053936481\H,0,-5.745
 6234932,27.5253134813,271.8465843346\\Version=ES64L-G16RevC.02\State=6
 -A\HF=-3156.935367\S2=8.854963\S2-1=0.\S2A=8.753153\RMSD=1.163e-09\Dip
 ole=0.5094423,-0.3851152,-0.1047901\Quadrupole=8.9823987,-15.12046,6.1
 380613,-14.8702681,7.7177665,10.7087492\PG=C01 [X(C31H34Fe1N4O1S1)]\\@
 The archive entry for this job was punched.


 THE ATTENTION SPAN OF A COMPUTER IS AS LONG
 AS ITS EXTENSION CORD.
 Job cpu time:       2 days  6 hours 59 minutes 26.6 seconds.
 Elapsed time:       0 days  0 hours 49 minutes 38.4 seconds.
 File lengths (MBytes):  RWF=   1815 Int=      0 D2E=      0 Chk=    164 Scr=      1
 Normal termination of Gaussian 16 at Fri Nov 15 14:53:46 2024.
