 Entering Gaussian System, Link 0=g16
 Input=6rqd05.com
 Output=6rqd05.log
 Initial command:
 /sw/chem/gaussian/g16_C02/a100/g16/l1.exe "/local/becsleip_8081544/Gau-1335491.inp" -scrdir="/local/becsleip_8081544/"
 Entering Link 1 = /sw/chem/gaussian/g16_C02/a100/g16/l1.exe PID=   1335492.
  
 Copyright (c) 1988-2021, Gaussian, Inc.  All Rights Reserved.
  
 This is part of the Gaussian(R) 16 program.  It is based on
 the Gaussian(R) 09 system (copyright 2009, Gaussian, Inc.),
 the Gaussian(R) 03 system (copyright 2003, Gaussian, Inc.),
 the Gaussian(R) 98 system (copyright 1998, Gaussian, Inc.),
 the Gaussian(R) 94 system (copyright 1995, Gaussian, Inc.),
 the Gaussian 92(TM) system (copyright 1992, Gaussian, Inc.),
 the Gaussian 90(TM) system (copyright 1990, Gaussian, Inc.),
 the Gaussian 88(TM) system (copyright 1988, Gaussian, Inc.),
 the Gaussian 86(TM) system (copyright 1986, Carnegie Mellon
 University), and the Gaussian 82(TM) system (copyright 1983,
 Carnegie Mellon University). Gaussian is a federally registered
 trademark of Gaussian, Inc.
  
 This software contains proprietary and confidential information,
 including trade secrets, belonging to Gaussian, Inc.
  
 This software is provided under written license and may be
 used, copied, transmitted, or stored only in accord with that
 written license.
  
 The following legend is applicable only to US Government
 contracts under FAR:
  
                    RESTRICTED RIGHTS LEGEND
  
 Use, reproduction and disclosure by the US Government is
 subject to restrictions as set forth in subparagraphs (a)
 and (c) of the Commercial Computer Software - Restricted
 Rights clause in FAR 52.227-19.
  
 Gaussian, Inc.
 340 Quinnipiac St., Bldg. 40, Wallingford CT 06492
  
  
 ---------------------------------------------------------------
 Warning -- This program may not be used in any manner that
 competes with the business of Gaussian, Inc. or will provide
 assistance to any competitor of Gaussian, Inc.  The licensee
 of this program is prohibited from giving any competitor of
 Gaussian, Inc. access to this program.  By using this program,
 the user acknowledges that Gaussian, Inc. is engaged in the
 business of creating and licensing software in the field of
 computational chemistry and represents and warrants to the
 licensee that it is not a competitor of Gaussian, Inc. and that
 it will not use this program in any manner prohibited above.
 ---------------------------------------------------------------
  

 Cite this work as:
 Gaussian 16, Revision C.02,
 M. J. Frisch, G. W. Trucks, H. B. Schlegel, G. E. Scuseria, 
 M. A. Robb, J. R. Cheeseman, G. Scalmani, V. Barone, 
 G. A. Petersson, H. Nakatsuji, X. Li, M. Caricato, A. V. Marenich, 
 J. Bloino, B. G. Janesko, R. Gomperts, B. Mennucci, H. P. Hratchian, 
 J. V. Ortiz, A. F. Izmaylov, J. L. Sonnenberg, D. Williams-Young, 
 F. Ding, F. Lipparini, F. Egidi, J. Goings, B. Peng, A. Petrone, 
 T. Henderson, D. Ranasinghe, V. G. Zakrzewski, J. Gao, N. Rega, 
 G. Zheng, W. Liang, M. Hada, M. Ehara, K. Toyota, R. Fukuda, 
 J. Hasegawa, M. Ishida, T. Nakajima, Y. Honda, O. Kitao, H. Nakai, 
 T. Vreven, K. Throssell, J. A. Montgomery, Jr., J. E. Peralta, 
 F. Ogliaro, M. J. Bearpark, J. J. Heyd, E. N. Brothers, K. N. Kudin, 
 V. N. Staroverov, T. A. Keith, R. Kobayashi, J. Normand, 
 K. Raghavachari, A. P. Rendell, J. C. Burant, S. S. Iyengar, 
 J. Tomasi, M. Cossi, J. M. Millam, M. Klene, C. Adamo, R. Cammi, 
 J. W. Ochterski, R. L. Martin, K. Morokuma, O. Farkas, 
 J. B. Foresman, and D. J. Fox, Gaussian, Inc., Wallingford CT, 2019.
 
 ******************************************
 Gaussian 16:  ES64L-G16RevC.02  7-Dec-2021
                14-Nov-2024 
 ******************************************
 %mem=16GB
 %CPU=0-71
 SetSPE:  set environment variable "OMP_PROC_BIND" = "true"
 SetSPE:  set environment variable "OMP_PLACES" = "{0},{1},{2},{3},{4},{5},{6},{7},{8},{9},{10},{11},{12},{13},{14},{15},{16},{17},{18},{19},{20},{21},{22},{23},{24},{25},{26},{27},{28},{29},{30},{31},{32},{33},{34},{35},{36},{37},{38},{39},{40},{41},{42},{43},{44},{45},{46},{47},{48},{49},{50},{51},{52},{53},{54},{55},{56},{57},{58},{59},{60},{61},{62},{63},{64},{65},{66},{67},{68},{69},{70},{71}"
 Will use up to   72 processors via shared memory.
 %gpucpu=0,1,2,3=0,1,2,3
 Will use    4 GPUs:
 Thread  CPU   GPU
      0    0     0
      1    1     1
      2    2     2
      3    3     3
      4    4    -1
      5    5    -1
      6    6    -1
      7    7    -1
      8    8    -1
      9    9    -1
     10   10    -1
     11   11    -1
     12   12    -1
     13   13    -1
     14   14    -1
     15   15    -1
     16   16    -1
     17   17    -1
     18   18    -1
     19   19    -1
     20   20    -1
     21   21    -1
     22   22    -1
     23   23    -1
     24   24    -1
     25   25    -1
     26   26    -1
     27   27    -1
     28   28    -1
     29   29    -1
     30   30    -1
     31   31    -1
     32   32    -1
     33   33    -1
     34   34    -1
     35   35    -1
     36   36    -1
     37   37    -1
     38   38    -1
     39   39    -1
     40   40    -1
     41   41    -1
     42   42    -1
     43   43    -1
     44   44    -1
     45   45    -1
     46   46    -1
     47   47    -1
     48   48    -1
     49   49    -1
     50   50    -1
     51   51    -1
     52   52    -1
     53   53    -1
     54   54    -1
     55   55    -1
     56   56    -1
     57   57    -1
     58   58    -1
     59   59    -1
     60   60    -1
     61   61    -1
     62   62    -1
     63   63    -1
     64   64    -1
     65   65    -1
     66   66    -1
     67   67    -1
     68   68    -1
     69   69    -1
     70   70    -1
     71   71    -1
 SetGPE:  set environment variable "OMP_PROC_BIND" = "true"
 SetGPE:  set environment variable "OMP_PLACES" = "{0},{1},{2},{3},{4},{5},{6},{7},{8},{9},{10},{11},{12},{13},{14},{15},{16},{17},{18},{19},{20},{21},{22},{23},{24},{25},{26},{27},{28},{29},{30},{31},{32},{33},{34},{35},{36},{37},{38},{39},{40},{41},{42},{43},{44},{45},{46},{47},{48},{49},{50},{51},{52},{53},{54},{55},{56},{57},{58},{59},{60},{61},{62},{63},{64},{65},{66},{67},{68},{69},{70},{71}"
 %oldchk=6rqd_II_Sre.chk
 %chk=6rqd_II_Qn.chk
 Properties for Device   0
 Minimum vector length:                              32
 Maximum vector length:                            1024
 Number of SMPs:                                    108
 Maximum number of threads per SMP:                2048
 Number of ASync Engines:                             5
 Memory:                                           9207742464
 Properties for Device   1
 Minimum vector length:                              32
 Maximum vector length:                            1024
 Number of SMPs:                                    108
 Maximum number of threads per SMP:                2048
 Number of ASync Engines:                             5
 Memory:                                           9207742464
 Properties for Device   2
 Minimum vector length:                              32
 Maximum vector length:                            1024
 Number of SMPs:                                    108
 Maximum number of threads per SMP:                2048
 Number of ASync Engines:                             5
 Memory:                                           9207742464
 Properties for Device   3
 Minimum vector length:                              32
 Maximum vector length:                            1024
 Number of SMPs:                                    108
 Maximum number of threads per SMP:                2048
 Number of ASync Engines:                             5
 Memory:                                           9207742464
   8286968217 words of memory will be used on each GPU.
 Copying data from "6rqd_II_Sre.chk" to current chk file "6rqd_II_Qn.chk"
 IOpt=  2 FromEx=T IUOpen= 4 IOptOp= 5 NList=   0 IFRang= 0 IUIn= 4 IUOut= 2.
 --------------------------------------------------------------
 # apfd/def2TZVP guess=read scf=maxcycle=999 geom=check pop=nbo
 --------------------------------------------------------------
 1/29=2,38=1,172=1/1;
 2/12=2,40=1/2;
 3/5=44,7=101,11=2,14=-4,25=1,30=1,74=-44,116=-2/1,2,3;
 4/5=1/1;
 5/5=2,7=999,38=6/2;
 6/7=2,8=2,9=2,10=2,28=1,40=1/1,7;
 99/5=1,9=1/99;
 ---------
 6rqd_II_Q
 ---------
 Structure from the checkpoint file:  "6rqd_II_Qn.chk"
 Charge =  0 Multiplicity = 5
 Z-Matrix found in chk file.
 Fe,0,-6.2238644522,24.7826275523,271.2061810127
 N,0,-4.5379234319,23.7048922699,270.9881304467
 N,0,-5.8629697337,24.8715098233,273.1850242902
 N,0,-8.018387587,25.6241162371,271.5258630547
 N,0,-6.706124337,24.4931945845,269.3129538663
 C,0,-3.9944917456,23.3385370636,269.7968420896
 C,0,-2.6782219579,22.7738740655,269.9898557982
 C,0,-2.4412695962,22.8044713445,271.3299082073
 C,0,-3.613984353,23.392317084,271.9349128379
 C,0,-4.8242448621,24.3039709018,273.8612712416
 C,0,-4.9258930747,24.5711676431,275.2733006685
 C,0,-6.0422306917,25.3462733374,275.4394703019
 C,0,-6.6203347372,25.5035375494,274.1191687658
 C,0,-8.4018113497,26.3094132685,272.6375135019
 C,0,-9.6116782758,27.0498456096,272.392116861
 C,0,-9.9742091554,26.7725620384,271.0996279293
 C,0,-8.9653809627,25.8686029993,270.5852016949
 C,0,-7.927855678,24.6431951898,268.7366667872
 C,0,-7.9224620986,24.1506176752,267.3772816613
 C,0,-6.689051664,23.6195288397,267.1730781179
 C,0,-5.9628331012,23.7919239878,268.4144460562
 C,0,-4.6513347621,23.3882095142,268.5818575597
 H,0,-4.1409220556,22.9789597892,267.7238358958
 C,0,-3.7669326674,23.6152835494,273.2887055164
 H,0,-2.982409257,23.2705356087,273.9441846232
 C,0,-7.7641551082,26.2349494624,273.8633022853
 H,0,-8.2043496326,26.7727280688,274.6887260915
 C,0,-8.9779938529,25.3352566116,269.3077593778
 H,0,-9.8537236729,25.5049260801,268.7006401849
 C,0,-1.2477258641,22.3410766707,272.091680623
 H,0,-0.4971889211,21.9291070445,271.4217967747
 H,0,-1.5268619358,21.5691274407,272.8093326199
 H,0,-0.7998625414,23.1681525426,272.6432506944
 C,0,-1.8089898793,22.2749822912,268.8877580074
 H,0,-1.6484527712,23.0552157512,268.1439543627
 H,0,-2.273918738,21.4239831583,268.3886603269
 H,0,-0.8413426805,21.9596120308,269.2701587982
 C,0,-4.004319786,24.0373919666,276.3133870301
 H,0,-3.0991120417,24.6435033535,276.3815715374
 H,0,-3.7093113998,23.0156709922,276.0787700964
 H,0,-4.4950676722,24.0444205248,277.284421867
 C,0,-6.609179867,25.8837696758,276.6569404364
 H,0,-7.6909855996,25.9418232101,276.6843977919
 C,0,-5.9132489878,26.3053704982,277.7074793302
 H,0,-4.8371893998,26.3135743181,277.7163849319
 H,0,-6.4003495474,26.6840795478,278.5905459002
 C,0,-10.3296763101,27.8811459977,273.3963192454
 H,0,-9.8827373588,28.873953849,273.4689568844
 H,0,-10.28632949,27.4210367849,274.3820971456
 H,0,-11.3733658586,27.9939929031,273.1104954017
 C,0,-11.120471796,27.2390331582,270.3516144724
 H,0,-11.5331969228,26.5345865905,269.6387077439
 C,0,-11.6779288646,28.4397938919,270.4661771262
 H,0,-11.2799331887,29.1961394468,271.1197397482
 H,0,-12.5397315784,28.7182580812,269.8827880383
 C,0,-9.0882238322,24.229895347,266.453457967
 H,0,-9.3523651536,25.2702755525,266.2626717639
 H,0,-9.9567075165,23.7348339933,266.8880887912
 H,0,-8.8618678459,23.75432875,265.5024289775
 C,0,-6.1353940887,22.9585846022,265.9581157142
 H,0,-5.2577853181,23.4946508405,265.5964020669
 H,0,-6.8742482106,22.9360944046,265.1610353985
 H,0,-5.8381337859,21.9334314208,266.1803969487
 O,0,-7.16,22.791,271.614
 H,0,-6.464,22.138,271.54
 H,0,-8.022,22.626,271.757
 C,0,-3.5355031311,26.7869196647,271.4906216924
 H,0,-3.1521447874,27.7963742967,271.6022062369
 H,0,-2.9350864381,26.2350205292,270.7747397578
 H,0,-3.5499767601,26.2614261161,272.4398040266
 S,0,-5.2290874331,26.860148466,270.8053936481
 H,0,-5.7456234932,27.5253134813,271.8465843346
 Recover connectivity data from disk.
 Stoichiometry    C31H34FeN4OS(5)
 Framework group  C1[X(C31H34FeN4OS)]
 Deg. of freedom   210
 Full point group                 C1      NOp   1
 Largest Abelian subgroup         C1      NOp   1
 Largest concise Abelian subgroup C1      NOp   1
                         Standard orientation:                         
 ---------------------------------------------------------------------
 Center     Atomic      Atomic             Coordinates (Angstroms)
 Number     Number       Type             X           Y           Z
 ---------------------------------------------------------------------
      1         26           0        0.012789   -0.204401   -0.038196
      2          7           0       -1.579700   -1.431462   -0.136968
      3          7           0       -1.232428    1.362930   -0.254698
      4          7           0        1.571908    1.047937   -0.215429
      5          7           0        1.253785   -1.740507   -0.069257
      6          6           0       -1.544660   -2.774098    0.074700
      7          6           0       -2.883638   -3.312640    0.150704
      8          6           0       -3.729792   -2.260937   -0.024702
      9          6           0       -2.895200   -1.094894   -0.199783
     10          6           0       -2.585003    1.326197   -0.420679
     11          6           0       -3.119149    2.656335   -0.565503
     12          6           0       -2.056824    3.512659   -0.452430
     13          6           0       -0.885540    2.676263   -0.277301
     14          6           0        1.542532    2.399936   -0.061654
     15          6           0        2.873984    2.930078    0.074081
     16          6           0        3.724176    1.860019   -0.030751
     17          6           0        2.882529    0.696328   -0.223006
     18          6           0        2.579506   -1.728990   -0.368533
     19          6           0        3.097745   -3.074733   -0.473382
     20          6           0        2.032792   -3.902819   -0.314622
     21          6           0        0.879763   -3.047807   -0.120748
     22          6           0       -0.393891   -3.539167    0.096993
     23          1           0       -0.509679   -4.608745    0.179482
     24          6           0       -3.372169    0.186192   -0.392608
     25          1           0       -4.439844    0.314604   -0.479571
     26          6           0        0.394541    3.170529   -0.116523
     27          1           0        0.508187    4.241429   -0.048991
     28          6           0        3.362578   -0.591352   -0.390073
     29          1           0        4.427595   -0.719821   -0.506341
     30          6           0       -5.219216   -2.237433   -0.050065
     31          1           0       -5.624464   -3.235412    0.096842
     32          1           0       -5.580483   -1.858546   -1.006504
     33          1           0       -5.606071   -1.589638    0.737063
     34          6           0       -3.198300   -4.750868    0.377783
     35          1           0       -2.724967   -5.106288    1.292886
     36          1           0       -2.830728   -5.358616   -0.449857
     37          1           0       -4.271292   -4.903779    0.463440
     38          6           0       -4.545884    2.979908   -0.840683
     39          1           0       -5.133401    2.969091    0.079169
     40          1           0       -4.979944    2.254053   -1.526770
     41          1           0       -4.623886    3.969919   -1.285188
     42          6           0       -2.033774    4.956731   -0.534236
     43          1           0       -1.148348    5.386373   -0.987951
     44          6           0       -2.992270    5.766222   -0.096391
     45          1           0       -3.870906    5.396636    0.403065
     46          1           0       -2.917111    6.835837   -0.200157
     47          6           0        3.214565    4.371077    0.224190
     48          1           0        3.115424    4.686863    1.263973
     49          1           0        2.552538    4.990300   -0.378819
     50          1           0        4.240393    4.547553   -0.092433
     51          6           0        5.169209    1.832607    0.015788
     52          1           0        5.644349    1.088219   -0.612664
     53          6           0        5.930705    2.625137    0.762600
     54          1           0        5.512628    3.346599    1.442533
     55          1           0        7.005620    2.556878    0.740514
     56          6           0        4.528212   -3.403603   -0.727041
     57          1           0        5.153050   -3.037323    0.087807
     58          1           0        4.870931   -2.938300   -1.651320
     59          1           0        4.669732   -4.478257   -0.810393
     60          6           0        1.981916   -5.391438   -0.345349
     61          1           0        1.608149   -5.781818    0.601383
     62          1           0        2.971068   -5.807387   -0.519456
     63          1           0        1.319142   -5.736707   -1.139221
     64          8           0       -0.029709   -0.360128   -2.270502
     65          1           0       -0.758114   -0.939821   -2.493399
     66          1           0        0.551913   -0.004172   -2.841228
     67          6           0       -1.710676   -0.082931    2.849761
     68          1           0       -1.772220    0.294891    3.865574
     69          1           0       -2.013288   -1.124574    2.818365
     70          1           0       -2.327322    0.498878    2.172601
     71         16           0        0.030067   -0.027791    2.293073
     72          1           0        0.137871    1.303865    2.384745
 ---------------------------------------------------------------------
 Rotational constants (GHZ):           0.1090149           0.1070807           0.0600123
 Standard basis: def2TZVP (5D, 7F)
 There are  1594 symmetry adapted cartesian basis functions of A   symmetry.
 There are  1402 symmetry adapted basis functions of A   symmetry.
  1402 basis functions,  2279 primitive gaussians,  1594 cartesian basis functions
   151 alpha electrons      147 beta electrons
       nuclear repulsion energy      5416.7636284073 Hartrees.
 NAtoms=   72 NActive=   72 NUniq=   72 SFac= 1.00D+00 NAtFMM=   60 NAOKFM=T Big=T
 Integral buffers will be    131072 words long.
 Raffenetti 2 integral format.
 Two-electron integral symmetry is turned on.
 R6APFD:  NTU= -4 IXU= 1 FactS= 1.050
 Nuclear repulsion after empirical dispersion term =     5416.6112857059 Hartrees.
 One-electron integrals computed using PRISM.
   1 Symmetry operations used in ECPInt.
 ECPInt:  NShTT=  157080 NPrTT=  488567 LenC2=  124778 LenP2D=  258907.
 LDataN:  DoStor=T MaxTD1= 6 Len=  172
 Number of processors reduced to  25 by ecpmxn.
 NBasis=  1402 RedAO= T EigKep=  3.42D-06  NBF=  1402
 NBsUse=  1402 1.00D-06 EigRej= -1.00D+00 NBFU=  1402
 Initial guess from the checkpoint file:  "6rqd_II_Qn.chk"
 B after Tr=     0.000000    0.000000    0.000000
         Rot=    1.000000   -0.000000    0.000000   -0.000000 Ang=   0.00 deg.
 Initial guess <Sx>= 0.0000 <Sy>= 0.0000 <Sz>= 2.0000 <S**2>= 6.0749 S= 2.0149
 Requested convergence on RMS density matrix=1.00D-08 within 999 cycles.
 Requested convergence on MAX density matrix=1.00D-06.
 Requested convergence on             energy=1.00D-06.
 No special actions if energy rises.
 EnCoef did   100 forward-backward iterations
 EnCoef did     4 forward-backward iterations
 EnCoef did    19 forward-backward iterations
 EnCoef did     3 forward-backward iterations
 EnCoef did    14 forward-backward iterations
 EnCoef did     4 forward-backward iterations
 EnCoef did     6 forward-backward iterations
 Rare condition: small coef for last iteration:  0.000D+00
 EnCoef did   100 forward-backward iterations
 Rare condition: small coef for last iteration:  0.000D+00
 Restarting incremental Fock formation.
 Rare condition: small coef for last iteration:  0.000D+00
 Rare condition: small coef for last iteration:  0.000D+00
 Rare condition: small coef for last iteration:  0.000D+00
 Rare condition: small coef for last iteration:  0.000D+00
 Rare condition: small coef for last iteration:  0.000D+00
 Rare condition: small coef for last iteration:  0.000D+00
 Restarting incremental Fock formation.
 Restarting incremental Fock formation.
 SCF Done:  E(UAPFD) =  -3157.15299188     A.U. after   69 cycles
            NFock= 69  Conv=0.37D-08     -V/T= 2.0030
 <Sx>= 0.0000 <Sy>= 0.0000 <Sz>= 2.0000 <S**2>= 6.0795 S= 2.0158
 <L.S>=  0.00000000000    
 Annihilation of the first spin contaminant:
 S**2 before annihilation     6.0795,   after     6.0019

 **********************************************************************

            Population analysis using the SCF Density.

 **********************************************************************

 Orbital symmetries:
 Alpha Orbitals:
       Occupied  (A) (A) (A) (A) (A) (A) (A) (A) (A) (A) (A) (A)
                 (A) (A) (A) (A) (A) (A) (A) (A) (A) (A) (A) (A)
                 (A) (A) (A) (A) (A) (A) (A) (A) (A) (A) (A) (A)
                 (A) (A) (A) (A) (A) (A) (A) (A) (A) (A) (A) (A)
                 (A) (A) (A) (A) (A) (A) (A) (A) (A) (A) (A) (A)
                 (A) (A) (A) (A) (A) (A) (A) (A) (A) (A) (A) (A)
                 (A) (A) (A) (A) (A) (A) (A) (A) (A) (A) (A) (A)
                 (A) (A) (A) (A) (A) (A) (A) (A) (A) (A) (A) (A)
                 (A) (A) (A) (A) (A) (A) (A) (A) (A) (A) (A) (A)
                 (A) (A) (A) (A) (A) (A) (A) (A) (A) (A) (A) (A)
                 (A) (A) (A) (A) (A) (A) (A) (A) (A) (A) (A) (A)
                 (A) (A) (A) (A) (A) (A) (A) (A) (A) (A) (A) (A)
                 (A) (A) (A) (A) (A) (A) (A)
       Virtual   (A) (A) (A) (A) (A) (A) (A) (A) (A) (A) (A) (A)
                 (A) (A) (A) (A) (A) (A) (A) (A) (A) (A) (A) (A)
                 (A) (A) (A) (A) (A) (A) (A) (A) (A) (A) (A) (A)
                 (A) (A) (A) (A) (A) (A) (A) (A) (A) (A) (A) (A)
                 (A) (A) (A) (A) (A) (A) (A) (A) (A) (A) (A) (A)
                 (A) (A) (A) (A) (A) (A) (A) (A) (A) (A) (A) (A)
                 (A) (A) (A) (A) (A) (A) (A) (A) (A) (A) (A) (A)
                 (A) (A) (A) (A) (A) (A) (A) (A) (A) (A) (A) (A)
                 (A) (A) (A) (A) (A) (A) (A) (A) (A) (A) (A) (A)
                 (A) (A) (A) (A) (A) (A) (A) (A) (A) (A) (A) (A)
                 (A) (A) (A) (A) (A) (A) (A) (A) (A) (A) (A) (A)
                 (A) (A) (A) (A) (A) (A) (A) (A) (A) (A) (A) (A)
                 (A) (A) (A) (A) (A) (A) (A) (A) (A) (A) (A) (A)
                 (A) (A) (A) (A) (A) (A) (A) (A) (A) (A) (A) (A)
                 (A) (A) (A) (A) (A) (A) (A) (A) (A) (A) (A) (A)
                 (A) (A) (A) (A) (A) (A) (A) (A) (A) (A) (A) (A)
                 (A) (A) (A) (A) (A) (A) (A) (A) (A) (A) (A) (A)
                 (A) (A) (A) (A) (A) (A) (A) (A) (A) (A) (A) (A)
                 (A) (A) (A) (A) (A) (A) (A) (A) (A) (A) (A) (A)
                 (A) (A) (A) (A) (A) (A) (A) (A) (A) (A) (A) (A)
                 (A) (A) (A) (A) (A) (A) (A) (A) (A) (A) (A) (A)
                 (A) (A) (A) (A) (A) (A) (A) (A) (A) (A) (A) (A)
                 (A) (A) (A) (A) (A) (A) (A) (A) (A) (A) (A) (A)
                 (A) (A) (A) (A) (A) (A) (A) (A) (A) (A) (A) (A)
                 (A) (A) (A) (A) (A) (A) (A) (A) (A) (A) (A) (A)
                 (A) (A) (A) (A) (A) (A) (A) (A) (A) (A) (A) (A)
                 (A) (A) (A) (A) (A) (A) (A) (A) (A) (A) (A) (A)
                 (A) (A) (A) (A) (A) (A) (A) (A) (A) (A) (A) (A)
                 (A) (A) (A) (A) (A) (A) (A) (A) (A) (A) (A) (A)
                 (A) (A) (A) (A) (A) (A) (A) (A) (A) (A) (A) (A)
                 (A) (A) (A) (A) (A) (A) (A) (A) (A) (A) (A) (A)
                 (A) (A) (A) (A) (A) (A) (A) (A) (A) (A) (A) (A)
                 (A) (A) (A) (A) (A) (A) (A) (A) (A) (A) (A) (A)
                 (A) (A) (A) (A) (A) (A) (A) (A) (A) (A) (A) (A)
                 (A) (A) (A) (A) (A) (A) (A) (A) (A) (A) (A) (A)
                 (A) (A) (A) (A) (A) (A) (A) (A) (A) (A) (A) (A)
                 (A) (A) (A) (A) (A) (A) (A) (A) (A) (A) (A) (A)
                 (A) (A) (A) (A) (A) (A) (A) (A) (A) (A) (A) (A)
                 (A) (A) (A) (A) (A) (A) (A) (A) (A) (A) (A) (A)
                 (A) (A) (A) (A) (A) (A) (A) (A) (A) (A) (A) (A)
                 (A) (A) (A) (A) (A) (A) (A) (A) (A) (A) (A) (A)
                 (A) (A) (A) (A) (A) (A) (A) (A) (A) (A) (A) (A)
                 (A) (A) (A) (A) (A) (A) (A) (A) (A) (A) (A) (A)
                 (A) (A) (A) (A) (A) (A) (A) (A) (A) (A) (A) (A)
                 (A) (A) (A) (A) (A) (A) (A) (A) (A) (A) (A) (A)
                 (A) (A) (A) (A) (A) (A) (A) (A) (A) (A) (A) (A)
                 (A) (A) (A) (A) (A) (A) (A) (A) (A) (A) (A) (A)
                 (A) (A) (A) (A) (A) (A) (A) (A) (A) (A) (A) (A)
                 (A) (A) (A) (A) (A) (A) (A) (A) (A) (A) (A) (A)
                 (A) (A) (A) (A) (A) (A) (A) (A) (A) (A) (A) (A)
                 (A) (A) (A) (A) (A) (A) (A) (A) (A) (A) (A) (A)
                 (A) (A) (A) (A) (A) (A) (A) (A) (A) (A) (A) (A)
                 (A) (A) (A) (A) (A) (A) (A) (A) (A) (A) (A) (A)
                 (A) (A) (A) (A) (A) (A) (A) (A) (A) (A) (A) (A)
                 (A) (A) (A) (A) (A) (A) (A) (A) (A) (A) (A) (A)
                 (A) (A) (A) (A) (A) (A) (A) (A) (A) (A) (A) (A)
                 (A) (A) (A) (A) (A) (A) (A) (A) (A) (A) (A) (A)
                 (A) (A) (A) (A) (A) (A) (A) (A) (A) (A) (A) (A)
                 (A) (A) (A) (A) (A) (A) (A) (A) (A) (A) (A) (A)
                 (A) (A) (A) (A) (A) (A) (A) (A) (A) (A) (A) (A)
                 (A) (A) (A) (A) (A) (A) (A) (A) (A) (A) (A) (A)
                 (A) (A) (A) (A) (A) (A) (A) (A) (A) (A) (A) (A)
                 (A) (A) (A) (A) (A) (A) (A) (A) (A) (A) (A) (A)
                 (A) (A) (A) (A) (A) (A) (A) (A) (A) (A) (A) (A)
                 (A) (A) (A) (A) (A) (A) (A) (A) (A) (A) (A) (A)
                 (A) (A) (A) (A) (A) (A) (A) (A) (A) (A) (A) (A)
                 (A) (A) (A) (A) (A) (A) (A) (A) (A) (A) (A) (A)
                 (A) (A) (A) (A) (A) (A) (A) (A) (A) (A) (A) (A)
                 (A) (A) (A) (A) (A) (A) (A) (A) (A) (A) (A) (A)
                 (A) (A) (A) (A) (A) (A) (A) (A) (A) (A) (A) (A)
                 (A) (A) (A) (A) (A) (A) (A) (A) (A) (A) (A) (A)
                 (A) (A) (A) (A) (A) (A) (A) (A) (A) (A) (A) (A)
                 (A) (A) (A) (A) (A) (A) (A) (A) (A) (A) (A) (A)
                 (A) (A) (A) (A) (A) (A) (A) (A) (A) (A) (A) (A)
                 (A) (A) (A) (A) (A) (A) (A) (A) (A) (A) (A) (A)
                 (A) (A) (A) (A) (A) (A) (A) (A) (A) (A) (A) (A)
                 (A) (A) (A) (A) (A) (A) (A) (A) (A) (A) (A) (A)
                 (A) (A) (A) (A) (A) (A) (A) (A) (A) (A) (A) (A)
                 (A) (A) (A) (A) (A) (A) (A) (A) (A) (A) (A) (A)
                 (A) (A) (A) (A) (A) (A) (A) (A) (A) (A) (A) (A)
                 (A) (A) (A) (A) (A) (A) (A) (A) (A) (A) (A) (A)
                 (A) (A) (A) (A) (A) (A) (A) (A) (A) (A) (A) (A)
                 (A) (A) (A) (A) (A) (A) (A) (A) (A) (A) (A) (A)
                 (A) (A) (A) (A) (A) (A) (A) (A) (A) (A) (A) (A)
                 (A) (A) (A) (A) (A) (A) (A) (A) (A) (A) (A) (A)
                 (A) (A) (A) (A) (A) (A) (A) (A) (A) (A) (A) (A)
                 (A) (A) (A) (A) (A) (A) (A) (A) (A) (A) (A) (A)
                 (A) (A) (A) (A) (A) (A) (A) (A) (A) (A) (A) (A)
                 (A) (A) (A) (A) (A) (A) (A) (A) (A) (A) (A) (A)
                 (A) (A) (A) (A) (A) (A) (A) (A) (A) (A) (A) (A)
                 (A) (A) (A) (A) (A) (A) (A) (A) (A) (A) (A) (A)
                 (A) (A) (A) (A) (A) (A) (A) (A) (A) (A) (A) (A)
                 (A) (A) (A) (A) (A) (A) (A) (A) (A) (A) (A) (A)
                 (A) (A) (A) (A) (A) (A) (A) (A) (A) (A) (A) (A)
                 (A) (A) (A) (A) (A) (A) (A) (A) (A) (A) (A) (A)
                 (A) (A) (A) (A) (A) (A) (A) (A) (A) (A) (A) (A)
                 (A) (A) (A) (A) (A) (A) (A) (A) (A) (A) (A) (A)
                 (A) (A) (A) (A) (A) (A) (A) (A) (A) (A) (A) (A)
                 (A) (A) (A) (A) (A) (A) (A) (A) (A) (A) (A) (A)
                 (A) (A) (A) (A) (A) (A) (A) (A) (A) (A) (A) (A)
                 (A) (A) (A) (A) (A) (A) (A) (A) (A) (A) (A) (A)
                 (A) (A) (A) (A) (A) (A) (A) (A) (A) (A) (A) (A)
                 (A) (A) (A) (A) (A) (A) (A) (A) (A) (A) (A) (A)
                 (A) (A) (A) (A) (A) (A) (A) (A) (A) (A) (A) (A)
                 (A) (A) (A)
 Beta  Orbitals:
       Occupied  (A) (A) (A) (A) (A) (A) (A) (A) (A) (A) (A) (A)
                 (A) (A) (A) (A) (A) (A) (A) (A) (A) (A) (A) (A)
                 (A) (A) (A) (A) (A) (A) (A) (A) (A) (A) (A) (A)
                 (A) (A) (A) (A) (A) (A) (A) (A) (A) (A) (A) (A)
                 (A) (A) (A) (A) (A) (A) (A) (A) (A) (A) (A) (A)
                 (A) (A) (A) (A) (A) (A) (A) (A) (A) (A) (A) (A)
                 (A) (A) (A) (A) (A) (A) (A) (A) (A) (A) (A) (A)
                 (A) (A) (A) (A) (A) (A) (A) (A) (A) (A) (A) (A)
                 (A) (A) (A) (A) (A) (A) (A) (A) (A) (A) (A) (A)
                 (A) (A) (A) (A) (A) (A) (A) (A) (A) (A) (A) (A)
                 (A) (A) (A) (A) (A) (A) (A) (A) (A) (A) (A) (A)
                 (A) (A) (A) (A) (A) (A) (A) (A) (A) (A) (A) (A)
                 (A) (A) (A)
       Virtual   (A) (A) (A) (A) (A) (A) (A) (A) (A) (A) (A) (A)
                 (A) (A) (A) (A) (A) (A) (A) (A) (A) (A) (A) (A)
                 (A) (A) (A) (A) (A) (A) (A) (A) (A) (A) (A) (A)
                 (A) (A) (A) (A) (A) (A) (A) (A) (A) (A) (A) (A)
                 (A) (A) (A) (A) (A) (A) (A) (A) (A) (A) (A) (A)
                 (A) (A) (A) (A) (A) (A) (A) (A) (A) (A) (A) (A)
                 (A) (A) (A) (A) (A) (A) (A) (A) (A) (A) (A) (A)
                 (A) (A) (A) (A) (A) (A) (A) (A) (A) (A) (A) (A)
                 (A) (A) (A) (A) (A) (A) (A) (A) (A) (A) (A) (A)
                 (A) (A) (A) (A) (A) (A) (A) (A) (A) (A) (A) (A)
                 (A) (A) (A) (A) (A) (A) (A) (A) (A) (A) (A) (A)
                 (A) (A) (A) (A) (A) (A) (A) (A) (A) (A) (A) (A)
                 (A) (A) (A) (A) (A) (A) (A) (A) (A) (A) (A) (A)
                 (A) (A) (A) (A) (A) (A) (A) (A) (A) (A) (A) (A)
                 (A) (A) (A) (A) (A) (A) (A) (A) (A) (A) (A) (A)
                 (A) (A) (A) (A) (A) (A) (A) (A) (A) (A) (A) (A)
                 (A) (A) (A) (A) (A) (A) (A) (A) (A) (A) (A) (A)
                 (A) (A) (A) (A) (A) (A) (A) (A) (A) (A) (A) (A)
                 (A) (A) (A) (A) (A) (A) (A) (A) (A) (A) (A) (A)
                 (A) (A) (A) (A) (A) (A) (A) (A) (A) (A) (A) (A)
                 (A) (A) (A) (A) (A) (A) (A) (A) (A) (A) (A) (A)
                 (A) (A) (A) (A) (A) (A) (A) (A) (A) (A) (A) (A)
                 (A) (A) (A) (A) (A) (A) (A) (A) (A) (A) (A) (A)
                 (A) (A) (A) (A) (A) (A) (A) (A) (A) (A) (A) (A)
                 (A) (A) (A) (A) (A) (A) (A) (A) (A) (A) (A) (A)
                 (A) (A) (A) (A) (A) (A) (A) (A) (A) (A) (A) (A)
                 (A) (A) (A) (A) (A) (A) (A) (A) (A) (A) (A) (A)
                 (A) (A) (A) (A) (A) (A) (A) (A) (A) (A) (A) (A)
                 (A) (A) (A) (A) (A) (A) (A) (A) (A) (A) (A) (A)
                 (A) (A) (A) (A) (A) (A) (A) (A) (A) (A) (A) (A)
                 (A) (A) (A) (A) (A) (A) (A) (A) (A) (A) (A) (A)
                 (A) (A) (A) (A) (A) (A) (A) (A) (A) (A) (A) (A)
                 (A) (A) (A) (A) (A) (A) (A) (A) (A) (A) (A) (A)
                 (A) (A) (A) (A) (A) (A) (A) (A) (A) (A) (A) (A)
                 (A) (A) (A) (A) (A) (A) (A) (A) (A) (A) (A) (A)
                 (A) (A) (A) (A) (A) (A) (A) (A) (A) (A) (A) (A)
                 (A) (A) (A) (A) (A) (A) (A) (A) (A) (A) (A) (A)
                 (A) (A) (A) (A) (A) (A) (A) (A) (A) (A) (A) (A)
                 (A) (A) (A) (A) (A) (A) (A) (A) (A) (A) (A) (A)
                 (A) (A) (A) (A) (A) (A) (A) (A) (A) (A) (A) (A)
                 (A) (A) (A) (A) (A) (A) (A) (A) (A) (A) (A) (A)
                 (A) (A) (A) (A) (A) (A) (A) (A) (A) (A) (A) (A)
                 (A) (A) (A) (A) (A) (A) (A) (A) (A) (A) (A) (A)
                 (A) (A) (A) (A) (A) (A) (A) (A) (A) (A) (A) (A)
                 (A) (A) (A) (A) (A) (A) (A) (A) (A) (A) (A) (A)
                 (A) (A) (A) (A) (A) (A) (A) (A) (A) (A) (A) (A)
                 (A) (A) (A) (A) (A) (A) (A) (A) (A) (A) (A) (A)
                 (A) (A) (A) (A) (A) (A) (A) (A) (A) (A) (A) (A)
                 (A) (A) (A) (A) (A) (A) (A) (A) (A) (A) (A) (A)
                 (A) (A) (A) (A) (A) (A) (A) (A) (A) (A) (A) (A)
                 (A) (A) (A) (A) (A) (A) (A) (A) (A) (A) (A) (A)
                 (A) (A) (A) (A) (A) (A) (A) (A) (A) (A) (A) (A)
                 (A) (A) (A) (A) (A) (A) (A) (A) (A) (A) (A) (A)
                 (A) (A) (A) (A) (A) (A) (A) (A) (A) (A) (A) (A)
                 (A) (A) (A) (A) (A) (A) (A) (A) (A) (A) (A) (A)
                 (A) (A) (A) (A) (A) (A) (A) (A) (A) (A) (A) (A)
                 (A) (A) (A) (A) (A) (A) (A) (A) (A) (A) (A) (A)
                 (A) (A) (A) (A) (A) (A) (A) (A) (A) (A) (A) (A)
                 (A) (A) (A) (A) (A) (A) (A) (A) (A) (A) (A) (A)
                 (A) (A) (A) (A) (A) (A) (A) (A) (A) (A) (A) (A)
                 (A) (A) (A) (A) (A) (A) (A) (A) (A) (A) (A) (A)
                 (A) (A) (A) (A) (A) (A) (A) (A) (A) (A) (A) (A)
                 (A) (A) (A) (A) (A) (A) (A) (A) (A) (A) (A) (A)
                 (A) (A) (A) (A) (A) (A) (A) (A) (A) (A) (A) (A)
                 (A) (A) (A) (A) (A) (A) (A) (A) (A) (A) (A) (A)
                 (A) (A) (A) (A) (A) (A) (A) (A) (A) (A) (A) (A)
                 (A) (A) (A) (A) (A) (A) (A) (A) (A) (A) (A) (A)
                 (A) (A) (A) (A) (A) (A) (A) (A) (A) (A) (A) (A)
                 (A) (A) (A) (A) (A) (A) (A) (A) (A) (A) (A) (A)
                 (A) (A) (A) (A) (A) (A) (A) (A) (A) (A) (A) (A)
                 (A) (A) (A) (A) (A) (A) (A) (A) (A) (A) (A) (A)
                 (A) (A) (A) (A) (A) (A) (A) (A) (A) (A) (A) (A)
                 (A) (A) (A) (A) (A) (A) (A) (A) (A) (A) (A) (A)
                 (A) (A) (A) (A) (A) (A) (A) (A) (A) (A) (A) (A)
                 (A) (A) (A) (A) (A) (A) (A) (A) (A) (A) (A) (A)
                 (A) (A) (A) (A) (A) (A) (A) (A) (A) (A) (A) (A)
                 (A) (A) (A) (A) (A) (A) (A) (A) (A) (A) (A) (A)
                 (A) (A) (A) (A) (A) (A) (A) (A) (A) (A) (A) (A)
                 (A) (A) (A) (A) (A) (A) (A) (A) (A) (A) (A) (A)
                 (A) (A) (A) (A) (A) (A) (A) (A) (A) (A) (A) (A)
                 (A) (A) (A) (A) (A) (A) (A) (A) (A) (A) (A) (A)
                 (A) (A) (A) (A) (A) (A) (A) (A) (A) (A) (A) (A)
                 (A) (A) (A) (A) (A) (A) (A) (A) (A) (A) (A) (A)
                 (A) (A) (A) (A) (A) (A) (A) (A) (A) (A) (A) (A)
                 (A) (A) (A) (A) (A) (A) (A) (A) (A) (A) (A) (A)
                 (A) (A) (A) (A) (A) (A) (A) (A) (A) (A) (A) (A)
                 (A) (A) (A) (A) (A) (A) (A) (A) (A) (A) (A) (A)
                 (A) (A) (A) (A) (A) (A) (A) (A) (A) (A) (A) (A)
                 (A) (A) (A) (A) (A) (A) (A) (A) (A) (A) (A) (A)
                 (A) (A) (A) (A) (A) (A) (A) (A) (A) (A) (A) (A)
                 (A) (A) (A) (A) (A) (A) (A) (A) (A) (A) (A) (A)
                 (A) (A) (A) (A) (A) (A) (A) (A) (A) (A) (A) (A)
                 (A) (A) (A) (A) (A) (A) (A) (A) (A) (A) (A) (A)
                 (A) (A) (A) (A) (A) (A) (A) (A) (A) (A) (A) (A)
                 (A) (A) (A) (A) (A) (A) (A) (A) (A) (A) (A) (A)
                 (A) (A) (A) (A) (A) (A) (A) (A) (A) (A) (A) (A)
                 (A) (A) (A) (A) (A) (A) (A) (A) (A) (A) (A) (A)
                 (A) (A) (A) (A) (A) (A) (A) (A) (A) (A) (A) (A)
                 (A) (A) (A) (A) (A) (A) (A) (A) (A) (A) (A) (A)
                 (A) (A) (A) (A) (A) (A) (A) (A) (A) (A) (A) (A)
                 (A) (A) (A) (A) (A) (A) (A) (A) (A) (A) (A) (A)
                 (A) (A) (A) (A) (A) (A) (A) (A) (A) (A) (A) (A)
                 (A) (A) (A) (A) (A) (A) (A) (A) (A) (A) (A) (A)
                 (A) (A) (A) (A) (A) (A) (A) (A) (A) (A) (A) (A)
                 (A) (A) (A) (A) (A) (A) (A)
 The electronic state is 5-A.
 Alpha  occ. eigenvalues -- -256.28799 -88.97510 -30.17569 -26.02387 -26.00155
 Alpha  occ. eigenvalues --  -26.00017 -19.18643 -14.35164 -14.35149 -14.34836
 Alpha  occ. eigenvalues --  -14.34816 -10.23353 -10.21993 -10.21848 -10.21826
 Alpha  occ. eigenvalues --  -10.21669 -10.21408 -10.21334 -10.21225 -10.21142
 Alpha  occ. eigenvalues --  -10.19808 -10.19700 -10.19462 -10.19414 -10.19398
 Alpha  occ. eigenvalues --  -10.19339 -10.19231 -10.19142 -10.19091 -10.19072
 Alpha  occ. eigenvalues --  -10.19008 -10.18944 -10.18929 -10.18925 -10.18835
 Alpha  occ. eigenvalues --  -10.18691 -10.18586 -10.18343 -10.18301 -10.18066
 Alpha  occ. eigenvalues --  -10.17378 -10.17220  -8.00490  -5.95017  -5.94757
 Alpha  occ. eigenvalues --   -5.94335  -3.59800  -2.40203  -2.34279  -2.34021
 Alpha  occ. eigenvalues --   -1.06852  -0.98283  -0.97422  -0.97072  -0.96250
 Alpha  occ. eigenvalues --   -0.82820  -0.82507  -0.82096  -0.81949  -0.81592
 Alpha  occ. eigenvalues --   -0.81237  -0.80209  -0.79996  -0.77081  -0.75982
 Alpha  occ. eigenvalues --   -0.74784  -0.74373  -0.73663  -0.71433  -0.70501
 Alpha  occ. eigenvalues --   -0.69104  -0.68719  -0.68410  -0.68061  -0.64748
 Alpha  occ. eigenvalues --   -0.64525  -0.62277  -0.60992  -0.60415  -0.58240
 Alpha  occ. eigenvalues --   -0.57535  -0.55169  -0.54422  -0.53766  -0.53648
 Alpha  occ. eigenvalues --   -0.51846  -0.51754  -0.51336  -0.49598  -0.48578
 Alpha  occ. eigenvalues --   -0.48301  -0.48062  -0.46780  -0.46164  -0.46111
 Alpha  occ. eigenvalues --   -0.45246  -0.45174  -0.44839  -0.44628  -0.44200
 Alpha  occ. eigenvalues --   -0.44052  -0.43753  -0.43383  -0.43202  -0.42665
 Alpha  occ. eigenvalues --   -0.42289  -0.42097  -0.42048  -0.41850  -0.41691
 Alpha  occ. eigenvalues --   -0.41360  -0.40912  -0.40738  -0.40660  -0.40597
 Alpha  occ. eigenvalues --   -0.39943  -0.39545  -0.39165  -0.39048  -0.38922
 Alpha  occ. eigenvalues --   -0.38705  -0.38273  -0.38142  -0.37743  -0.37666
 Alpha  occ. eigenvalues --   -0.37524  -0.37077  -0.36800  -0.36374  -0.35355
 Alpha  occ. eigenvalues --   -0.34986  -0.34750  -0.34048  -0.33522  -0.33262
 Alpha  occ. eigenvalues --   -0.32641  -0.32272  -0.31367  -0.31075  -0.30204
 Alpha  occ. eigenvalues --   -0.29758  -0.27723  -0.27396  -0.25283  -0.23888
 Alpha  occ. eigenvalues --   -0.23752  -0.22767  -0.22631  -0.19868  -0.19220
 Alpha  occ. eigenvalues --   -0.11293
 Alpha virt. eigenvalues --   -0.08643  -0.07288  -0.02991  -0.00198   0.00132
 Alpha virt. eigenvalues --    0.01457   0.02149   0.03485   0.04235   0.04467
 Alpha virt. eigenvalues --    0.04751   0.05448   0.06015   0.06701   0.06823
 Alpha virt. eigenvalues --    0.07303   0.07493   0.08048   0.08606   0.09122
 Alpha virt. eigenvalues --    0.09159   0.09457   0.09715   0.10025   0.10602
 Alpha virt. eigenvalues --    0.10757   0.11059   0.11219   0.11306   0.11883
 Alpha virt. eigenvalues --    0.12276   0.12434   0.12673   0.12914   0.13139
 Alpha virt. eigenvalues --    0.13269   0.13622   0.13875   0.14277   0.14369
 Alpha virt. eigenvalues --    0.14576   0.14678   0.15008   0.15173   0.15547
 Alpha virt. eigenvalues --    0.15804   0.15884   0.16061   0.16231   0.16418
 Alpha virt. eigenvalues --    0.16757   0.16947   0.17121   0.17539   0.17708
 Alpha virt. eigenvalues --    0.17885   0.18276   0.18607   0.19163   0.19386
 Alpha virt. eigenvalues --    0.19564   0.19899   0.20251   0.20294   0.20675
 Alpha virt. eigenvalues --    0.21099   0.21631   0.21754   0.22036   0.22447
 Alpha virt. eigenvalues --    0.22611   0.22895   0.23078   0.23586   0.23917
 Alpha virt. eigenvalues --    0.24359   0.24768   0.25028   0.25237   0.25489
 Alpha virt. eigenvalues --    0.25683   0.26146   0.26395   0.26561   0.26969
 Alpha virt. eigenvalues --    0.27058   0.27337   0.27500   0.27829   0.28166
 Alpha virt. eigenvalues --    0.28554   0.28758   0.29000   0.29096   0.29251
 Alpha virt. eigenvalues --    0.29662   0.30059   0.30292   0.30470   0.30686
 Alpha virt. eigenvalues --    0.31228   0.31408   0.31758   0.31891   0.32335
 Alpha virt. eigenvalues --    0.32497   0.32865   0.32911   0.33800   0.34051
 Alpha virt. eigenvalues --    0.34303   0.34540   0.34983   0.35223   0.35815
 Alpha virt. eigenvalues --    0.35843   0.36383   0.36660   0.36707   0.37153
 Alpha virt. eigenvalues --    0.37224   0.37515   0.38131   0.38199   0.38570
 Alpha virt. eigenvalues --    0.38904   0.39212   0.39318   0.39610   0.39751
 Alpha virt. eigenvalues --    0.40035   0.40225   0.40490   0.40661   0.40891
 Alpha virt. eigenvalues --    0.41282   0.41332   0.41530   0.41909   0.42268
 Alpha virt. eigenvalues --    0.42415   0.42574   0.42656   0.42992   0.43237
 Alpha virt. eigenvalues --    0.43575   0.43628   0.43874   0.44188   0.44547
 Alpha virt. eigenvalues --    0.44710   0.44988   0.45182   0.45711   0.45800
 Alpha virt. eigenvalues --    0.45990   0.46410   0.46590   0.46870   0.47012
 Alpha virt. eigenvalues --    0.47274   0.47488   0.47630   0.48017   0.48090
 Alpha virt. eigenvalues --    0.48479   0.48723   0.48783   0.49096   0.49320
 Alpha virt. eigenvalues --    0.49518   0.49696   0.50137   0.50299   0.50620
 Alpha virt. eigenvalues --    0.50831   0.51017   0.51217   0.51690   0.51779
 Alpha virt. eigenvalues --    0.52162   0.52360   0.52557   0.52832   0.53150
 Alpha virt. eigenvalues --    0.53270   0.53433   0.53630   0.53866   0.54544
 Alpha virt. eigenvalues --    0.54629   0.54851   0.55214   0.55426   0.55686
 Alpha virt. eigenvalues --    0.56030   0.56408   0.56963   0.57219   0.57499
 Alpha virt. eigenvalues --    0.57622   0.57804   0.58078   0.58125   0.58636
 Alpha virt. eigenvalues --    0.59083   0.59946   0.60289   0.60801   0.60869
 Alpha virt. eigenvalues --    0.61391   0.61424   0.61766   0.62036   0.62237
 Alpha virt. eigenvalues --    0.62475   0.63003   0.63172   0.63419   0.63751
 Alpha virt. eigenvalues --    0.64170   0.64357   0.64583   0.65144   0.65299
 Alpha virt. eigenvalues --    0.65716   0.66050   0.66157   0.66503   0.66962
 Alpha virt. eigenvalues --    0.67103   0.67377   0.67631   0.67981   0.68348
 Alpha virt. eigenvalues --    0.68712   0.69531   0.69608   0.70148   0.70310
 Alpha virt. eigenvalues --    0.70642   0.71224   0.71468   0.71698   0.71935
 Alpha virt. eigenvalues --    0.72726   0.72964   0.73128   0.73445   0.73809
 Alpha virt. eigenvalues --    0.73905   0.74063   0.74301   0.74881   0.75553
 Alpha virt. eigenvalues --    0.75827   0.76578   0.76655   0.77028   0.77349
 Alpha virt. eigenvalues --    0.77576   0.77910   0.78358   0.78680   0.78745
 Alpha virt. eigenvalues --    0.79193   0.79334   0.80155   0.80294   0.80802
 Alpha virt. eigenvalues --    0.80831   0.81330   0.81850   0.82351   0.82456
 Alpha virt. eigenvalues --    0.83429   0.83708   0.84165   0.84613   0.84806
 Alpha virt. eigenvalues --    0.85067   0.85785   0.86455   0.86610   0.87049
 Alpha virt. eigenvalues --    0.87744   0.88134   0.88679   0.89221   0.89844
 Alpha virt. eigenvalues --    0.90105   0.90595   0.91078   0.91140   0.91465
 Alpha virt. eigenvalues --    0.91834   0.92102   0.92547   0.92808   0.93114
 Alpha virt. eigenvalues --    0.93756   0.94158   0.94440   0.94682   0.95071
 Alpha virt. eigenvalues --    0.95285   0.95986   0.96585   0.97308   0.97642
 Alpha virt. eigenvalues --    0.97858   0.97944   0.98219   0.98626   0.99081
 Alpha virt. eigenvalues --    0.99121   0.99457   0.99731   1.00632   1.00694
 Alpha virt. eigenvalues --    1.01233   1.01350   1.01564   1.01723   1.02500
 Alpha virt. eigenvalues --    1.02566   1.02842   1.03155   1.03540   1.03694
 Alpha virt. eigenvalues --    1.04073   1.04437   1.04680   1.05101   1.05546
 Alpha virt. eigenvalues --    1.05867   1.06436   1.06861   1.06877   1.07623
 Alpha virt. eigenvalues --    1.07873   1.08794   1.09418   1.09982   1.10283
 Alpha virt. eigenvalues --    1.10576   1.11696   1.12315   1.12405   1.12994
 Alpha virt. eigenvalues --    1.13502   1.13864   1.14606   1.15015   1.16158
 Alpha virt. eigenvalues --    1.16497   1.16715   1.17071   1.17738   1.18065
 Alpha virt. eigenvalues --    1.18359   1.18818   1.18956   1.19045   1.19683
 Alpha virt. eigenvalues --    1.20396   1.20469   1.20686   1.21381   1.21771
 Alpha virt. eigenvalues --    1.22267   1.22675   1.23518   1.24026   1.24413
 Alpha virt. eigenvalues --    1.24757   1.25403   1.25886   1.26078   1.26411
 Alpha virt. eigenvalues --    1.26561   1.27390   1.27943   1.28135   1.28525
 Alpha virt. eigenvalues --    1.28604   1.29151   1.29232   1.29862   1.30804
 Alpha virt. eigenvalues --    1.31055   1.31769   1.32488   1.33538   1.33676
 Alpha virt. eigenvalues --    1.33994   1.36017   1.36164   1.36824   1.36974
 Alpha virt. eigenvalues --    1.37250   1.37674   1.38513   1.39467   1.40604
 Alpha virt. eigenvalues --    1.40956   1.41761   1.42134   1.42569   1.42753
 Alpha virt. eigenvalues --    1.43122   1.44271   1.44585   1.44813   1.45090
 Alpha virt. eigenvalues --    1.45337   1.45778   1.46257   1.46815   1.46885
 Alpha virt. eigenvalues --    1.47793   1.47966   1.48233   1.49072   1.49304
 Alpha virt. eigenvalues --    1.49735   1.49877   1.50313   1.50764   1.50795
 Alpha virt. eigenvalues --    1.51083   1.51282   1.51578   1.52068   1.52100
 Alpha virt. eigenvalues --    1.52503   1.53122   1.53375   1.53754   1.54314
 Alpha virt. eigenvalues --    1.54516   1.54662   1.55063   1.55180   1.55234
 Alpha virt. eigenvalues --    1.55528   1.55937   1.56049   1.56572   1.56643
 Alpha virt. eigenvalues --    1.56962   1.57471   1.57589   1.57764   1.57922
 Alpha virt. eigenvalues --    1.58358   1.58926   1.59139   1.59558   1.59807
 Alpha virt. eigenvalues --    1.59932   1.60771   1.60945   1.61500   1.61857
 Alpha virt. eigenvalues --    1.62126   1.62601   1.62735   1.62868   1.63076
 Alpha virt. eigenvalues --    1.63561   1.64058   1.64635   1.64758   1.64837
 Alpha virt. eigenvalues --    1.65007   1.65333   1.65637   1.65862   1.66388
 Alpha virt. eigenvalues --    1.66759   1.67202   1.67886   1.68025   1.68832
 Alpha virt. eigenvalues --    1.68985   1.69165   1.69250   1.69785   1.70132
 Alpha virt. eigenvalues --    1.70286   1.70766   1.71064   1.71209   1.71825
 Alpha virt. eigenvalues --    1.72579   1.72978   1.73460   1.73667   1.73931
 Alpha virt. eigenvalues --    1.74312   1.74589   1.75279   1.76105   1.76399
 Alpha virt. eigenvalues --    1.77344   1.78113   1.78281   1.78536   1.79193
 Alpha virt. eigenvalues --    1.80142   1.80497   1.81529   1.81670   1.81706
 Alpha virt. eigenvalues --    1.82513   1.83041   1.83273   1.83784   1.84186
 Alpha virt. eigenvalues --    1.84991   1.85262   1.86043   1.86223   1.86604
 Alpha virt. eigenvalues --    1.87177   1.87332   1.87956   1.88363   1.89004
 Alpha virt. eigenvalues --    1.89211   1.89518   1.90578   1.90998   1.91172
 Alpha virt. eigenvalues --    1.91768   1.92275   1.92658   1.93113   1.93956
 Alpha virt. eigenvalues --    1.94677   1.94911   1.95479   1.95693   1.96035
 Alpha virt. eigenvalues --    1.96938   1.97397   1.97836   1.98577   1.98813
 Alpha virt. eigenvalues --    1.99099   1.99561   1.99644   1.99838   2.00600
 Alpha virt. eigenvalues --    2.01138   2.01337   2.01859   2.02486   2.02693
 Alpha virt. eigenvalues --    2.03368   2.03971   2.04727   2.05436   2.06248
 Alpha virt. eigenvalues --    2.06733   2.06919   2.07404   2.07823   2.08740
 Alpha virt. eigenvalues --    2.08941   2.09163   2.09378   2.10086   2.10931
 Alpha virt. eigenvalues --    2.11375   2.11558   2.11829   2.12581   2.12918
 Alpha virt. eigenvalues --    2.13325   2.14000   2.15008   2.15287   2.15846
 Alpha virt. eigenvalues --    2.16307   2.16590   2.17828   2.18310   2.18822
 Alpha virt. eigenvalues --    2.18960   2.19286   2.19952   2.20502   2.20880
 Alpha virt. eigenvalues --    2.21286   2.21356   2.22341   2.22873   2.23805
 Alpha virt. eigenvalues --    2.24487   2.24519   2.25225   2.25571   2.26086
 Alpha virt. eigenvalues --    2.26453   2.26815   2.27105   2.27740   2.28606
 Alpha virt. eigenvalues --    2.28986   2.29390   2.29563   2.29894   2.30762
 Alpha virt. eigenvalues --    2.31358   2.31459   2.31818   2.32287   2.32709
 Alpha virt. eigenvalues --    2.33038   2.34261   2.34577   2.35143   2.35381
 Alpha virt. eigenvalues --    2.35714   2.36500   2.36703   2.36779   2.37092
 Alpha virt. eigenvalues --    2.37277   2.37461   2.37796   2.38239   2.38947
 Alpha virt. eigenvalues --    2.39652   2.39917   2.40396   2.41105   2.41365
 Alpha virt. eigenvalues --    2.41866   2.42137   2.42335   2.43192   2.44330
 Alpha virt. eigenvalues --    2.44625   2.45062   2.45599   2.45992   2.46379
 Alpha virt. eigenvalues --    2.46456   2.47051   2.47586   2.47799   2.48490
 Alpha virt. eigenvalues --    2.48940   2.49511   2.49936   2.50760   2.51621
 Alpha virt. eigenvalues --    2.52351   2.52475   2.52922   2.53759   2.54080
 Alpha virt. eigenvalues --    2.54354   2.54527   2.55030   2.55233   2.55632
 Alpha virt. eigenvalues --    2.56378   2.56611   2.56673   2.57311   2.57501
 Alpha virt. eigenvalues --    2.58034   2.58595   2.58769   2.59214   2.59603
 Alpha virt. eigenvalues --    2.59903   2.60082   2.60705   2.61056   2.61394
 Alpha virt. eigenvalues --    2.61980   2.62271   2.62363   2.63134   2.63902
 Alpha virt. eigenvalues --    2.64671   2.64869   2.65217   2.65641   2.66231
 Alpha virt. eigenvalues --    2.66478   2.66622   2.67012   2.67611   2.68134
 Alpha virt. eigenvalues --    2.68571   2.68669   2.69097   2.69712   2.70164
 Alpha virt. eigenvalues --    2.70522   2.70851   2.71385   2.71494   2.71858
 Alpha virt. eigenvalues --    2.73218   2.73226   2.73791   2.74265   2.74925
 Alpha virt. eigenvalues --    2.74945   2.75463   2.76364   2.76523   2.77504
 Alpha virt. eigenvalues --    2.77976   2.78249   2.78560   2.78780   2.79433
 Alpha virt. eigenvalues --    2.80177   2.80692   2.81233   2.81394   2.81730
 Alpha virt. eigenvalues --    2.81824   2.82322   2.82632   2.82875   2.83697
 Alpha virt. eigenvalues --    2.84242   2.84741   2.85008   2.85181   2.85748
 Alpha virt. eigenvalues --    2.86322   2.86792   2.87326   2.87887   2.88057
 Alpha virt. eigenvalues --    2.88873   2.89685   2.89903   2.90328   2.90683
 Alpha virt. eigenvalues --    2.90746   2.90833   2.91672   2.92140   2.92627
 Alpha virt. eigenvalues --    2.93407   2.93830   2.93885   2.94542   2.94940
 Alpha virt. eigenvalues --    2.95246   2.95359   2.95951   2.96270   2.96633
 Alpha virt. eigenvalues --    2.96939   2.97015   2.97397   2.98144   2.98738
 Alpha virt. eigenvalues --    2.99313   2.99748   3.00433   3.00449   3.01145
 Alpha virt. eigenvalues --    3.01625   3.02381   3.03068   3.03309   3.03652
 Alpha virt. eigenvalues --    3.04621   3.04864   3.05216   3.05705   3.06045
 Alpha virt. eigenvalues --    3.06721   3.06833   3.07189   3.07631   3.07907
 Alpha virt. eigenvalues --    3.08015   3.08730   3.08987   3.09240   3.09473
 Alpha virt. eigenvalues --    3.10207   3.10570   3.11025   3.11460   3.11627
 Alpha virt. eigenvalues --    3.12117   3.12418   3.12693   3.13234   3.13692
 Alpha virt. eigenvalues --    3.13891   3.14642   3.15002   3.15371   3.15706
 Alpha virt. eigenvalues --    3.16041   3.16546   3.16673   3.17055   3.17201
 Alpha virt. eigenvalues --    3.18075   3.18311   3.18958   3.19495   3.19692
 Alpha virt. eigenvalues --    3.19900   3.20252   3.20614   3.20986   3.21267
 Alpha virt. eigenvalues --    3.21576   3.21721   3.21972   3.22190   3.22600
 Alpha virt. eigenvalues --    3.22903   3.23061   3.23664   3.24090   3.24311
 Alpha virt. eigenvalues --    3.24882   3.25392   3.25556   3.25661   3.26055
 Alpha virt. eigenvalues --    3.26602   3.26758   3.26900   3.27004   3.27458
 Alpha virt. eigenvalues --    3.27744   3.28210   3.28690   3.29091   3.29124
 Alpha virt. eigenvalues --    3.29644   3.29900   3.30296   3.30588   3.30694
 Alpha virt. eigenvalues --    3.31416   3.31875   3.32211   3.32260   3.32725
 Alpha virt. eigenvalues --    3.33240   3.33518   3.33646   3.33896   3.34309
 Alpha virt. eigenvalues --    3.34668   3.35038   3.35328   3.35502   3.35602
 Alpha virt. eigenvalues --    3.35821   3.36231   3.36739   3.36957   3.37216
 Alpha virt. eigenvalues --    3.37511   3.37711   3.37843   3.38384   3.38709
 Alpha virt. eigenvalues --    3.39170   3.39401   3.39827   3.40114   3.40222
 Alpha virt. eigenvalues --    3.40680   3.40810   3.40984   3.41606   3.42155
 Alpha virt. eigenvalues --    3.42403   3.42861   3.42935   3.43836   3.44357
 Alpha virt. eigenvalues --    3.44651   3.44960   3.45287   3.45876   3.46094
 Alpha virt. eigenvalues --    3.46365   3.46729   3.47462   3.47850   3.48123
 Alpha virt. eigenvalues --    3.48888   3.49529   3.50172   3.50454   3.51100
 Alpha virt. eigenvalues --    3.51978   3.52426   3.52857   3.53577   3.53669
 Alpha virt. eigenvalues --    3.54156   3.55387   3.55678   3.56293   3.56787
 Alpha virt. eigenvalues --    3.57346   3.57561   3.58139   3.58663   3.58821
 Alpha virt. eigenvalues --    3.59385   3.60034   3.60465   3.60872   3.61626
 Alpha virt. eigenvalues --    3.62007   3.62561   3.62784   3.63425   3.63833
 Alpha virt. eigenvalues --    3.64289   3.65332   3.65812   3.66172   3.66632
 Alpha virt. eigenvalues --    3.67292   3.67927   3.68265   3.68744   3.69490
 Alpha virt. eigenvalues --    3.70361   3.70837   3.71014   3.71338   3.71634
 Alpha virt. eigenvalues --    3.72287   3.72621   3.72910   3.73470   3.74072
 Alpha virt. eigenvalues --    3.74206   3.74746   3.75201   3.75432   3.75564
 Alpha virt. eigenvalues --    3.76730   3.76830   3.77828   3.78276   3.78512
 Alpha virt. eigenvalues --    3.78633   3.79957   3.80197   3.81514   3.82588
 Alpha virt. eigenvalues --    3.82755   3.82918   3.83505   3.84044   3.84703
 Alpha virt. eigenvalues --    3.85346   3.86150   3.86564   3.86875   3.87658
 Alpha virt. eigenvalues --    3.88058   3.88489   3.89556   3.89969   3.90994
 Alpha virt. eigenvalues --    3.91416   3.91993   3.92614   3.93012   3.95536
 Alpha virt. eigenvalues --    3.96172   3.96752   3.97259   3.97416   3.98189
 Alpha virt. eigenvalues --    3.98953   3.99522   4.00067   4.00158   4.00750
 Alpha virt. eigenvalues --    4.01057   4.01730   4.01941   4.02595   4.03073
 Alpha virt. eigenvalues --    4.04436   4.04831   4.05240   4.06481   4.07029
 Alpha virt. eigenvalues --    4.07877   4.08995   4.09142   4.09815   4.09865
 Alpha virt. eigenvalues --    4.10980   4.11925   4.12180   4.12591   4.13283
 Alpha virt. eigenvalues --    4.14014   4.15237   4.15777   4.16073   4.16438
 Alpha virt. eigenvalues --    4.17095   4.17478   4.18251   4.18370   4.19170
 Alpha virt. eigenvalues --    4.19965   4.20738   4.21027   4.21931   4.22255
 Alpha virt. eigenvalues --    4.23053   4.23404   4.23645   4.24469   4.24929
 Alpha virt. eigenvalues --    4.25331   4.26408   4.27673   4.28078   4.28851
 Alpha virt. eigenvalues --    4.29410   4.30296   4.30456   4.31160   4.31668
 Alpha virt. eigenvalues --    4.32491   4.32698   4.33364   4.33839   4.34479
 Alpha virt. eigenvalues --    4.34644   4.36056   4.36823   4.37425   4.38294
 Alpha virt. eigenvalues --    4.38911   4.39993   4.40804   4.40942   4.41284
 Alpha virt. eigenvalues --    4.41637   4.42550   4.43209   4.44083   4.44227
 Alpha virt. eigenvalues --    4.44853   4.45407   4.45928   4.47240   4.48132
 Alpha virt. eigenvalues --    4.48473   4.49328   4.50833   4.51285   4.51956
 Alpha virt. eigenvalues --    4.52530   4.53521   4.54113   4.54919   4.55756
 Alpha virt. eigenvalues --    4.56643   4.57259   4.58134   4.58714   4.61247
 Alpha virt. eigenvalues --    4.62758   4.63569   4.64631   4.65697   4.66957
 Alpha virt. eigenvalues --    4.67059   4.68322   4.68662   4.69003   4.70808
 Alpha virt. eigenvalues --    4.72172   4.73171   4.73670   4.74812   4.75488
 Alpha virt. eigenvalues --    4.77736   4.79226   4.79925   4.82094   4.82249
 Alpha virt. eigenvalues --    4.82576   4.83509   4.83767   4.84336   4.85087
 Alpha virt. eigenvalues --    4.85722   4.86955   4.87593   4.88244   4.89128
 Alpha virt. eigenvalues --    4.90933   4.91955   4.92689   4.93574   4.93997
 Alpha virt. eigenvalues --    4.96043   4.96154   4.98789   4.99527   5.01176
 Alpha virt. eigenvalues --    5.01996   5.02469   5.03337   5.03758   5.04514
 Alpha virt. eigenvalues --    5.05208   5.06336   5.07137   5.08773   5.09008
 Alpha virt. eigenvalues --    5.12762   5.13341   5.15118   5.15795   5.16778
 Alpha virt. eigenvalues --    5.19291   5.20639   5.20769   5.22206   5.22681
 Alpha virt. eigenvalues --    5.23603   5.24581   5.25526   5.26726   5.27129
 Alpha virt. eigenvalues --    5.28118   5.34473   5.35551   5.36166   5.36529
 Alpha virt. eigenvalues --    5.37410   5.38043   5.38211   5.38556   5.39435
 Alpha virt. eigenvalues --    5.42097   5.46995   5.47378   5.48583   5.49595
 Alpha virt. eigenvalues --    5.50754   5.51106   5.51876   5.54761   5.58112
 Alpha virt. eigenvalues --    5.59062   5.60072   5.61236   5.61909   5.62976
 Alpha virt. eigenvalues --    5.65906   5.66909   5.67784   5.71243   5.74710
 Alpha virt. eigenvalues --    5.74898   5.76910   5.78052   5.85222   5.86299
 Alpha virt. eigenvalues --    5.89042   5.90268   5.99281   6.00242   6.00944
 Alpha virt. eigenvalues --    6.07845   6.09625   6.09945   6.11272   6.17442
 Alpha virt. eigenvalues --    6.22562   6.23977   6.31829   6.32892   6.40263
 Alpha virt. eigenvalues --    6.46046   6.49597   6.50722   6.64077   6.95287
 Alpha virt. eigenvalues --    7.26655   9.06079   9.23004   9.38687  19.58789
 Alpha virt. eigenvalues --   22.32110  22.36052  22.36430  22.45711  22.46389
 Alpha virt. eigenvalues --   22.52580  22.53551  22.61888  22.62202  22.84256
 Alpha virt. eigenvalues --   22.87003  22.91062  22.92929  22.95396  22.95952
 Alpha virt. eigenvalues --   22.97046  23.03045  23.04534  23.14796  23.26016
 Alpha virt. eigenvalues --   23.30412  23.31338  23.39976  23.41946  23.50203
 Alpha virt. eigenvalues --   23.51250  23.55285  23.74410  23.79013  23.79622
 Alpha virt. eigenvalues --   23.88536  32.86286  32.89226  32.91436  33.01885
 Alpha virt. eigenvalues --   43.90315
  Beta  occ. eigenvalues -- -256.28695 -88.97415 -30.11369 -25.95986 -25.95877
  Beta  occ. eigenvalues --  -25.95168 -19.18488 -14.35177 -14.35139 -14.34835
  Beta  occ. eigenvalues --  -14.34796 -10.23351 -10.22054 -10.21932 -10.21889
  Beta  occ. eigenvalues --  -10.21739 -10.21194 -10.21147 -10.21044 -10.20943
  Beta  occ. eigenvalues --  -10.19808 -10.19740 -10.19509 -10.19458 -10.19396
  Beta  occ. eigenvalues --  -10.19384 -10.19250 -10.19114 -10.19112 -10.19069
  Beta  occ. eigenvalues --  -10.19046 -10.19006 -10.18853 -10.18784 -10.18706
  Beta  occ. eigenvalues --  -10.18689 -10.18415 -10.18333 -10.18317 -10.17979
  Beta  occ. eigenvalues --  -10.17055 -10.16850  -8.00390  -5.94951  -5.94649
  Beta  occ. eigenvalues --   -5.94110  -3.44980  -2.21477  -2.21325  -2.18258
  Beta  occ. eigenvalues --   -1.06596  -0.98108  -0.97250  -0.96909  -0.96081
  Beta  occ. eigenvalues --   -0.82583  -0.82306  -0.81920  -0.81716  -0.81442
  Beta  occ. eigenvalues --   -0.81112  -0.80094  -0.79615  -0.76957  -0.75846
  Beta  occ. eigenvalues --   -0.74712  -0.74083  -0.73540  -0.71333  -0.70395
  Beta  occ. eigenvalues --   -0.69047  -0.68641  -0.68288  -0.67794  -0.64592
  Beta  occ. eigenvalues --   -0.64242  -0.62125  -0.60880  -0.60314  -0.58069
  Beta  occ. eigenvalues --   -0.57321  -0.55057  -0.54323  -0.53694  -0.53445
  Beta  occ. eigenvalues --   -0.51746  -0.51688  -0.51251  -0.49345  -0.48312
  Beta  occ. eigenvalues --   -0.48100  -0.47736  -0.46400  -0.45912  -0.45113
  Beta  occ. eigenvalues --   -0.44880  -0.44769  -0.44376  -0.43993  -0.43859
  Beta  occ. eigenvalues --   -0.43566  -0.43266  -0.43038  -0.42862  -0.42599
  Beta  occ. eigenvalues --   -0.42094  -0.41954  -0.41660  -0.41616  -0.40783
  Beta  occ. eigenvalues --   -0.40602  -0.40543  -0.40161  -0.39923  -0.39885
  Beta  occ. eigenvalues --   -0.39641  -0.39164  -0.38722  -0.38652  -0.38174
  Beta  occ. eigenvalues --   -0.38040  -0.37708  -0.37396  -0.36958  -0.36858
  Beta  occ. eigenvalues --   -0.36248  -0.35957  -0.35314  -0.34950  -0.34566
  Beta  occ. eigenvalues --   -0.33983  -0.32576  -0.32012  -0.31724  -0.31365
  Beta  occ. eigenvalues --   -0.30549  -0.29887  -0.29184  -0.27098  -0.26459
  Beta  occ. eigenvalues --   -0.26168  -0.24420  -0.23820  -0.22715  -0.22309
  Beta  occ. eigenvalues --   -0.18771  -0.17971
  Beta virt. eigenvalues --   -0.09934  -0.09216  -0.06020  -0.05126  -0.04568
  Beta virt. eigenvalues --   -0.01826  -0.00251   0.00454   0.00544   0.02088
  Beta virt. eigenvalues --    0.02550   0.03727   0.04651   0.04785   0.05127
  Beta virt. eigenvalues --    0.05520   0.06175   0.06788   0.07563   0.07663
  Beta virt. eigenvalues --    0.07856   0.08128   0.08878   0.09333   0.09429
  Beta virt. eigenvalues --    0.09672   0.09787   0.10155   0.10775   0.10868
  Beta virt. eigenvalues --    0.11163   0.11424   0.11488   0.12014   0.12440
  Beta virt. eigenvalues --    0.12645   0.12903   0.13198   0.13292   0.13581
  Beta virt. eigenvalues --    0.13847   0.14164   0.14413   0.14610   0.14829
  Beta virt. eigenvalues --    0.14950   0.15209   0.15317   0.15684   0.15975
  Beta virt. eigenvalues --    0.16017   0.16275   0.16442   0.16570   0.17035
  Beta virt. eigenvalues --    0.17144   0.17411   0.17641   0.17832   0.18268
  Beta virt. eigenvalues --    0.18474   0.18888   0.19282   0.19492   0.19754
  Beta virt. eigenvalues --    0.20018   0.20422   0.20435   0.20800   0.21265
  Beta virt. eigenvalues --    0.21732   0.21899   0.22125   0.22627   0.22759
  Beta virt. eigenvalues --    0.23032   0.23334   0.23878   0.24095   0.24592
  Beta virt. eigenvalues --    0.24973   0.25368   0.25440   0.25540   0.25870
  Beta virt. eigenvalues --    0.26262   0.26572   0.26702   0.27173   0.27425
  Beta virt. eigenvalues --    0.27548   0.27804   0.28117   0.28439   0.28718
  Beta virt. eigenvalues --    0.28957   0.29157   0.29284   0.29448   0.29819
  Beta virt. eigenvalues --    0.30308   0.30470   0.30607   0.30975   0.31410
  Beta virt. eigenvalues --    0.31726   0.32005   0.32147   0.32498   0.32694
  Beta virt. eigenvalues --    0.33007   0.33208   0.34024   0.34305   0.34489
  Beta virt. eigenvalues --    0.34815   0.35377   0.35877   0.36023   0.36148
  Beta virt. eigenvalues --    0.36599   0.36970   0.37023   0.37337   0.37397
  Beta virt. eigenvalues --    0.37760   0.38291   0.38359   0.38812   0.39297
  Beta virt. eigenvalues --    0.39385   0.39483   0.39821   0.39941   0.40243
  Beta virt. eigenvalues --    0.40453   0.40705   0.40801   0.41029   0.41418
  Beta virt. eigenvalues --    0.41552   0.41720   0.42056   0.42406   0.42589
  Beta virt. eigenvalues --    0.42732   0.42838   0.43182   0.43430   0.43693
  Beta virt. eigenvalues --    0.43787   0.44027   0.44359   0.44723   0.44849
  Beta virt. eigenvalues --    0.45140   0.45329   0.45873   0.45924   0.46103
  Beta virt. eigenvalues --    0.46577   0.46735   0.47008   0.47115   0.47402
  Beta virt. eigenvalues --    0.47618   0.47735   0.48178   0.48281   0.48638
  Beta virt. eigenvalues --    0.48829   0.48906   0.49210   0.49446   0.49654
  Beta virt. eigenvalues --    0.49868   0.50262   0.50394   0.50740   0.50964
  Beta virt. eigenvalues --    0.51147   0.51391   0.51785   0.51875   0.52330
  Beta virt. eigenvalues --    0.52482   0.52721   0.52934   0.53317   0.53392
  Beta virt. eigenvalues --    0.53526   0.53878   0.53996   0.54712   0.54772
  Beta virt. eigenvalues --    0.55131   0.55378   0.55578   0.55819   0.56138
  Beta virt. eigenvalues --    0.56602   0.57128   0.57383   0.57666   0.57803
  Beta virt. eigenvalues --    0.57988   0.58216   0.58282   0.58851   0.59223
  Beta virt. eigenvalues --    0.60123   0.60493   0.60997   0.61105   0.61533
  Beta virt. eigenvalues --    0.61733   0.61923   0.62173   0.62477   0.62653
  Beta virt. eigenvalues --    0.63167   0.63331   0.63567   0.63906   0.64350
  Beta virt. eigenvalues --    0.64554   0.64837   0.65342   0.65505   0.65864
  Beta virt. eigenvalues --    0.66197   0.66355   0.66679   0.67155   0.67280
  Beta virt. eigenvalues --    0.67642   0.67846   0.68147   0.68538   0.68880
  Beta virt. eigenvalues --    0.69808   0.69929   0.70306   0.70465   0.70888
  Beta virt. eigenvalues --    0.71468   0.71688   0.71970   0.72186   0.72960
  Beta virt. eigenvalues --    0.73311   0.73316   0.73634   0.73994   0.74204
  Beta virt. eigenvalues --    0.74278   0.74515   0.75137   0.75688   0.75984
  Beta virt. eigenvalues --    0.76737   0.76926   0.77297   0.77573   0.77776
  Beta virt. eigenvalues --    0.78097   0.78672   0.78840   0.78945   0.79331
  Beta virt. eigenvalues --    0.79538   0.80346   0.80498   0.81016   0.81081
  Beta virt. eigenvalues --    0.81538   0.82010   0.82573   0.82669   0.83596
  Beta virt. eigenvalues --    0.83888   0.84400   0.84797   0.85042   0.85359
  Beta virt. eigenvalues --    0.85953   0.86658   0.86818   0.87240   0.88016
  Beta virt. eigenvalues --    0.88314   0.88842   0.89420   0.90035   0.90292
  Beta virt. eigenvalues --    0.90832   0.91233   0.91338   0.91670   0.91973
  Beta virt. eigenvalues --    0.92299   0.92829   0.92968   0.93328   0.93902
  Beta virt. eigenvalues --    0.94375   0.94627   0.94861   0.95229   0.95490
  Beta virt. eigenvalues --    0.96209   0.96845   0.97515   0.97784   0.98097
  Beta virt. eigenvalues --    0.98151   0.98388   0.98780   0.99274   0.99436
  Beta virt. eigenvalues --    0.99678   1.00009   1.00867   1.00911   1.01429
  Beta virt. eigenvalues --    1.01503   1.01757   1.02057   1.02689   1.03103
  Beta virt. eigenvalues --    1.03145   1.03309   1.03801   1.03994   1.04389
  Beta virt. eigenvalues --    1.04688   1.04824   1.05303   1.05824   1.06352
  Beta virt. eigenvalues --    1.06808   1.07081   1.07312   1.07910   1.08258
  Beta virt. eigenvalues --    1.09121   1.09811   1.10354   1.10504   1.10777
  Beta virt. eigenvalues --    1.12030   1.12619   1.12662   1.13183   1.13680
  Beta virt. eigenvalues --    1.14072   1.14780   1.15193   1.16360   1.16648
  Beta virt. eigenvalues --    1.17096   1.17364   1.18050   1.18221   1.18645
  Beta virt. eigenvalues --    1.18998   1.19126   1.19226   1.19924   1.20541
  Beta virt. eigenvalues --    1.20740   1.20904   1.21644   1.22075   1.22545
  Beta virt. eigenvalues --    1.23046   1.23748   1.24300   1.24628   1.25481
  Beta virt. eigenvalues --    1.25658   1.26150   1.26303   1.26790   1.27122
  Beta virt. eigenvalues --    1.27628   1.28234   1.28321   1.28674   1.28758
  Beta virt. eigenvalues --    1.29367   1.29519   1.30122   1.31061   1.31419
  Beta virt. eigenvalues --    1.32069   1.32745   1.33811   1.33961   1.34185
  Beta virt. eigenvalues --    1.36296   1.36394   1.36984   1.37245   1.37523
  Beta virt. eigenvalues --    1.37933   1.38860   1.39710   1.40820   1.41215
  Beta virt. eigenvalues --    1.42051   1.42402   1.42828   1.42948   1.43378
  Beta virt. eigenvalues --    1.44599   1.44812   1.45125   1.45413   1.45723
  Beta virt. eigenvalues --    1.46051   1.46560   1.47072   1.47102   1.48005
  Beta virt. eigenvalues --    1.48279   1.48577   1.49250   1.49568   1.49911
  Beta virt. eigenvalues --    1.50137   1.50508   1.50936   1.51139   1.51274
  Beta virt. eigenvalues --    1.51561   1.51778   1.52300   1.52486   1.52683
  Beta virt. eigenvalues --    1.53302   1.53644   1.53956   1.54494   1.54600
  Beta virt. eigenvalues --    1.54801   1.55199   1.55312   1.55393   1.55685
  Beta virt. eigenvalues --    1.56044   1.56181   1.56730   1.56811   1.57056
  Beta virt. eigenvalues --    1.57574   1.57833   1.57874   1.58109   1.58558
  Beta virt. eigenvalues --    1.59122   1.59287   1.59677   1.59966   1.60117
  Beta virt. eigenvalues --    1.60903   1.61100   1.61673   1.61972   1.62295
  Beta virt. eigenvalues --    1.62830   1.62936   1.62994   1.63205   1.63690
  Beta virt. eigenvalues --    1.64222   1.64785   1.64930   1.64991   1.65187
  Beta virt. eigenvalues --    1.65494   1.65779   1.66002   1.66543   1.66930
  Beta virt. eigenvalues --    1.67360   1.68034   1.68210   1.69010   1.69138
  Beta virt. eigenvalues --    1.69335   1.69410   1.70005   1.70320   1.70484
  Beta virt. eigenvalues --    1.70873   1.71249   1.71412   1.72041   1.72759
  Beta virt. eigenvalues --    1.73154   1.73642   1.73816   1.74082   1.74537
  Beta virt. eigenvalues --    1.74807   1.75574   1.76333   1.76621   1.77518
  Beta virt. eigenvalues --    1.78349   1.78503   1.78771   1.79369   1.80310
  Beta virt. eigenvalues --    1.80759   1.81730   1.81760   1.81873   1.82744
  Beta virt. eigenvalues --    1.83370   1.83381   1.83883   1.84379   1.85161
  Beta virt. eigenvalues --    1.85492   1.86261   1.86446   1.86776   1.87404
  Beta virt. eigenvalues --    1.87503   1.88314   1.88574   1.89254   1.89422
  Beta virt. eigenvalues --    1.89783   1.90911   1.91248   1.91532   1.92047
  Beta virt. eigenvalues --    1.92611   1.92958   1.93385   1.94212   1.94980
  Beta virt. eigenvalues --    1.95107   1.95633   1.95926   1.96269   1.97209
  Beta virt. eigenvalues --    1.97643   1.98004   1.98752   1.99013   1.99305
  Beta virt. eigenvalues --    1.99675   1.99794   2.00034   2.00901   2.01209
  Beta virt. eigenvalues --    2.01518   2.02049   2.02703   2.02980   2.03669
  Beta virt. eigenvalues --    2.04212   2.05009   2.05619   2.06536   2.07009
  Beta virt. eigenvalues --    2.07206   2.07683   2.08204   2.08893   2.09172
  Beta virt. eigenvalues --    2.09378   2.09603   2.10332   2.11211   2.11618
  Beta virt. eigenvalues --    2.12000   2.12059   2.12767   2.13092   2.13536
  Beta virt. eigenvalues --    2.14187   2.15196   2.15471   2.16095   2.16650
  Beta virt. eigenvalues --    2.16738   2.18039   2.18576   2.19001   2.19122
  Beta virt. eigenvalues --    2.19606   2.20169   2.20710   2.21024   2.21445
  Beta virt. eigenvalues --    2.21618   2.22483   2.23053   2.24088   2.24611
  Beta virt. eigenvalues --    2.24846   2.25421   2.25863   2.26367   2.26734
  Beta virt. eigenvalues --    2.26958   2.27260   2.27884   2.28755   2.29300
  Beta virt. eigenvalues --    2.29644   2.29830   2.30135   2.30979   2.31585
  Beta virt. eigenvalues --    2.31640   2.31982   2.32663   2.32865   2.33202
  Beta virt. eigenvalues --    2.34561   2.34745   2.35246   2.35562   2.35959
  Beta virt. eigenvalues --    2.36651   2.36857   2.37009   2.37221   2.37388
  Beta virt. eigenvalues --    2.37950   2.38216   2.38480   2.39102   2.39854
  Beta virt. eigenvalues --    2.40277   2.40577   2.41336   2.41912   2.42068
  Beta virt. eigenvalues --    2.42574   2.43300   2.43400   2.44558   2.44952
  Beta virt. eigenvalues --    2.45352   2.45805   2.46194   2.46594   2.46621
  Beta virt. eigenvalues --    2.47636   2.47870   2.48162   2.48762   2.49344
  Beta virt. eigenvalues --    2.49717   2.50205   2.50988   2.51868   2.52469
  Beta virt. eigenvalues --    2.52566   2.53122   2.54007   2.54382   2.54606
  Beta virt. eigenvalues --    2.54705   2.55213   2.55418   2.55806   2.56509
  Beta virt. eigenvalues --    2.56715   2.56846   2.57419   2.57625   2.58200
  Beta virt. eigenvalues --    2.58843   2.58975   2.59408   2.59736   2.60091
  Beta virt. eigenvalues --    2.60258   2.60899   2.61209   2.61698   2.62212
  Beta virt. eigenvalues --    2.62506   2.62529   2.63368   2.64126   2.64792
  Beta virt. eigenvalues --    2.65036   2.65419   2.65791   2.66468   2.66612
  Beta virt. eigenvalues --    2.66790   2.67249   2.67804   2.68287   2.68746
  Beta virt. eigenvalues --    2.68887   2.69264   2.69889   2.70429   2.70688
  Beta virt. eigenvalues --    2.71067   2.71588   2.71692   2.72185   2.73445
  Beta virt. eigenvalues --    2.73576   2.73981   2.74541   2.75095   2.75160
  Beta virt. eigenvalues --    2.75661   2.76552   2.76841   2.77730   2.78236
  Beta virt. eigenvalues --    2.78539   2.78792   2.78990   2.79734   2.80561
  Beta virt. eigenvalues --    2.80923   2.81467   2.81686   2.81873   2.82049
  Beta virt. eigenvalues --    2.82583   2.82819   2.83186   2.83900   2.84407
  Beta virt. eigenvalues --    2.85042   2.85271   2.85412   2.85957   2.86612
  Beta virt. eigenvalues --    2.86993   2.87605   2.88101   2.88275   2.89057
  Beta virt. eigenvalues --    2.89967   2.90200   2.90612   2.90829   2.90985
  Beta virt. eigenvalues --    2.91257   2.91867   2.92490   2.92846   2.93654
  Beta virt. eigenvalues --    2.94006   2.94203   2.94759   2.95405   2.95533
  Beta virt. eigenvalues --    2.95648   2.96182   2.96512   2.96873   2.97112
  Beta virt. eigenvalues --    2.97420   2.97626   2.98391   2.98937   2.99510
  Beta virt. eigenvalues --    2.99933   3.00605   3.00665   3.01363   3.01869
  Beta virt. eigenvalues --    3.02570   3.03240   3.03529   3.03876   3.04859
  Beta virt. eigenvalues --    3.05023   3.05511   3.05932   3.06269   3.06970
  Beta virt. eigenvalues --    3.07083   3.07383   3.07800   3.08086   3.08205
  Beta virt. eigenvalues --    3.08883   3.09155   3.09425   3.09660   3.10377
  Beta virt. eigenvalues --    3.10756   3.11220   3.11673   3.11797   3.12368
  Beta virt. eigenvalues --    3.12636   3.12896   3.13467   3.13966   3.14056
  Beta virt. eigenvalues --    3.14810   3.15191   3.15600   3.15978   3.16251
  Beta virt. eigenvalues --    3.16797   3.16872   3.17293   3.17432   3.18308
  Beta virt. eigenvalues --    3.18487   3.19148   3.19671   3.19871   3.20086
  Beta virt. eigenvalues --    3.20423   3.20825   3.21166   3.21502   3.21781
  Beta virt. eigenvalues --    3.21900   3.22139   3.22439   3.22834   3.23116
  Beta virt. eigenvalues --    3.23248   3.23940   3.24244   3.24551   3.25064
  Beta virt. eigenvalues --    3.25657   3.25749   3.25846   3.26293   3.26761
  Beta virt. eigenvalues --    3.26926   3.27067   3.27246   3.27623   3.27935
  Beta virt. eigenvalues --    3.28457   3.28891   3.29241   3.29329   3.29776
  Beta virt. eigenvalues --    3.30017   3.30440   3.30646   3.30846   3.31614
  Beta virt. eigenvalues --    3.32166   3.32405   3.32442   3.32921   3.33372
  Beta virt. eigenvalues --    3.33754   3.33828   3.34080   3.34515   3.34819
  Beta virt. eigenvalues --    3.35219   3.35527   3.35674   3.35742   3.36050
  Beta virt. eigenvalues --    3.36434   3.36893   3.37239   3.37386   3.37678
  Beta virt. eigenvalues --    3.38012   3.38041   3.38556   3.38907   3.39344
  Beta virt. eigenvalues --    3.39629   3.39979   3.40376   3.40433   3.40919
  Beta virt. eigenvalues --    3.41060   3.41187   3.41858   3.42432   3.42550
  Beta virt. eigenvalues --    3.43050   3.43257   3.44075   3.44557   3.44874
  Beta virt. eigenvalues --    3.45321   3.45480   3.46048   3.46321   3.46505
  Beta virt. eigenvalues --    3.47018   3.47663   3.48088   3.48435   3.49112
  Beta virt. eigenvalues --    3.49822   3.50433   3.50668   3.51268   3.52113
  Beta virt. eigenvalues --    3.52649   3.53162   3.53875   3.53998   3.54414
  Beta virt. eigenvalues --    3.55581   3.55904   3.56521   3.57010   3.57562
  Beta virt. eigenvalues --    3.57858   3.58329   3.58913   3.59153   3.59629
  Beta virt. eigenvalues --    3.60235   3.60746   3.61196   3.61977   3.62373
  Beta virt. eigenvalues --    3.62838   3.63071   3.63814   3.64180   3.64585
  Beta virt. eigenvalues --    3.65653   3.66153   3.66503   3.67034   3.67624
  Beta virt. eigenvalues --    3.68292   3.68650   3.69078   3.69684   3.70655
  Beta virt. eigenvalues --    3.71266   3.71487   3.71578   3.72275   3.72672
  Beta virt. eigenvalues --    3.72872   3.73152   3.73959   3.74339   3.74701
  Beta virt. eigenvalues --    3.75038   3.75524   3.75792   3.76262   3.76987
  Beta virt. eigenvalues --    3.77319   3.78036   3.78713   3.78893   3.79627
  Beta virt. eigenvalues --    3.80448   3.80661   3.82121   3.82958   3.83288
  Beta virt. eigenvalues --    3.83969   3.84466   3.84926   3.84999   3.86144
  Beta virt. eigenvalues --    3.87361   3.87549   3.88118   3.88492   3.88522
  Beta virt. eigenvalues --    3.89457   3.89928   3.90674   3.91983   3.92361
  Beta virt. eigenvalues --    3.92612   3.93526   3.94360   3.96016   3.96511
  Beta virt. eigenvalues --    3.97437   3.97850   3.98681   3.98789   3.99801
  Beta virt. eigenvalues --    4.00178   4.00555   4.00712   4.01806   4.02517
  Beta virt. eigenvalues --    4.02865   4.03844   4.04049   4.04620   4.04963
  Beta virt. eigenvalues --    4.06240   4.06494   4.07334   4.07823   4.09274
  Beta virt. eigenvalues --    4.10122   4.10858   4.11428   4.12289   4.12561
  Beta virt. eigenvalues --    4.13346   4.13694   4.14370   4.15171   4.15598
  Beta virt. eigenvalues --    4.16268   4.16758   4.17064   4.17136   4.17862
  Beta virt. eigenvalues --    4.18609   4.19019   4.19510   4.20250   4.20746
  Beta virt. eigenvalues --    4.21437   4.21785   4.23093   4.23693   4.24368
  Beta virt. eigenvalues --    4.24500   4.25341   4.25790   4.27078   4.27510
  Beta virt. eigenvalues --    4.28308   4.28650   4.29166   4.29887   4.30501
  Beta virt. eigenvalues --    4.30739   4.30830   4.32283   4.32907   4.33152
  Beta virt. eigenvalues --    4.33980   4.34318   4.34946   4.35192   4.36476
  Beta virt. eigenvalues --    4.37041   4.37650   4.38412   4.39065   4.39746
  Beta virt. eigenvalues --    4.40651   4.41168   4.41627   4.42406   4.42859
  Beta virt. eigenvalues --    4.43612   4.44210   4.44278   4.44690   4.45419
  Beta virt. eigenvalues --    4.45920   4.46262   4.47546   4.48467   4.48648
  Beta virt. eigenvalues --    4.49548   4.51001   4.51517   4.52298   4.52713
  Beta virt. eigenvalues --    4.53825   4.54334   4.55148   4.55971   4.56811
  Beta virt. eigenvalues --    4.57449   4.58348   4.58955   4.61447   4.63088
  Beta virt. eigenvalues --    4.63962   4.64811   4.66365   4.67092   4.67174
  Beta virt. eigenvalues --    4.68499   4.68807   4.69119   4.71424   4.72336
  Beta virt. eigenvalues --    4.73313   4.73821   4.74996   4.75608   4.77914
  Beta virt. eigenvalues --    4.79489   4.80140   4.82245   4.82433   4.82937
  Beta virt. eigenvalues --    4.83642   4.83914   4.84581   4.85459   4.85934
  Beta virt. eigenvalues --    4.87103   4.87759   4.88407   4.89302   4.91106
  Beta virt. eigenvalues --    4.92144   4.92873   4.93828   4.94182   4.96205
  Beta virt. eigenvalues --    4.96414   4.99025   4.99750   5.01400   5.02254
  Beta virt. eigenvalues --    5.02706   5.03617   5.03974   5.04772   5.05530
  Beta virt. eigenvalues --    5.06521   5.07353   5.08911   5.09194   5.12883
  Beta virt. eigenvalues --    5.13480   5.15345   5.16128   5.16903   5.19425
  Beta virt. eigenvalues --    5.20832   5.21046   5.22394   5.23025   5.23948
  Beta virt. eigenvalues --    5.24857   5.25760   5.27002   5.27509   5.28293
  Beta virt. eigenvalues --    5.34616   5.35716   5.36313   5.36757   5.37591
  Beta virt. eigenvalues --    5.38186   5.38400   5.38705   5.39606   5.42253
  Beta virt. eigenvalues --    5.47162   5.47559   5.48617   5.49653   5.50837
  Beta virt. eigenvalues --    5.51167   5.51998   5.54997   5.58202   5.59177
  Beta virt. eigenvalues --    5.60138   5.61324   5.62030   5.63139   5.65974
  Beta virt. eigenvalues --    5.67080   5.67926   5.71276   5.74763   5.74977
  Beta virt. eigenvalues --    5.76967   5.78190   5.85363   5.86388   5.89181
  Beta virt. eigenvalues --    5.90406   5.99256   6.00194   6.00890   6.07945
  Beta virt. eigenvalues --    6.09661   6.10047   6.11376   6.17378   6.22730
  Beta virt. eigenvalues --    6.23989   6.31792   6.32846   6.40219   6.46350
  Beta virt. eigenvalues --    6.49848   6.51050   6.64636   6.95585   7.26880
  Beta virt. eigenvalues --    9.06205   9.23344   9.38886  19.58965  22.32116
  Beta virt. eigenvalues --   22.36098  22.36451  22.45708  22.46389  22.52579
[...]
  1253. RY*(  13) C  67                  0.00000     2.94279   
  1254. RY*(  14) C  67                  0.00000     1.62643   
  1255. RY*(  15) C  67                  0.00000     3.17481   
  1256. RY*(  16) C  67                  0.00001     1.27413   
  1257. RY*(  17) C  67                  0.00000     3.16993   
  1258. RY*(  18) C  67                  0.00001     1.35252   
  1259. RY*(  19) C  67                  0.00000     2.91131   
  1260. RY*(  20) C  67                  0.00000     3.38255   
  1261. RY*(  21) C  67                  0.00000     3.22517   
  1262. RY*(  22) C  67                  0.00000     3.56938   
  1263. RY*(  23) C  67                  0.00000     3.14691   
  1264. RY*(  24) C  67                  0.00000     3.42474   
  1265. RY*(  25) C  67                  0.00000     3.31994   
  1266. RY*(  26) C  67                  0.00000     3.29043   
  1267. RY*(   1) H  68                  0.00024     1.21860   
  1268. RY*(   2) H  68                  0.00007     1.34379   
  1269. RY*(   3) H  68                  0.00003     2.16932   
  1270. RY*(   4) H  68                  0.00003     2.14318   
  1271. RY*(   5) H  68                  0.00000     2.89509   
  1272. RY*(   1) H  69                  0.00025     1.57335   
  1273. RY*(   2) H  69                  0.00009     1.84664   
  1274. RY*(   3) H  69                  0.00003     2.20835   
  1275. RY*(   4) H  69                  0.00001     2.89172   
  1276. RY*(   5) H  69                  0.00002     1.63088   
  1277. RY*(   1) H  70                  0.00045     1.48786   
  1278. RY*(   2) H  70                  0.00010     2.06019   
  1279. RY*(   3) H  70                  0.00005     2.26571   
  1280. RY*(   4) H  70                  0.00003     2.79351   
  1281. RY*(   5) H  70                  0.00001     1.98808   
  1282. RY*(   1) S  71                  0.00173     0.63055   
  1283. RY*(   2) S  71                  0.00142     0.76836   
  1284. RY*(   3) S  71                  0.00079     0.75574   
  1285. RY*(   4) S  71                  0.00048     1.09471   
  1286. RY*(   5) S  71                  0.00031     1.31194   
  1287. RY*(   6) S  71                  0.00016     1.06968   
  1288. RY*(   7) S  71                  0.00016     1.13420   
  1289. RY*(   8) S  71                  0.00010     1.59681   
  1290. RY*(   9) S  71                  0.00005     2.11171   
  1291. RY*(  10) S  71                  0.00005     1.02254   
  1292. RY*(  11) S  71                  0.00003     1.69624   
  1293. RY*(  12) S  71                  0.00001     2.89768   
  1294. RY*(  13) S  71                  0.00001     1.64519   
  1295. RY*(  14) S  71                  0.00000     2.32411   
  1296. RY*(  15) S  71                  0.00000     8.61818   
  1297. RY*(  16) S  71                  0.00001     2.47165   
  1298. RY*(  17) S  71                  0.00000     1.61631   
  1299. RY*(  18) S  71                  0.00000     8.29505   
  1300. RY*(  19) S  71                  0.00001     1.79852   
  1301. RY*(  20) S  71                  0.00000    18.28019   
  1302. RY*(  21) S  71                  0.00000     8.64871   
  1303. RY*(  22) S  71                  0.00001     2.06667   
  1304. RY*(  23) S  71                  0.00000     2.04681   
  1305. RY*(  24) S  71                  0.00000     2.04196   
  1306. RY*(  25) S  71                  0.00000     1.98345   
  1307. RY*(  26) S  71                  0.00001     1.87543   
  1308. RY*(  27) S  71                  0.00000     1.97238   
  1309. RY*(  28) S  71                  0.00000     2.23540   
  1310. RY*(   1) H  72                  0.00077     1.11326   
  1311. RY*(   2) H  72                  0.00013     1.77648   
  1312. RY*(   3) H  72                  0.00010     2.12857   
  1313. RY*(   4) H  72                  0.00004     1.93272   
  1314. RY*(   5) H  72                  0.00001     2.59639   
  1315. BD*(   1)Fe   1 - N   3          0.03170     0.35601   
  1316. BD*(   1)Fe   1 - N   4          0.05143     0.27739   
  1317. BD*(   1)Fe   1 - N   5          0.03389     0.36694   
  1318. BD*(   1)Fe   1 - S  71          0.02375     0.23361   
  1319. BD*(   1) N   2 - C   6          0.01403     0.50139   
  1320. BD*(   2) N   2 - C   6          0.34382    -0.00051  148(v),1334(v),1339(v)
                                                    142(r),183(g),287(g),286(g)
                                                    702(v),140(r),143(r),1326(r)
  1321. BD*(   1) N   2 - C   9          0.01388     0.50347   
  1322. BD*(   1) N   3 - C  10          0.01435     0.50324   
  1323. BD*(   2) N   3 - C  10          0.31236     0.01453  1339(v),1343(v),145(v)
                                                    141(v),391(g),209(g),143(v)
                                                    732(v),1329(r),211(g)
  1324. BD*(   1) N   3 - C  13          0.01378     0.50977   
  1325. BD*(   1) N   4 - C  14          0.01412     0.50371   
  1326. BD*(   2) N   4 - C  14          0.35341     0.00212  149(v),1351(v),146(v),142(v)
                                                    494(g),235(g),143(v),764(v)
                                                    140(v),1320(r)
  1327. BD*(   1) N   4 - C  17          0.01368     0.51061   
  1328. BD*(   1) N   5 - C  18          0.01418     0.50773   
  1329. BD*(   2) N   5 - C  18          0.30991     0.01641  1359(v),147(v),141(v),599(g)
                                                    261(g),795(v),143(v),1323(r)
                                                    263(g)
  1330. BD*(   1) N   5 - C  21          0.01433     0.50308   
  1331. BD*(   1) C   6 - C   7          0.01723     0.49092   
  1332. BD*(   1) C   6 - C  22          0.01044     0.58145   
  1333. BD*(   1) C   7 - C   8          0.01132     0.60335   
  1334. BD*(   2) C   7 - C   8          0.12498     0.06950  1339(v),1320(v),1372(v)
                                                    1370(v),1369(v),1371(v)
  1335. BD*(   1) C   7 - C  34          0.00859     0.41444   
  1336. BD*(   1) C   8 - C   9          0.01725     0.49180   
  1337. BD*(   1) C   8 - C  30          0.00844     0.41135   
  1338. BD*(   1) C   9 - C  24          0.01052     0.57749   
  1339. BD*(   2) C   9 - C  24          0.20195     0.04736  1323(v),1334(v),1320(v)
                                                    732(g),367(g)
  1340. BD*(   1) C  10 - C  11          0.01684     0.50055   
  1341. BD*(   1) C  10 - C  24          0.01048     0.57007   
  1342. BD*(   1) C  11 - C  12          0.01243     0.59625   
  1343. BD*(   2) C  11 - C  12          0.14021     0.07160  1379(v),1323(v),145(v)
                                                    1374(v),1375(v),1377(v)
  1344. BD*(   1) C  11 - C  38          0.00810     0.41820   
  1345. BD*(   1) C  12 - C  13          0.01691     0.49063   
  1346. BD*(   1) C  12 - C  42          0.01333     0.50121   
  1347. BD*(   1) C  13 - C  26          0.01022     0.58608   
  1348. BD*(   1) C  14 - C  15          0.01702     0.50282   
  1349. BD*(   1) C  14 - C  26          0.01059     0.58229   
  1350. BD*(   1) C  15 - C  16          0.01216     0.59462   
  1351. BD*(   2) C  15 - C  16          0.13744     0.07310  1387(v),1326(v),146(v)
                                                    1382(v),1383(v)
  1352. BD*(   1) C  15 - C  47          0.00811     0.42264   
  1353. BD*(   1) C  16 - C  17          0.01666     0.49087   
  1354. BD*(   1) C  16 - C  51          0.01317     0.49903   
  1355. BD*(   1) C  17 - C  28          0.01020     0.57434   
  1356. BD*(   1) C  18 - C  19          0.01700     0.49285   
  1357. BD*(   1) C  18 - C  28          0.01034     0.57850   
  1358. BD*(   1) C  19 - C  20          0.01122     0.61084   
  1359. BD*(   2) C  19 - C  20          0.11992     0.07439  1329(v),147(v),1395(v)
                                                    1393(v),1390(v),1391(v)
  1360. BD*(   1) C  19 - C  56          0.00844     0.41535   
  1361. BD*(   1) C  20 - C  21          0.01720     0.48935   
  1362. BD*(   1) C  20 - C  60          0.00861     0.41691   
  1363. BD*(   1) C  21 - C  22          0.01028     0.58201   
  1364. BD*(   1) C  22 - H  23          0.00669     0.43858   
  1365. BD*(   1) C  24 - H  25          0.00638     0.43461   
  1366. BD*(   1) C  26 - H  27          0.00697     0.44313   
  1367. BD*(   1) C  28 - H  29          0.00660     0.43364   
  1368. BD*(   1) C  30 - H  31          0.00331     0.38668   
  1369. BD*(   1) C  30 - H  32          0.00527     0.37525   
  1370. BD*(   1) C  30 - H  33          0.00531     0.37511   
  1371. BD*(   1) C  34 - H  35          0.00454     0.38076   
  1372. BD*(   1) C  34 - H  36          0.00503     0.37890   
  1373. BD*(   1) C  34 - H  37          0.00322     0.38884   
  1374. BD*(   1) C  38 - H  39          0.00627     0.37741   
  1375. BD*(   1) C  38 - H  40          0.00498     0.38602   
  1376. BD*(   1) C  38 - H  41          0.00406     0.39488   
  1377. BD*(   1) C  42 - H  43          0.01023     0.42919   
  1378. BD*(   1) C  42 - C  44          0.00381     0.63682   
  1379. BD*(   2) C  42 - C  44          0.03203     0.06454   
  1380. BD*(   1) C  44 - H  45          0.00559     0.43915   
  1381. BD*(   1) C  44 - H  46          0.00431     0.44049   
  1382. BD*(   1) C  47 - H  48          0.00532     0.38360   
  1383. BD*(   1) C  47 - H  49          0.00455     0.39213   
  1384. BD*(   1) C  47 - H  50          0.00395     0.39743   
  1385. BD*(   1) C  51 - H  52          0.01075     0.42417   
  1386. BD*(   1) C  51 - C  53          0.00387     0.63261   
  1387. BD*(   2) C  51 - C  53          0.03706     0.06192   
  1388. BD*(   1) C  53 - H  54          0.00546     0.43740   
  1389. BD*(   1) C  53 - H  55          0.00423     0.43709   
  1390. BD*(   1) C  56 - H  57          0.00546     0.37981   
  1391. BD*(   1) C  56 - H  58          0.00508     0.37965   
  1392. BD*(   1) C  56 - H  59          0.00331     0.39014   
  1393. BD*(   1) C  60 - H  61          0.00489     0.38223   
  1394. BD*(   1) C  60 - H  62          0.00326     0.39209   
  1395. BD*(   1) C  60 - H  63          0.00469     0.38247   
  1398. BD*(   1) C  67 - H  68          0.00445     0.35642   
  1399. BD*(   1) C  67 - H  69          0.00366     0.35763   
  1400. BD*(   1) C  67 - H  70          0.00607     0.37218   
  1401. BD*(   1) C  67 - S  71          0.00502     0.12740   
  1402. BD*(   1) S  71 - H  72          0.00703     0.17460   
       -------------------------------
              Total Lewis  137.50661  ( 96.7617%)
        Valence non-Lewis    4.33198  (  3.0484%)
        Rydberg non-Lewis    0.26999  (  0.1900%)
       -------------------------------
            Total unit  1  142.10858  (100.0000%)
           Charge unit  1    1.89142
 
 Molecular unit  2  (H2O)
    82. BD (   1) O  64 - H  65          0.99391    -0.82720  143(r),142(r),1238(v),155(r)
                                                    1237(v),1318(r),160(r)
                                                    234(r),141(r),238(r),158(r)
                                                    1286(r),236(r),186(r)
                                                    1316(r)
    83. BD (   1) O  64 - H  66          0.99645    -0.89042  143(r),155(r),1233(v),140(r)
                                                    1318(r),1396(g),186(r)
                                                    184(r),182(r),141(r),160(r)
                                                    212(r),189(r)
   132. CR (   1) O  64                  0.99991   -18.97284  143(r),1238(v),1233(v)
                                                    1318(r),140(r),142(r),158(r)
                                                    1316(r),1317(r),1315(r)
   151. LP (   1) O  64                  0.98554    -0.34646  141(r),1236(v),1315(r)
                                                    1317(r),1232(v),264(r)
                                                    267(r),143(r),212(r)
   152. LP (   2) O  64                  0.90858    -0.50666  143(r),1237(v),1396(g)
                                                    1318(r),160(r),1397(g)
                                                    142(r),141(r),1231(v),140(r)
                                                    1233(v),262(r),182(r),210(r)
                                                    234(r),209(r),184(r),208(r)
                                                    260(r),158(r),157(r),236(r)
                                                    165(r),1325(r),1324(r)
                                                    183(r),1330(r),1328(r)
                                                    1322(r),1327(r),1316(r)
                                                    1321(r),1289(r),1288(r)
  1205. RY*(   1) O  64                  0.00056     0.94789   
  1206. RY*(   2) O  64                  0.00035     1.03030   
  1207. RY*(   3) O  64                  0.00026     1.12552   
  1208. RY*(   4) O  64                  0.00010     0.84152   
  1209. RY*(   5) O  64                  0.00002     5.49639   
  1210. RY*(   6) O  64                  0.00003     2.41265   
  1211. RY*(   7) O  64                  0.00002     2.32459   
  1212. RY*(   8) O  64                  0.00000     3.29143   
  1213. RY*(   9) O  64                  0.00001     3.04430   
  1214. RY*(  10) O  64                  0.00001     2.73885   
  1215. RY*(  11) O  64                  0.00000     6.37711   
  1216. RY*(  12) O  64                  0.00000    41.73007   
  1217. RY*(  13) O  64                  0.00000     6.52577   
  1218. RY*(  14) O  64                  0.00000     2.98790   
  1219. RY*(  15) O  64                  0.00000     6.46357   
  1220. RY*(  16) O  64                  0.00000     2.28120   
  1221. RY*(  17) O  64                  0.00000     6.17360   
  1222. RY*(  18) O  64                  0.00000     2.47356   
  1223. RY*(  19) O  64                  0.00000     6.32561   
  1224. RY*(  20) O  64                  0.00000     5.35204   
  1225. RY*(  21) O  64                  0.00000     5.47622   
  1226. RY*(  22) O  64                  0.00000     5.26001   
  1227. RY*(  23) O  64                  0.00000     5.34629   
  1228. RY*(  24) O  64                  0.00000     5.66622   
  1229. RY*(  25) O  64                  0.00000     5.37983   
  1230. RY*(  26) O  64                  0.00000     5.59821   
  1231. RY*(   1) H  65                  0.00045     1.07982   
  1232. RY*(   2) H  65                  0.00039     1.72143   
  1233. RY*(   3) H  65                  0.00025     2.23278   
  1234. RY*(   4) H  65                  0.00009     2.03118   
  1235. RY*(   5) H  65                  0.00001     2.88159   
  1236. RY*(   1) H  66                  0.00046     1.98299   
  1237. RY*(   2) H  66                  0.00040     1.24822   
  1238. RY*(   3) H  66                  0.00032     1.71588   
  1239. RY*(   4) H  66                  0.00014     2.05629   
  1240. RY*(   5) H  66                  0.00000     2.99819   
  1396. BD*(   1) O  64 - H  65          0.00175     0.41596   
  1397. BD*(   1) O  64 - H  66          0.00132     0.58499   
       -------------------------------
              Total Lewis    4.88439  ( 99.8581%)
        Valence non-Lewis    0.00308  (  0.0629%)
        Rydberg non-Lewis    0.00386  (  0.0789%)
       -------------------------------
            Total unit  2    4.89133  (100.0000%)
           Charge unit  2    0.10867
 Unable to Open any file for archive entry.
 1\1\GINC-BGN1032\SP\UAPFD\def2TZVP\C31H34Fe1N4O1S1(5)\BECSLEIP\14-Nov-
 2024\0\\# apfd/def2TZVP guess=read scf=maxcycle=999 geom=check pop=nbo
 \\6rqd_II_Q\\0,5\Fe,0,-6.2238644522,24.7826275523,271.2061810127\N,0,-
 4.5379234319,23.7048922699,270.9881304467\N,0,-5.8629697337,24.8715098
 233,273.1850242902\N,0,-8.018387587,25.6241162371,271.5258630547\N,0,-
 6.706124337,24.4931945845,269.3129538663\C,0,-3.9944917456,23.33853706
 36,269.7968420896\C,0,-2.6782219579,22.7738740655,269.9898557982\C,0,-
 2.4412695962,22.8044713445,271.3299082073\C,0,-3.613984353,23.39231708
 4,271.9349128379\C,0,-4.8242448621,24.3039709018,273.8612712416\C,0,-4
 .9258930747,24.5711676431,275.2733006685\C,0,-6.0422306917,25.34627333
 74,275.4394703019\C,0,-6.6203347372,25.5035375494,274.1191687658\C,0,-
 8.4018113497,26.3094132685,272.6375135019\C,0,-9.6116782758,27.0498456
 096,272.392116861\C,0,-9.9742091554,26.7725620384,271.0996279293\C,0,-
 8.9653809627,25.8686029993,270.5852016949\C,0,-7.927855678,24.64319518
 98,268.7366667872\C,0,-7.9224620986,24.1506176752,267.3772816613\C,0,-
 6.689051664,23.6195288397,267.1730781179\C,0,-5.9628331012,23.79192398
 78,268.4144460562\C,0,-4.6513347621,23.3882095142,268.5818575597\H,0,-
 4.1409220556,22.9789597892,267.7238358958\C,0,-3.7669326674,23.6152835
 494,273.2887055164\H,0,-2.982409257,23.2705356087,273.9441846232\C,0,-
 7.7641551082,26.2349494624,273.8633022853\H,0,-8.2043496326,26.7727280
 688,274.6887260915\C,0,-8.9779938529,25.3352566116,269.3077593778\H,0,
 -9.8537236729,25.5049260801,268.7006401849\C,0,-1.2477258641,22.341076
 6707,272.091680623\H,0,-0.4971889211,21.9291070445,271.4217967747\H,0,
 -1.5268619358,21.5691274407,272.8093326199\H,0,-0.7998625414,23.168152
 5426,272.6432506944\C,0,-1.8089898793,22.2749822912,268.8877580074\H,0
 ,-1.6484527712,23.0552157512,268.1439543627\H,0,-2.273918738,21.423983
 1583,268.3886603269\H,0,-0.8413426805,21.9596120308,269.2701587982\C,0
 ,-4.004319786,24.0373919666,276.3133870301\H,0,-3.0991120417,24.643503
 3535,276.3815715374\H,0,-3.7093113998,23.0156709922,276.0787700964\H,0
 ,-4.4950676722,24.0444205248,277.284421867\C,0,-6.609179867,25.8837696
 758,276.6569404364\H,0,-7.6909855996,25.9418232101,276.6843977919\C,0,
 -5.9132489878,26.3053704982,277.7074793302\H,0,-4.8371893998,26.313574
 3181,277.7163849319\H,0,-6.4003495474,26.6840795478,278.5905459002\C,0
 ,-10.3296763101,27.8811459977,273.3963192454\H,0,-9.8827373588,28.8739
 53849,273.4689568844\H,0,-10.28632949,27.4210367849,274.3820971456\H,0
 ,-11.3733658586,27.9939929031,273.1104954017\C,0,-11.120471796,27.2390
 331582,270.3516144724\H,0,-11.5331969228,26.5345865905,269.6387077439\
 C,0,-11.6779288646,28.4397938919,270.4661771262\H,0,-11.2799331887,29.
 1961394468,271.1197397482\H,0,-12.5397315784,28.7182580812,269.8827880
 383\C,0,-9.0882238322,24.229895347,266.453457967\H,0,-9.3523651536,25.
 2702755525,266.2626717639\H,0,-9.9567075165,23.7348339933,266.88808879
 12\H,0,-8.8618678459,23.75432875,265.5024289775\C,0,-6.1353940887,22.9
 585846022,265.9581157142\H,0,-5.2577853181,23.4946508405,265.596402066
 9\H,0,-6.8742482106,22.9360944046,265.1610353985\H,0,-5.8381337859,21.
 9334314208,266.1803969487\O,0,-7.16,22.791,271.614\H,0,-6.464,22.138,2
 71.54\H,0,-8.022,22.626,271.757\C,0,-3.5355031311,26.7869196647,271.49
 06216924\H,0,-3.1521447874,27.7963742967,271.6022062369\H,0,-2.9350864
 381,26.2350205292,270.7747397578\H,0,-3.5499767601,26.2614261161,272.4
 398040266\S,0,-5.2290874331,26.860148466,270.8053936481\H,0,-5.7456234
 932,27.5253134813,271.8465843346\\Version=ES64L-G16RevC.02\State=5-A\H
 F=-3157.1529919\S2=6.079475\S2-1=0.\S2A=6.001895\RMSD=3.716e-09\Dipole
 =0.7587265,-0.4843363,-0.2875784\Quadrupole=4.5545294,0.1960212,-4.750
 5506,1.2475697,3.2395959,3.0961697\PG=C01 [X(C31H34Fe1N4O1S1)]\\@
 The archive entry for this job was punched.


 Sacred cows make the best hamburger.
                               -- Mark Twain
 Job cpu time:       1 days 16 hours  5 minutes  6.1 seconds.
 Elapsed time:       0 days  0 hours 36 minutes 42.0 seconds.
 File lengths (MBytes):  RWF=   1815 Int=      0 D2E=      0 Chk=    164 Scr=      1
 Normal termination of Gaussian 16 at Thu Nov 14 23:59:23 2024.
