 Entering Gaussian System, Link 0=g16
 Input=6rqd16re.com
 Output=6rqd16re.log
 Initial command:
 /sw/chem/gaussian/g16_C02/a100/g16/l1.exe "/local/becsleip_8082008/Gau-1701993.inp" -scrdir="/local/becsleip_8082008/"
 Entering Link 1 = /sw/chem/gaussian/g16_C02/a100/g16/l1.exe PID=   1701994.
  
 Copyright (c) 1988-2021, Gaussian, Inc.  All Rights Reserved.
  
 This is part of the Gaussian(R) 16 program.  It is based on
 the Gaussian(R) 09 system (copyright 2009, Gaussian, Inc.),
 the Gaussian(R) 03 system (copyright 2003, Gaussian, Inc.),
 the Gaussian(R) 98 system (copyright 1998, Gaussian, Inc.),
 the Gaussian(R) 94 system (copyright 1995, Gaussian, Inc.),
 the Gaussian 92(TM) system (copyright 1992, Gaussian, Inc.),
 the Gaussian 90(TM) system (copyright 1990, Gaussian, Inc.),
 the Gaussian 88(TM) system (copyright 1988, Gaussian, Inc.),
 the Gaussian 86(TM) system (copyright 1986, Carnegie Mellon
 University), and the Gaussian 82(TM) system (copyright 1983,
 Carnegie Mellon University). Gaussian is a federally registered
 trademark of Gaussian, Inc.
  
 This software contains proprietary and confidential information,
 including trade secrets, belonging to Gaussian, Inc.
  
 This software is provided under written license and may be
 used, copied, transmitted, or stored only in accord with that
 written license.
  
 The following legend is applicable only to US Government
 contracts under FAR:
  
                    RESTRICTED RIGHTS LEGEND
  
 Use, reproduction and disclosure by the US Government is
 subject to restrictions as set forth in subparagraphs (a)
 and (c) of the Commercial Computer Software - Restricted
 Rights clause in FAR 52.227-19.
  
 Gaussian, Inc.
 340 Quinnipiac St., Bldg. 40, Wallingford CT 06492
  
  
 ---------------------------------------------------------------
 Warning -- This program may not be used in any manner that
 competes with the business of Gaussian, Inc. or will provide
 assistance to any competitor of Gaussian, Inc.  The licensee
 of this program is prohibited from giving any competitor of
 Gaussian, Inc. access to this program.  By using this program,
 the user acknowledges that Gaussian, Inc. is engaged in the
 business of creating and licensing software in the field of
 computational chemistry and represents and warrants to the
 licensee that it is not a competitor of Gaussian, Inc. and that
 it will not use this program in any manner prohibited above.
 ---------------------------------------------------------------
  

 Cite this work as:
 Gaussian 16, Revision C.02,
 M. J. Frisch, G. W. Trucks, H. B. Schlegel, G. E. Scuseria, 
 M. A. Robb, J. R. Cheeseman, G. Scalmani, V. Barone, 
 G. A. Petersson, H. Nakatsuji, X. Li, M. Caricato, A. V. Marenich, 
 J. Bloino, B. G. Janesko, R. Gomperts, B. Mennucci, H. P. Hratchian, 
 J. V. Ortiz, A. F. Izmaylov, J. L. Sonnenberg, D. Williams-Young, 
 F. Ding, F. Lipparini, F. Egidi, J. Goings, B. Peng, A. Petrone, 
 T. Henderson, D. Ranasinghe, V. G. Zakrzewski, J. Gao, N. Rega, 
 G. Zheng, W. Liang, M. Hada, M. Ehara, K. Toyota, R. Fukuda, 
 J. Hasegawa, M. Ishida, T. Nakajima, Y. Honda, O. Kitao, H. Nakai, 
 T. Vreven, K. Throssell, J. A. Montgomery, Jr., J. E. Peralta, 
 F. Ogliaro, M. J. Bearpark, J. J. Heyd, E. N. Brothers, K. N. Kudin, 
 V. N. Staroverov, T. A. Keith, R. Kobayashi, J. Normand, 
 K. Raghavachari, A. P. Rendell, J. C. Burant, S. S. Iyengar, 
 J. Tomasi, M. Cossi, J. M. Millam, M. Klene, C. Adamo, R. Cammi, 
 J. W. Ochterski, R. L. Martin, K. Morokuma, O. Farkas, 
 J. B. Foresman, and D. J. Fox, Gaussian, Inc., Wallingford CT, 2019.
 
 ******************************************
 Gaussian 16:  ES64L-G16RevC.02  7-Dec-2021
                15-Nov-2024 
 ******************************************
 %mem=16GB
 %CPU=0-71
 SetSPE:  set environment variable "OMP_PROC_BIND" = "true"
 SetSPE:  set environment variable "OMP_PLACES" = "{0},{1},{2},{3},{4},{5},{6},{7},{8},{9},{10},{11},{12},{13},{14},{15},{16},{17},{18},{19},{20},{21},{22},{23},{24},{25},{26},{27},{28},{29},{30},{31},{32},{33},{34},{35},{36},{37},{38},{39},{40},{41},{42},{43},{44},{45},{46},{47},{48},{49},{50},{51},{52},{53},{54},{55},{56},{57},{58},{59},{60},{61},{62},{63},{64},{65},{66},{67},{68},{69},{70},{71}"
 Will use up to   72 processors via shared memory.
 %gpucpu=0,1,2,3=0,1,2,3
 Will use    4 GPUs:
 Thread  CPU   GPU
      0    0     0
      1    1     1
      2    2     2
      3    3     3
      4    4    -1
      5    5    -1
      6    6    -1
      7    7    -1
      8    8    -1
      9    9    -1
     10   10    -1
     11   11    -1
     12   12    -1
     13   13    -1
     14   14    -1
     15   15    -1
     16   16    -1
     17   17    -1
     18   18    -1
     19   19    -1
     20   20    -1
     21   21    -1
     22   22    -1
     23   23    -1
     24   24    -1
     25   25    -1
     26   26    -1
     27   27    -1
     28   28    -1
     29   29    -1
     30   30    -1
     31   31    -1
     32   32    -1
     33   33    -1
     34   34    -1
     35   35    -1
     36   36    -1
     37   37    -1
     38   38    -1
     39   39    -1
     40   40    -1
     41   41    -1
     42   42    -1
     43   43    -1
     44   44    -1
     45   45    -1
     46   46    -1
     47   47    -1
     48   48    -1
     49   49    -1
     50   50    -1
     51   51    -1
     52   52    -1
     53   53    -1
     54   54    -1
     55   55    -1
     56   56    -1
     57   57    -1
     58   58    -1
     59   59    -1
     60   60    -1
     61   61    -1
     62   62    -1
     63   63    -1
     64   64    -1
     65   65    -1
     66   66    -1
     67   67    -1
     68   68    -1
     69   69    -1
     70   70    -1
     71   71    -1
 SetGPE:  set environment variable "OMP_PROC_BIND" = "true"
 SetGPE:  set environment variable "OMP_PLACES" = "{0},{1},{2},{3},{4},{5},{6},{7},{8},{9},{10},{11},{12},{13},{14},{15},{16},{17},{18},{19},{20},{21},{22},{23},{24},{25},{26},{27},{28},{29},{30},{31},{32},{33},{34},{35},{36},{37},{38},{39},{40},{41},{42},{43},{44},{45},{46},{47},{48},{49},{50},{51},{52},{53},{54},{55},{56},{57},{58},{59},{60},{61},{62},{63},{64},{65},{66},{67},{68},{69},{70},{71}"
 %oldchk=6rqd_III_D.chk
 %chk=6rqd_III_Dre.chk
 Properties for Device   0
 Minimum vector length:                              32
 Maximum vector length:                            1024
 Number of SMPs:                                    108
 Maximum number of threads per SMP:                2048
 Number of ASync Engines:                             5
 Memory:                                           9207742464
 Properties for Device   1
 Minimum vector length:                              32
 Maximum vector length:                            1024
 Number of SMPs:                                    108
 Maximum number of threads per SMP:                2048
 Number of ASync Engines:                             5
 Memory:                                           9207742464
 Properties for Device   2
 Minimum vector length:                              32
 Maximum vector length:                            1024
 Number of SMPs:                                    108
 Maximum number of threads per SMP:                2048
 Number of ASync Engines:                             5
 Memory:                                           9207742464
 Properties for Device   3
 Minimum vector length:                              32
 Maximum vector length:                            1024
 Number of SMPs:                                    108
 Maximum number of threads per SMP:                2048
 Number of ASync Engines:                             5
 Memory:                                           9207742464
   8286968217 words of memory will be used on each GPU.
 Copying data from "6rqd_III_D.chk" to current chk file "6rqd_III_Dre.chk"
 IOpt=  2 FromEx=T IUOpen= 4 IOptOp= 5 NList=   0 IFRang= 0 IUIn= 4 IUOut= 2.
 --------------------------------------
 # apfd/gen scf=maxcycle=999 geom=check
 --------------------------------------
 1/29=2,38=1,172=1/1;
 2/12=2,40=1/2;
 3/5=7,11=2,14=-4,25=1,30=1,74=-44/1,2,3;
 4//1;
 5/5=2,7=999,38=5/2;
 6/7=2,8=2,9=2,10=2,28=1/1;
 99/5=1,9=1/99;
 ----------
 6rqd_III_H
 ----------
 Structure from the checkpoint file:  "6rqd_III_Dre.chk"
 Charge =  1 Multiplicity = 6
 Z-Matrix found in chk file.
 Fe,0,-6.2238644522,24.7826275523,271.2061810127
 N,0,-4.5379234319,23.7048922699,270.9881304467
 N,0,-5.8629697337,24.8715098233,273.1850242902
 N,0,-8.018387587,25.6241162371,271.5258630547
 N,0,-6.706124337,24.4931945845,269.3129538663
 C,0,-3.9944917456,23.3385370636,269.7968420896
 C,0,-2.6782219579,22.7738740655,269.9898557982
 C,0,-2.4412695962,22.8044713445,271.3299082073
 C,0,-3.613984353,23.392317084,271.9349128379
 C,0,-4.8242448621,24.3039709018,273.8612712416
 C,0,-4.9258930747,24.5711676431,275.2733006685
 C,0,-6.0422306917,25.3462733374,275.4394703019
 C,0,-6.6203347372,25.5035375494,274.1191687658
 C,0,-8.4018113497,26.3094132685,272.6375135019
 C,0,-9.6116782758,27.0498456096,272.392116861
 C,0,-9.9742091554,26.7725620384,271.0996279293
 C,0,-8.9653809627,25.8686029993,270.5852016949
 C,0,-7.927855678,24.6431951898,268.7366667872
 C,0,-7.9224620986,24.1506176752,267.3772816613
 C,0,-6.689051664,23.6195288397,267.1730781179
 C,0,-5.9628331012,23.7919239878,268.4144460562
 C,0,-4.6513347621,23.3882095142,268.5818575597
 H,0,-4.1409220556,22.9789597892,267.7238358958
 C,0,-3.7669326674,23.6152835494,273.2887055164
 H,0,-2.982409257,23.2705356087,273.9441846232
 C,0,-7.7641551082,26.2349494624,273.8633022853
 H,0,-8.2043496326,26.7727280688,274.6887260915
 C,0,-8.9779938529,25.3352566116,269.3077593778
 H,0,-9.8537236729,25.5049260801,268.7006401849
 C,0,-1.2477258641,22.3410766707,272.091680623
 H,0,-0.4971889211,21.9291070445,271.4217967747
 H,0,-1.5268619358,21.5691274407,272.8093326199
 H,0,-0.7998625414,23.1681525426,272.6432506944
 C,0,-1.8089898793,22.2749822912,268.8877580074
 H,0,-1.6484527712,23.0552157512,268.1439543627
 H,0,-2.273918738,21.4239831583,268.3886603269
 H,0,-0.8413426805,21.9596120308,269.2701587982
 C,0,-4.004319786,24.0373919666,276.3133870301
 H,0,-3.0991120417,24.6435033535,276.3815715374
 H,0,-3.7093113998,23.0156709922,276.0787700964
 H,0,-4.4950676722,24.0444205248,277.284421867
 C,0,-6.609179867,25.8837696758,276.6569404364
 H,0,-7.6909855996,25.9418232101,276.6843977919
 C,0,-5.9132489878,26.3053704982,277.7074793302
 H,0,-4.8371893998,26.3135743181,277.7163849319
 H,0,-6.4003495474,26.6840795478,278.5905459002
 C,0,-10.3296763101,27.8811459977,273.3963192454
 H,0,-9.8827373588,28.873953849,273.4689568844
 H,0,-10.28632949,27.4210367849,274.3820971456
 H,0,-11.3733658586,27.9939929031,273.1104954017
 C,0,-11.120471796,27.2390331582,270.3516144724
 H,0,-11.5331969228,26.5345865905,269.6387077439
 C,0,-11.6779288646,28.4397938919,270.4661771262
 H,0,-11.2799331887,29.1961394468,271.1197397482
 H,0,-12.5397315784,28.7182580812,269.8827880383
 C,0,-9.0882238322,24.229895347,266.453457967
 H,0,-9.3523651536,25.2702755525,266.2626717639
 H,0,-9.9567075165,23.7348339933,266.8880887912
 H,0,-8.8618678459,23.75432875,265.5024289775
 C,0,-6.1353940887,22.9585846022,265.9581157142
 H,0,-5.2577853181,23.4946508405,265.5964020669
 H,0,-6.8742482106,22.9360944046,265.1610353985
 H,0,-5.8381337859,21.9334314208,266.1803969487
 O,0,-7.16,22.791,271.614
 H,0,-6.464,22.138,271.54
 H,0,-8.022,22.626,271.757
 C,0,-3.5355031311,26.7869196647,271.4906216924
 H,0,-3.1521447874,27.7963742967,271.6022062369
 H,0,-2.9350864381,26.2350205292,270.7747397578
 H,0,-3.5499767601,26.2614261161,272.4398040266
 S,0,-5.2290874331,26.860148466,270.8053936481
 H,0,-5.7456234932,27.5253134813,271.8465843346
 Recover connectivity data from disk.
 Stoichiometry    C31H34FeN4OS(1+,6)
 Framework group  C1[X(C31H34FeN4OS)]
 Deg. of freedom   210
 Full point group                 C1      NOp   1
 Largest Abelian subgroup         C1      NOp   1
 Largest concise Abelian subgroup C1      NOp   1
                         Standard orientation:                         
 ---------------------------------------------------------------------
 Center     Atomic      Atomic             Coordinates (Angstroms)
 Number     Number       Type             X           Y           Z
 ---------------------------------------------------------------------
      1         26           0        0.012789   -0.204401   -0.038196
      2          7           0       -1.579700   -1.431462   -0.136968
      3          7           0       -1.232428    1.362930   -0.254698
      4          7           0        1.571908    1.047937   -0.215429
      5          7           0        1.253785   -1.740507   -0.069257
      6          6           0       -1.544660   -2.774098    0.074700
      7          6           0       -2.883638   -3.312640    0.150704
      8          6           0       -3.729792   -2.260937   -0.024702
      9          6           0       -2.895200   -1.094894   -0.199783
     10          6           0       -2.585003    1.326197   -0.420679
     11          6           0       -3.119149    2.656335   -0.565503
     12          6           0       -2.056824    3.512659   -0.452430
     13          6           0       -0.885540    2.676263   -0.277301
     14          6           0        1.542532    2.399936   -0.061654
     15          6           0        2.873984    2.930078    0.074081
     16          6           0        3.724176    1.860019   -0.030751
     17          6           0        2.882529    0.696328   -0.223006
     18          6           0        2.579506   -1.728990   -0.368533
     19          6           0        3.097745   -3.074733   -0.473382
     20          6           0        2.032792   -3.902819   -0.314622
     21          6           0        0.879763   -3.047807   -0.120748
     22          6           0       -0.393891   -3.539167    0.096993
     23          1           0       -0.509679   -4.608745    0.179482
     24          6           0       -3.372169    0.186192   -0.392608
     25          1           0       -4.439844    0.314604   -0.479571
     26          6           0        0.394541    3.170529   -0.116523
     27          1           0        0.508187    4.241429   -0.048991
     28          6           0        3.362578   -0.591352   -0.390073
     29          1           0        4.427595   -0.719821   -0.506341
     30          6           0       -5.219216   -2.237433   -0.050065
     31          1           0       -5.624464   -3.235412    0.096842
     32          1           0       -5.580483   -1.858546   -1.006504
     33          1           0       -5.606071   -1.589638    0.737063
     34          6           0       -3.198300   -4.750868    0.377783
     35          1           0       -2.724967   -5.106288    1.292886
     36          1           0       -2.830728   -5.358616   -0.449857
     37          1           0       -4.271292   -4.903779    0.463440
     38          6           0       -4.545884    2.979908   -0.840683
     39          1           0       -5.133401    2.969091    0.079169
     40          1           0       -4.979944    2.254053   -1.526770
     41          1           0       -4.623886    3.969919   -1.285188
     42          6           0       -2.033774    4.956731   -0.534236
     43          1           0       -1.148348    5.386373   -0.987951
     44          6           0       -2.992270    5.766222   -0.096391
     45          1           0       -3.870906    5.396636    0.403065
     46          1           0       -2.917111    6.835837   -0.200157
     47          6           0        3.214565    4.371077    0.224190
     48          1           0        3.115424    4.686863    1.263973
     49          1           0        2.552538    4.990300   -0.378819
     50          1           0        4.240393    4.547553   -0.092433
     51          6           0        5.169209    1.832607    0.015788
     52          1           0        5.644349    1.088219   -0.612664
     53          6           0        5.930705    2.625137    0.762600
     54          1           0        5.512628    3.346599    1.442533
     55          1           0        7.005620    2.556878    0.740514
     56          6           0        4.528212   -3.403603   -0.727041
     57          1           0        5.153050   -3.037323    0.087807
     58          1           0        4.870931   -2.938300   -1.651320
     59          1           0        4.669732   -4.478257   -0.810393
     60          6           0        1.981916   -5.391438   -0.345349
     61          1           0        1.608149   -5.781818    0.601383
     62          1           0        2.971068   -5.807387   -0.519456
     63          1           0        1.319142   -5.736707   -1.139221
     64          8           0       -0.029709   -0.360128   -2.270502
     65          1           0       -0.758114   -0.939821   -2.493399
     66          1           0        0.551913   -0.004172   -2.841228
     67          6           0       -1.710676   -0.082931    2.849761
     68          1           0       -1.772220    0.294891    3.865574
     69          1           0       -2.013288   -1.124574    2.818365
     70          1           0       -2.327322    0.498878    2.172601
     71         16           0        0.030067   -0.027791    2.293073
     72          1           0        0.137871    1.303865    2.384745
 ---------------------------------------------------------------------
 Rotational constants (GHZ):           0.1090149           0.1070807           0.0600123
 General basis read from cards:  (5D, 7F)
 Warning:  center  64 has no basis functions!
 There are   648 symmetry adapted cartesian basis functions of A   symmetry.
 There are   609 symmetry adapted basis functions of A   symmetry.
   609 basis functions,  1254 primitive gaussians,   648 cartesian basis functions
   151 alpha electrons      146 beta electrons
       nuclear repulsion energy      5416.7636284073 Hartrees.



 Warning!  O  atom   64 has  8 valence electrons but only   0 basis functions.
 This is less than a minimal basis set!



 NAtoms=   72 NActive=   72 NUniq=   72 SFac= 1.00D+00 NAtFMM=   60 NAOKFM=T Big=T
 Integral buffers will be    131072 words long.
 Raffenetti 2 integral format.
 Two-electron integral symmetry is turned on.
 R6APFD:  NTU= -4 IXU= 1 FactS= 1.050
 Nuclear repulsion after empirical dispersion term =     5416.6112857059 Hartrees.
 One-electron integrals computed using PRISM.
 NBasis=   609 RedAO= T EigKep=  2.62D-04  NBF=   609
 NBsUse=   609 1.00D-06 EigRej= -1.00D+00 NBFU=   609
 ExpMin= 4.20D-02 ExpMax= 3.01D+05 ExpMxC= 3.30D+03 IAcc=3 IRadAn=         5 AccDes= 0.00D+00
 Harris functional with IExCor= 3731 and IRadAn=       5 diagonalized for initial guess.
 HarFok:  IExCor= 3731 AccDes= 0.00D+00 IRadAn=         5 IDoV= 1 UseB2=F ITyADJ=14
 ICtDFT=  3500011 ScaDFX=  1.000000  1.000000  1.000000  1.000000
 FoFCou: FMM=F IPFlag=           0 FMFlag=      100000 FMFlg1=        2001
         NFxFlg=           0 DoJE=T BraDBF=F KetDBF=T FulRan=T
         wScrn=  0.000000 ICntrl=       500 IOpCl=  0 I1Cent=   200000004 NGrid=           0
         NMat0=    1 NMatS0=      1 NMatT0=    0 NMatD0=    1 NMtDS0=    0 NMtDT0=    0
 Petite list used in FoFCou.
 Initial guess <Sx>= 0.0000 <Sy>= 0.0000 <Sz>= 2.5000 <S**2>= 8.7500 S= 2.5000
 Requested convergence on RMS density matrix=1.00D-08 within 999 cycles.
 Requested convergence on MAX density matrix=1.00D-06.
 Requested convergence on             energy=1.00D-06.
 No special actions if energy rises.
 EnCoef did   100 forward-backward iterations
 EnCoef did   100 forward-backward iterations
 EnCoef did     4 forward-backward iterations
 EnCoef did     6 forward-backward iterations
 EnCoef did     4 forward-backward iterations
 Restarting incremental Fock formation.
 Restarting incremental Fock formation.
 SCF Done:  E(UAPFD) =  -3095.16564610     A.U. after   55 cycles
            NFock= 55  Conv=0.57D-08     -V/T= 2.0051
 <Sx>= 0.0000 <Sy>= 0.0000 <Sz>= 2.5000 <S**2>= 8.8326 S= 2.5137
 <L.S>=  0.00000000000    
 Annihilation of the first spin contaminant:
 S**2 before annihilation     8.8326,   after     8.7518

 **********************************************************************

            Population analysis using the SCF Density.

 **********************************************************************

 Orbital symmetries:
 Alpha Orbitals:
       Occupied  (A) (A) (A) (A) (A) (A) (A) (A) (A) (A) (A) (A)
                 (A) (A) (A) (A) (A) (A) (A) (A) (A) (A) (A) (A)
                 (A) (A) (A) (A) (A) (A) (A) (A) (A) (A) (A) (A)
                 (A) (A) (A) (A) (A) (A) (A) (A) (A) (A) (A) (A)
                 (A) (A) (A) (A) (A) (A) (A) (A) (A) (A) (A) (A)
                 (A) (A) (A) (A) (A) (A) (A) (A) (A) (A) (A) (A)
                 (A) (A) (A) (A) (A) (A) (A) (A) (A) (A) (A) (A)
                 (A) (A) (A) (A) (A) (A) (A) (A) (A) (A) (A) (A)
                 (A) (A) (A) (A) (A) (A) (A) (A) (A) (A) (A) (A)
                 (A) (A) (A) (A) (A) (A) (A) (A) (A) (A) (A) (A)
                 (A) (A) (A) (A) (A) (A) (A) (A) (A) (A) (A) (A)
                 (A) (A) (A) (A) (A) (A) (A) (A) (A) (A) (A) (A)
                 (A) (A) (A) (A) (A) (A) (A)
       Virtual   (A) (A) (A) (A) (A) (A) (A) (A) (A) (A) (A) (A)
                 (A) (A) (A) (A) (A) (A) (A) (A) (A) (A) (A) (A)
                 (A) (A) (A) (A) (A) (A) (A) (A) (A) (A) (A) (A)
                 (A) (A) (A) (A) (A) (A) (A) (A) (A) (A) (A) (A)
                 (A) (A) (A) (A) (A) (A) (A) (A) (A) (A) (A) (A)
                 (A) (A) (A) (A) (A) (A) (A) (A) (A) (A) (A) (A)
                 (A) (A) (A) (A) (A) (A) (A) (A) (A) (A) (A) (A)
                 (A) (A) (A) (A) (A) (A) (A) (A) (A) (A) (A) (A)
                 (A) (A) (A) (A) (A) (A) (A) (A) (A) (A) (A) (A)
                 (A) (A) (A) (A) (A) (A) (A) (A) (A) (A) (A) (A)
                 (A) (A) (A) (A) (A) (A) (A) (A) (A) (A) (A) (A)
                 (A) (A) (A) (A) (A) (A) (A) (A) (A) (A) (A) (A)
                 (A) (A) (A) (A) (A) (A) (A) (A) (A) (A) (A) (A)
                 (A) (A) (A) (A) (A) (A) (A) (A) (A) (A) (A) (A)
                 (A) (A) (A) (A) (A) (A) (A) (A) (A) (A) (A) (A)
                 (A) (A) (A) (A) (A) (A) (A) (A) (A) (A) (A) (A)
                 (A) (A) (A) (A) (A) (A) (A) (A) (A) (A) (A) (A)
                 (A) (A) (A) (A) (A) (A) (A) (A) (A) (A) (A) (A)
                 (A) (A) (A) (A) (A) (A) (A) (A) (A) (A) (A) (A)
                 (A) (A) (A) (A) (A) (A) (A) (A) (A) (A) (A) (A)
                 (A) (A) (A) (A) (A) (A) (A) (A) (A) (A) (A) (A)
                 (A) (A) (A) (A) (A) (A) (A) (A) (A) (A) (A) (A)
                 (A) (A) (A) (A) (A) (A) (A) (A) (A) (A) (A) (A)
                 (A) (A) (A) (A) (A) (A) (A) (A) (A) (A) (A) (A)
                 (A) (A) (A) (A) (A) (A) (A) (A) (A) (A) (A) (A)
                 (A) (A) (A) (A) (A) (A) (A) (A) (A) (A) (A) (A)
                 (A) (A) (A) (A) (A) (A) (A) (A) (A) (A) (A) (A)
                 (A) (A) (A) (A) (A) (A) (A) (A) (A) (A) (A) (A)
                 (A) (A) (A) (A) (A) (A) (A) (A) (A) (A) (A) (A)
                 (A) (A) (A) (A) (A) (A) (A) (A) (A) (A) (A) (A)
                 (A) (A) (A) (A) (A) (A) (A) (A) (A) (A) (A) (A)
                 (A) (A) (A) (A) (A) (A) (A) (A) (A) (A) (A) (A)
                 (A) (A) (A) (A) (A) (A) (A) (A) (A) (A) (A) (A)
                 (A) (A) (A) (A) (A) (A) (A) (A) (A) (A) (A) (A)
                 (A) (A) (A) (A) (A) (A) (A) (A) (A) (A) (A) (A)
                 (A) (A) (A) (A) (A) (A) (A) (A) (A) (A) (A) (A)
                 (A) (A) (A) (A) (A) (A) (A) (A) (A) (A) (A) (A)
                 (A) (A) (A) (A) (A) (A) (A) (A) (A) (A) (A) (A)
                 (A) (A)
 Beta  Orbitals:
       Occupied  (A) (A) (A) (A) (A) (A) (A) (A) (A) (A) (A) (A)
                 (A) (A) (A) (A) (A) (A) (A) (A) (A) (A) (A) (A)
                 (A) (A) (A) (A) (A) (A) (A) (A) (A) (A) (A) (A)
                 (A) (A) (A) (A) (A) (A) (A) (A) (A) (A) (A) (A)
                 (A) (A) (A) (A) (A) (A) (A) (A) (A) (A) (A) (A)
                 (A) (A) (A) (A) (A) (A) (A) (A) (A) (A) (A) (A)
                 (A) (A) (A) (A) (A) (A) (A) (A) (A) (A) (A) (A)
                 (A) (A) (A) (A) (A) (A) (A) (A) (A) (A) (A) (A)
                 (A) (A) (A) (A) (A) (A) (A) (A) (A) (A) (A) (A)
                 (A) (A) (A) (A) (A) (A) (A) (A) (A) (A) (A) (A)
                 (A) (A) (A) (A) (A) (A) (A) (A) (A) (A) (A) (A)
                 (A) (A) (A) (A) (A) (A) (A) (A) (A) (A) (A) (A)
                 (A) (A)
       Virtual   (A) (A) (A) (A) (A) (A) (A) (A) (A) (A) (A) (A)
                 (A) (A) (A) (A) (A) (A) (A) (A) (A) (A) (A) (A)
                 (A) (A) (A) (A) (A) (A) (A) (A) (A) (A) (A) (A)
                 (A) (A) (A) (A) (A) (A) (A) (A) (A) (A) (A) (A)
                 (A) (A) (A) (A) (A) (A) (A) (A) (A) (A) (A) (A)
                 (A) (A) (A) (A) (A) (A) (A) (A) (A) (A) (A) (A)
                 (A) (A) (A) (A) (A) (A) (A) (A) (A) (A) (A) (A)
                 (A) (A) (A) (A) (A) (A) (A) (A) (A) (A) (A) (A)
                 (A) (A) (A) (A) (A) (A) (A) (A) (A) (A) (A) (A)
                 (A) (A) (A) (A) (A) (A) (A) (A) (A) (A) (A) (A)
                 (A) (A) (A) (A) (A) (A) (A) (A) (A) (A) (A) (A)
                 (A) (A) (A) (A) (A) (A) (A) (A) (A) (A) (A) (A)
                 (A) (A) (A) (A) (A) (A) (A) (A) (A) (A) (A) (A)
                 (A) (A) (A) (A) (A) (A) (A) (A) (A) (A) (A) (A)
                 (A) (A) (A) (A) (A) (A) (A) (A) (A) (A) (A) (A)
                 (A) (A) (A) (A) (A) (A) (A) (A) (A) (A) (A) (A)
                 (A) (A) (A) (A) (A) (A) (A) (A) (A) (A) (A) (A)
                 (A) (A) (A) (A) (A) (A) (A) (A) (A) (A) (A) (A)
                 (A) (A) (A) (A) (A) (A) (A) (A) (A) (A) (A) (A)
                 (A) (A) (A) (A) (A) (A) (A) (A) (A) (A) (A) (A)
                 (A) (A) (A) (A) (A) (A) (A) (A) (A) (A) (A) (A)
                 (A) (A) (A) (A) (A) (A) (A) (A) (A) (A) (A) (A)
                 (A) (A) (A) (A) (A) (A) (A) (A) (A) (A) (A) (A)
                 (A) (A) (A) (A) (A) (A) (A) (A) (A) (A) (A) (A)
                 (A) (A) (A) (A) (A) (A) (A) (A) (A) (A) (A) (A)
                 (A) (A) (A) (A) (A) (A) (A) (A) (A) (A) (A) (A)
                 (A) (A) (A) (A) (A) (A) (A) (A) (A) (A) (A) (A)
                 (A) (A) (A) (A) (A) (A) (A) (A) (A) (A) (A) (A)
                 (A) (A) (A) (A) (A) (A) (A) (A) (A) (A) (A) (A)
                 (A) (A) (A) (A) (A) (A) (A) (A) (A) (A) (A) (A)
                 (A) (A) (A) (A) (A) (A) (A) (A) (A) (A) (A) (A)
                 (A) (A) (A) (A) (A) (A) (A) (A) (A) (A) (A) (A)
                 (A) (A) (A) (A) (A) (A) (A) (A) (A) (A) (A) (A)
                 (A) (A) (A) (A) (A) (A) (A) (A) (A) (A) (A) (A)
                 (A) (A) (A) (A) (A) (A) (A) (A) (A) (A) (A) (A)
                 (A) (A) (A) (A) (A) (A) (A) (A) (A) (A) (A) (A)
                 (A) (A) (A) (A) (A) (A) (A) (A) (A) (A) (A) (A)
                 (A) (A) (A) (A) (A) (A) (A) (A) (A) (A) (A) (A)
                 (A) (A) (A) (A) (A) (A) (A)
 The electronic state is 6-A.
 Alpha  occ. eigenvalues -- -256.29349 -89.02067 -30.18597 -26.03184 -26.01132
 Alpha  occ. eigenvalues --  -26.00960 -14.45865 -14.45836 -14.45798 -14.45786
 Alpha  occ. eigenvalues --  -10.31992 -10.31694 -10.31683 -10.31659 -10.31537
 Alpha  occ. eigenvalues --  -10.31503 -10.31416 -10.31106 -10.29284 -10.29224
 Alpha  occ. eigenvalues --  -10.29216 -10.28935 -10.28860 -10.28651 -10.28616
 Alpha  occ. eigenvalues --  -10.28582 -10.28414 -10.28236 -10.28168 -10.27943
 Alpha  occ. eigenvalues --  -10.27907 -10.27795 -10.27497 -10.27413 -10.27370
 Alpha  occ. eigenvalues --  -10.27297 -10.27241 -10.27128 -10.26843 -10.26644
 Alpha  occ. eigenvalues --  -10.26523  -8.05409  -6.00007  -5.99703  -5.99128
 Alpha  occ. eigenvalues --   -3.64384  -2.43872  -2.40667  -2.39480  -2.33552
 Alpha  occ. eigenvalues --   -1.52810  -1.08497  -1.07158  -1.07048  -1.06046
 Alpha  occ. eigenvalues --   -0.98793  -0.92186  -0.90718  -0.90601  -0.90336
 Alpha  occ. eigenvalues --   -0.89885  -0.89475  -0.89178  -0.87498  -0.85394
 Alpha  occ. eigenvalues --   -0.84178  -0.83696  -0.83130  -0.81962  -0.79921
 Alpha  occ. eigenvalues --   -0.78981  -0.77620  -0.77284  -0.77139  -0.73776
 Alpha  occ. eigenvalues --   -0.73578  -0.73502  -0.69394  -0.68783  -0.67098
 Alpha  occ. eigenvalues --   -0.67004  -0.63951  -0.63378  -0.62298  -0.62145
 Alpha  occ. eigenvalues --   -0.60755  -0.60545  -0.60207  -0.58667  -0.57121
 Alpha  occ. eigenvalues --   -0.57084  -0.55493  -0.55253  -0.54832  -0.54596
 Alpha  occ. eigenvalues --   -0.53482  -0.53251  -0.52812  -0.52660  -0.52228
 Alpha  occ. eigenvalues --   -0.52019  -0.51825  -0.51034  -0.50929  -0.50610
 Alpha  occ. eigenvalues --   -0.50262  -0.49951  -0.49939  -0.49797  -0.49656
 Alpha  occ. eigenvalues --   -0.49415  -0.49180  -0.48988  -0.48555  -0.48414
 Alpha  occ. eigenvalues --   -0.48141  -0.47752  -0.47485  -0.47378  -0.47023
 Alpha  occ. eigenvalues --   -0.46608  -0.46467  -0.46038  -0.45466  -0.45182
 Alpha  occ. eigenvalues --   -0.44826  -0.44380  -0.44032  -0.43381  -0.42443
 Alpha  occ. eigenvalues --   -0.42260  -0.42106  -0.41912  -0.41404  -0.40613
 Alpha  occ. eigenvalues --   -0.40332  -0.38462  -0.38252  -0.37827  -0.36613
 Alpha  occ. eigenvalues --   -0.36332  -0.34218  -0.32469  -0.31966  -0.30990
 Alpha  occ. eigenvalues --   -0.30944  -0.28753  -0.28285  -0.27329  -0.22106
 Alpha  occ. eigenvalues --   -0.20267
 Alpha virt. eigenvalues --   -0.16096  -0.11025  -0.08760  -0.06962  -0.06392
 Alpha virt. eigenvalues --   -0.05408  -0.04308  -0.03410  -0.01188   0.00063
 Alpha virt. eigenvalues --    0.01380   0.01807   0.02276   0.02567   0.03471
 Alpha virt. eigenvalues --    0.03895   0.03985   0.04587   0.04630   0.05108
 Alpha virt. eigenvalues --    0.05388   0.05981   0.06552   0.07097   0.07272
 Alpha virt. eigenvalues --    0.07644   0.07855   0.08217   0.08663   0.09057
 Alpha virt. eigenvalues --    0.09200   0.09530   0.09774   0.09940   0.10426
 Alpha virt. eigenvalues --    0.10624   0.10784   0.11121   0.11354   0.11687
 Alpha virt. eigenvalues --    0.12023   0.12619   0.13203   0.13337   0.13524
 Alpha virt. eigenvalues --    0.14231   0.14490   0.14947   0.15795   0.16333
 Alpha virt. eigenvalues --    0.16511   0.17011   0.17252   0.17597   0.17867
 Alpha virt. eigenvalues --    0.18672   0.19068   0.19965   0.20329   0.21110
 Alpha virt. eigenvalues --    0.21852   0.22324   0.23008   0.24387   0.25501
 Alpha virt. eigenvalues --    0.25846   0.26045   0.26412   0.27189   0.27845
 Alpha virt. eigenvalues --    0.28199   0.28534   0.29281   0.30625   0.31114
 Alpha virt. eigenvalues --    0.32930   0.33598   0.33849   0.34505   0.35343
 Alpha virt. eigenvalues --    0.36113   0.36639   0.37255   0.37487   0.38740
 Alpha virt. eigenvalues --    0.39146   0.39615   0.40137   0.41075   0.41643
 Alpha virt. eigenvalues --    0.41964   0.42059   0.42781   0.43147   0.43856
 Alpha virt. eigenvalues --    0.44000   0.44661   0.45069   0.46054   0.46195
 Alpha virt. eigenvalues --    0.46589   0.46716   0.47188   0.47846   0.48903
 Alpha virt. eigenvalues --    0.49068   0.49716   0.50260   0.50949   0.51134
 Alpha virt. eigenvalues --    0.51554   0.51938   0.52144   0.52785   0.53279
 Alpha virt. eigenvalues --    0.53311   0.53721   0.53900   0.54280   0.55276
 Alpha virt. eigenvalues --    0.55415   0.55524   0.56288   0.56689   0.57264
 Alpha virt. eigenvalues --    0.57767   0.58099   0.58383   0.58431   0.58723
 Alpha virt. eigenvalues --    0.58943   0.59940   0.60122   0.60577   0.61613
 Alpha virt. eigenvalues --    0.62810   0.63270   0.63451   0.64057   0.64362
 Alpha virt. eigenvalues --    0.64704   0.65412   0.66105   0.66996   0.67143
 Alpha virt. eigenvalues --    0.67200   0.67938   0.68420   0.68547   0.68885
 Alpha virt. eigenvalues --    0.69205   0.69671   0.69935   0.70911   0.71198
 Alpha virt. eigenvalues --    0.71635   0.71943   0.72374   0.72643   0.73199
 Alpha virt. eigenvalues --    0.73629   0.74030   0.74753   0.75300   0.75718
 Alpha virt. eigenvalues --    0.76280   0.77313   0.78003   0.78302   0.78660
 Alpha virt. eigenvalues --    0.79060   0.79963   0.80126   0.80815   0.81138
 Alpha virt. eigenvalues --    0.81512   0.81940   0.82538   0.82958   0.83670
 Alpha virt. eigenvalues --    0.83731   0.83970   0.84415   0.84664   0.84814
 Alpha virt. eigenvalues --    0.85091   0.85666   0.86055   0.86194   0.86816
 Alpha virt. eigenvalues --    0.87204   0.87593   0.87966   0.88564   0.89105
 Alpha virt. eigenvalues --    0.89527   0.90277   0.90560   0.91275   0.91469
 Alpha virt. eigenvalues --    0.91893   0.92170   0.92460   0.92598   0.93395
 Alpha virt. eigenvalues --    0.93415   0.94570   0.94947   0.95062   0.95871
 Alpha virt. eigenvalues --    0.96813   0.97695   0.98067   0.98453   0.99179
 Alpha virt. eigenvalues --    0.99655   1.01269   1.02014   1.03797   1.05304
 Alpha virt. eigenvalues --    1.05955   1.07128   1.07350   1.07915   1.08162
 Alpha virt. eigenvalues --    1.08310   1.08976   1.09483   1.09980   1.10610
 Alpha virt. eigenvalues --    1.10855   1.11545   1.12078   1.12759   1.13239
 Alpha virt. eigenvalues --    1.13578   1.14551   1.14816   1.15124   1.16171
 Alpha virt. eigenvalues --    1.16833   1.17460   1.17692   1.19119   1.19670
 Alpha virt. eigenvalues --    1.20600   1.22167   1.23892   1.24636   1.25141
 Alpha virt. eigenvalues --    1.26781   1.26892   1.27064   1.28026   1.28288
 Alpha virt. eigenvalues --    1.28626   1.29244   1.29622   1.30383   1.31334
 Alpha virt. eigenvalues --    1.31492   1.34096   1.35669   1.36125   1.37322
 Alpha virt. eigenvalues --    1.37450   1.38431   1.39158   1.39482   1.40051
 Alpha virt. eigenvalues --    1.40620   1.40867   1.43939   1.44454   1.45216
 Alpha virt. eigenvalues --    1.45697   1.47079   1.47602   1.48213   1.50010
 Alpha virt. eigenvalues --    1.50804   1.50917   1.51716   1.53697   1.54070
 Alpha virt. eigenvalues --    1.55576   1.56461   1.56815   1.60291   1.60565
 Alpha virt. eigenvalues --    1.61690   1.62249   1.63807   1.64358   1.65206
 Alpha virt. eigenvalues --    1.65630   1.65884   1.66983   1.68900   1.69594
 Alpha virt. eigenvalues --    1.70012   1.70720   1.71332   1.71770   1.72380
 Alpha virt. eigenvalues --    1.73585   1.73616   1.73976   1.75616   1.75823
 Alpha virt. eigenvalues --    1.76758   1.77974   1.78343   1.78863   1.79430
 Alpha virt. eigenvalues --    1.79712   1.81146   1.82140   1.82387   1.82975
 Alpha virt. eigenvalues --    1.83397   1.83633   1.85196   1.85463   1.85963
 Alpha virt. eigenvalues --    1.86564   1.87070   1.90719   1.91295   1.91519
 Alpha virt. eigenvalues --    1.91652   1.92077   1.92592   1.92884   1.94131
 Alpha virt. eigenvalues --    1.94664   1.95559   1.95976   1.96942   1.98427
 Alpha virt. eigenvalues --    1.98585   1.99347   2.00074   2.01102   2.02348
 Alpha virt. eigenvalues --    2.03340   2.05234   2.06237   2.06645   2.07142
 Alpha virt. eigenvalues --    2.08424   2.09424   2.10212   2.10514   2.10891
 Alpha virt. eigenvalues --    2.11254   2.12498   2.13191   2.14234   2.14315
 Alpha virt. eigenvalues --    2.15447   2.15752   2.16928   2.17711   2.17839
 Alpha virt. eigenvalues --    2.18018   2.18935   2.19034   2.19981   2.20336
 Alpha virt. eigenvalues --    2.20912   2.21491   2.21898   2.22363   2.23580
 Alpha virt. eigenvalues --    2.23773   2.24401   2.25197   2.26003   2.26856
 Alpha virt. eigenvalues --    2.27135   2.27304   2.28564   2.28758   2.30599
 Alpha virt. eigenvalues --    2.31600   2.31887   2.32628   2.33138   2.33968
 Alpha virt. eigenvalues --    2.34778   2.35622   2.35766   2.36431   2.36834
 Alpha virt. eigenvalues --    2.38877   2.40382   2.41245   2.43115   2.43865
 Alpha virt. eigenvalues --    2.44236   2.44594   2.45034   2.46197   2.46781
 Alpha virt. eigenvalues --    2.47907   2.48314   2.49578   2.51487   2.52195
 Alpha virt. eigenvalues --    2.53900   2.55785   2.56199   2.57744   2.58731
 Alpha virt. eigenvalues --    2.59983   2.61535   2.62500   2.63084   2.67093
 Alpha virt. eigenvalues --    2.68729   2.69564   2.71220   2.72068   2.72767
 Alpha virt. eigenvalues --    2.78010   2.78214   2.79813   2.80937   2.82681
 Alpha virt. eigenvalues --    2.83255   2.86480   2.86842   2.87615   2.87877
 Alpha virt. eigenvalues --    2.90034   2.90426   2.91284   2.95757   2.96827
 Alpha virt. eigenvalues --    3.03417   3.05039   3.11435   3.14569   3.15256
 Alpha virt. eigenvalues --    3.21089   3.21534   3.23869   3.29757   3.30190
 Alpha virt. eigenvalues --    3.31266   3.35820   3.36882   3.37282   3.40043
 Alpha virt. eigenvalues --    3.72817   3.84790   4.05038
  Beta  occ. eigenvalues -- -256.29223 -89.02011 -30.10982 -25.95858 -25.95298
  Beta  occ. eigenvalues --  -25.95030 -14.45530 -14.45523 -14.45522 -14.45440
  Beta  occ. eigenvalues --  -10.32103 -10.31805 -10.31773 -10.31603 -10.31445
  Beta  occ. eigenvalues --  -10.31275 -10.31187 -10.30869 -10.29314 -10.29297
  Beta  occ. eigenvalues --  -10.29292 -10.29033 -10.28719 -10.28695 -10.28679
  Beta  occ. eigenvalues --  -10.28478 -10.28367 -10.28214 -10.27996 -10.27975
  Beta  occ. eigenvalues --  -10.27787 -10.27733 -10.27424 -10.27363 -10.27289
  Beta  occ. eigenvalues --  -10.27252 -10.27140 -10.26871 -10.26764 -10.26657
  Beta  occ. eigenvalues --  -10.26422  -8.05344  -5.99962  -5.99637  -5.99003
  Beta  occ. eigenvalues --   -3.46270  -2.33848  -2.23019  -2.21544  -2.21080
  Beta  occ. eigenvalues --   -1.52521  -1.07988  -1.06648  -1.06571  -1.05539
  Beta  occ. eigenvalues --   -0.98153  -0.91878  -0.90501  -0.90377  -0.90075
  Beta  occ. eigenvalues --   -0.89660  -0.89300  -0.88708  -0.87258  -0.85242
  Beta  occ. eigenvalues --   -0.84038  -0.83304  -0.83037  -0.81831  -0.79748
  Beta  occ. eigenvalues --   -0.78785  -0.77386  -0.77062  -0.76954  -0.73572
  Beta  occ. eigenvalues --   -0.73350  -0.73197  -0.69198  -0.68579  -0.66861
  Beta  occ. eigenvalues --   -0.66539  -0.63749  -0.63130  -0.62088  -0.61581
  Beta  occ. eigenvalues --   -0.60407  -0.60249  -0.59942  -0.57657  -0.56852
  Beta  occ. eigenvalues --   -0.56539  -0.54769  -0.54527  -0.54066  -0.53782
  Beta  occ. eigenvalues --   -0.53179  -0.52701  -0.52466  -0.52318  -0.51987
  Beta  occ. eigenvalues --   -0.51624  -0.51452  -0.50836  -0.50742  -0.50390
  Beta  occ. eigenvalues --   -0.49953  -0.49626  -0.49565  -0.49044  -0.49027
  Beta  occ. eigenvalues --   -0.48866  -0.48673  -0.48531  -0.48225  -0.47673
  Beta  occ. eigenvalues --   -0.47482  -0.47446  -0.46934  -0.46706  -0.46318
  Beta  occ. eigenvalues --   -0.46092  -0.45245  -0.45183  -0.44675  -0.44425
  Beta  occ. eigenvalues --   -0.43411  -0.42995  -0.42879  -0.42294  -0.41577
  Beta  occ. eigenvalues --   -0.41437  -0.41011  -0.40421  -0.38103  -0.37674
  Beta  occ. eigenvalues --   -0.37256  -0.35634  -0.34997  -0.34022  -0.33659
  Beta  occ. eigenvalues --   -0.31211  -0.31108  -0.28960  -0.27720  -0.27270
  Beta  occ. eigenvalues --   -0.26539
  Beta virt. eigenvalues --   -0.18352  -0.15948  -0.13337  -0.12403  -0.09812
  Beta virt. eigenvalues --   -0.07382  -0.06540  -0.06129  -0.04935  -0.04700
  Beta virt. eigenvalues --   -0.03550  -0.02656  -0.02041  -0.00383   0.00819
  Beta virt. eigenvalues --    0.01706   0.02298   0.02581   0.02653   0.03785
  Beta virt. eigenvalues --    0.03953   0.04589   0.04882   0.05430   0.05772
  Beta virt. eigenvalues --    0.05892   0.06443   0.06933   0.07224   0.07498
  Beta virt. eigenvalues --    0.07764   0.08100   0.08305   0.08821   0.09257
  Beta virt. eigenvalues --    0.09427   0.09661   0.09961   0.10072   0.10616
  Beta virt. eigenvalues --    0.10802   0.10930   0.11225   0.11490   0.11902
  Beta virt. eigenvalues --    0.12113   0.12732   0.13321   0.13508   0.13686
  Beta virt. eigenvalues --    0.14532   0.15031   0.15168   0.16222   0.16557
  Beta virt. eigenvalues --    0.17091   0.17303   0.17721   0.18060   0.18842
  Beta virt. eigenvalues --    0.19130   0.19540   0.20359   0.20886   0.21696
  Beta virt. eigenvalues --    0.22388   0.22806   0.23462   0.24641   0.25770
  Beta virt. eigenvalues --    0.26183   0.26389   0.26690   0.27532   0.28118
  Beta virt. eigenvalues --    0.28665   0.28922   0.29479   0.30869   0.31352
  Beta virt. eigenvalues --    0.33147   0.34054   0.34092   0.34819   0.35526
  Beta virt. eigenvalues --    0.36527   0.37189   0.37601   0.38311   0.39316
  Beta virt. eigenvalues --    0.39639   0.40020   0.40312   0.41357   0.41856
  Beta virt. eigenvalues --    0.42482   0.43048   0.43182   0.43652   0.44247
  Beta virt. eigenvalues --    0.44712   0.44771   0.45279   0.46379   0.46475
  Beta virt. eigenvalues --    0.46772   0.46988   0.47380   0.48209   0.49164
  Beta virt. eigenvalues --    0.49401   0.50059   0.50615   0.51289   0.51446
  Beta virt. eigenvalues --    0.51853   0.52199   0.52659   0.53207   0.53439
  Beta virt. eigenvalues --    0.54034   0.54138   0.54339   0.54681   0.55630
  Beta virt. eigenvalues --    0.55656   0.55861   0.56463   0.56903   0.57542
  Beta virt. eigenvalues --    0.58052   0.58488   0.58613   0.58735   0.58965
  Beta virt. eigenvalues --    0.59352   0.60168   0.60378   0.61142   0.62009
  Beta virt. eigenvalues --    0.63312   0.63543   0.63794   0.64488   0.64603
  Beta virt. eigenvalues --    0.64989   0.65873   0.66286   0.67162   0.67513
  Beta virt. eigenvalues --    0.67692   0.68103   0.68704   0.68834   0.69206
  Beta virt. eigenvalues --    0.69407   0.69853   0.70355   0.71252   0.71428
  Beta virt. eigenvalues --    0.71917   0.72278   0.72622   0.73063   0.73630
  Beta virt. eigenvalues --    0.74007   0.74545   0.75259   0.75710   0.76391
  Beta virt. eigenvalues --    0.76828   0.77738   0.78399   0.78645   0.78769
  Beta virt. eigenvalues --    0.79168   0.80088   0.80497   0.81033   0.81554
  Beta virt. eigenvalues --    0.81704   0.82038   0.82883   0.83342   0.83764
  Beta virt. eigenvalues --    0.84019   0.84185   0.84623   0.84826   0.84997
  Beta virt. eigenvalues --    0.85272   0.85772   0.86315   0.86442   0.87061
  Beta virt. eigenvalues --    0.87484   0.88009   0.88209   0.88802   0.89293
  Beta virt. eigenvalues --    0.89810   0.90489   0.90829   0.91393   0.91626
  Beta virt. eigenvalues --    0.92074   0.92299   0.92576   0.92773   0.93521
  Beta virt. eigenvalues --    0.93741   0.94702   0.95238   0.95312   0.96051
  Beta virt. eigenvalues --    0.97016   0.97854   0.98271   0.99006   0.99668
  Beta virt. eigenvalues --    1.00497   1.01722   1.02327   1.04469   1.05680
  Beta virt. eigenvalues --    1.06148   1.07516   1.07745   1.08223   1.08665
  Beta virt. eigenvalues --    1.08863   1.09420   1.10064   1.10298   1.10890
  Beta virt. eigenvalues --    1.11303   1.11783   1.12327   1.13165   1.13685
  Beta virt. eigenvalues --    1.14220   1.15157   1.15402   1.16149   1.16910
  Beta virt. eigenvalues --    1.17647   1.17999   1.18134   1.19756   1.20161
  Beta virt. eigenvalues --    1.20974   1.22610   1.24175   1.24891   1.25431
  Beta virt. eigenvalues --    1.27134   1.27195   1.27481   1.28271   1.28610
  Beta virt. eigenvalues --    1.28971   1.29493   1.29940   1.30697   1.31641
  Beta virt. eigenvalues --    1.31823   1.34545   1.36243   1.36475   1.37628
  Beta virt. eigenvalues --    1.37936   1.38909   1.39595   1.40204   1.40690
  Beta virt. eigenvalues --    1.41253   1.41495   1.44184   1.44818   1.45616
  Beta virt. eigenvalues --    1.45991   1.47406   1.48028   1.48668   1.50500
  Beta virt. eigenvalues --    1.51209   1.51743   1.52408   1.54201   1.54382
  Beta virt. eigenvalues --    1.55810   1.56845   1.57416   1.60576   1.60932
  Beta virt. eigenvalues --    1.62001   1.62462   1.64057   1.64671   1.65382
  Beta virt. eigenvalues --    1.66076   1.66690   1.67381   1.69523   1.69949
  Beta virt. eigenvalues --    1.70465   1.71014   1.71520   1.72058   1.72875
  Beta virt. eigenvalues --    1.73775   1.73953   1.74210   1.75846   1.76260
  Beta virt. eigenvalues --    1.77162   1.78352   1.78564   1.79109   1.79964
  Beta virt. eigenvalues --    1.80317   1.81552   1.82412   1.82967   1.83692
  Beta virt. eigenvalues --    1.83884   1.84471   1.85563   1.86038   1.86434
  Beta virt. eigenvalues --    1.86803   1.87632   1.90961   1.91437   1.91669
  Beta virt. eigenvalues --    1.91786   1.92360   1.92867   1.93140   1.94407
  Beta virt. eigenvalues --    1.95042   1.96002   1.96319   1.97571   1.98821
  Beta virt. eigenvalues --    1.98940   1.99787   2.00950   2.01949   2.02659
  Beta virt. eigenvalues --    2.03528   2.05431   2.06557   2.07020   2.07492
  Beta virt. eigenvalues --    2.08568   2.09985   2.10387   2.10757   2.11311
  Beta virt. eigenvalues --    2.12913   2.13886   2.14031   2.15043   2.15725
  Beta virt. eigenvalues --    2.16248   2.16601   2.17592   2.18065   2.18117
  Beta virt. eigenvalues --    2.18969   2.19203   2.19378   2.20204   2.20575
  Beta virt. eigenvalues --    2.21146   2.22126   2.22379   2.22738   2.23865
  Beta virt. eigenvalues --    2.23983   2.24810   2.25598   2.26283   2.27166
  Beta virt. eigenvalues --    2.27516   2.27586   2.28800   2.29138   2.30951
  Beta virt. eigenvalues --    2.31851   2.32278   2.32924   2.33407   2.34256
  Beta virt. eigenvalues --    2.35042   2.35897   2.35975   2.36757   2.37190
  Beta virt. eigenvalues --    2.39493   2.40831   2.41901   2.43507   2.44259
  Beta virt. eigenvalues --    2.44468   2.44872   2.45359   2.46466   2.47069
  Beta virt. eigenvalues --    2.48198   2.48640   2.50300   2.51843   2.52479
  Beta virt. eigenvalues --    2.54201   2.56092   2.56723   2.58144   2.59243
  Beta virt. eigenvalues --    2.60512   2.61976   2.62936   2.63431   2.67320
  Beta virt. eigenvalues --    2.69414   2.69756   2.71403   2.72204   2.72936
  Beta virt. eigenvalues --    2.78325   2.78513   2.80135   2.81286   2.83054
  Beta virt. eigenvalues --    2.83666   2.86749   2.87211   2.87883   2.88687
  Beta virt. eigenvalues --    2.90236   2.90600   2.91515   2.95999   2.97046
  Beta virt. eigenvalues --    3.03686   3.05306   3.11586   3.14799   3.15797
  Beta virt. eigenvalues --    3.21218   3.21647   3.28017   3.30099   3.32105
  Beta virt. eigenvalues --    3.34056   3.36754   3.37333   3.46449   3.48627
  Beta virt. eigenvalues --    3.83954   3.95306   4.15270
          Condensed to atoms (all electrons):
          Atomic-Atomic Spin Densities.
 Mulliken charges and spin densities:
               1          2
     1  Fe  -3.226007   3.500623
     2  N   -0.490290   0.140506
     3  N   -0.408575   0.086572
     4  N   -0.526043   0.118513
     5  N   -0.301944   0.080256
     6  C    0.250143  -0.091345
     7  C    0.032576   0.120710
     8  C    0.053989  -0.065184
     9  C    0.207529   0.136778
    10  C    0.114013   0.152316
    11  C    0.040739  -0.062625
    12  C    0.009671   0.135512
    13  C    0.211808  -0.079558
    14  C    0.278055  -0.095180
    15  C    0.040972   0.152322
    16  C    0.016170  -0.068763
    17  C    0.263059   0.148500
    18  C    0.074012   0.152370
    19  C    0.059986  -0.053611
    20  C    0.036887   0.115415
    21  C    0.125289  -0.060088
    22  C   -0.269481   0.255209
    23  H    0.173460  -0.012498
    24  C   -0.290255  -0.074977
    25  H    0.182547   0.003137
    26  C   -0.306748   0.265061
    27  H    0.178482  -0.012480
    28  C   -0.243056  -0.080872
    29  H    0.183702   0.003653
    30  C   -0.608429   0.006025
    31  H    0.201171   0.000267
    32  H    0.185263  -0.002072
    33  H    0.208512  -0.002104
    34  C   -0.607810  -0.009684
    35  H    0.208816   0.005414
    36  H    0.186430   0.006025
    37  H    0.197908   0.000780
    38  C   -0.608805   0.005156
    39  H    0.206981  -0.001819
    40  H    0.170449  -0.001570
    41  H    0.204953  -0.000543
    42  C   -0.153879  -0.046108
    43  H    0.164074   0.004853
    44  C   -0.397159   0.072469
    45  H    0.183196  -0.003598
    46  H    0.184561  -0.003507
    47  C   -0.609476  -0.011844
    48  H    0.207682   0.007345
    49  H    0.185128   0.004383
    50  H    0.203335   0.001791
    51  C   -0.151608   0.017336
    52  H    0.168292  -0.001445
    53  C   -0.389226  -0.019880
    54  H    0.189948   0.000977
    55  H    0.188165   0.001122
    56  C   -0.607723   0.004441
    57  H    0.212826  -0.001808
    58  H    0.177698  -0.001922
    59  H    0.198123   0.000085
    60  C   -0.606207  -0.009531
    61  H    0.209415   0.005231
    62  H    0.197041   0.000573
    63  H    0.175491   0.005285
    64  O    8.000000   0.000000
    65  H   -1.522549   0.013662
    66  H   -2.110352   0.062380
    67  C   -0.683417  -0.001648
    68  H    0.227255   0.000934
    69  H    0.231629   0.000106
    70  H    0.239009   0.000605
    71  S    0.109257   0.078966
    72  H    0.163344   0.002596
 Sum of Mulliken charges =   1.00000   5.00000
 Mulliken charges and spin densities with hydrogens summed into heavy atoms:
               1          2
     1  Fe  -3.226007   3.500623
     2  N   -0.490290   0.140506
     3  N   -0.408575   0.086572
     4  N   -0.526043   0.118513
     5  N   -0.301944   0.080256
     6  C    0.250143  -0.091345
     7  C    0.032576   0.120710
     8  C    0.053989  -0.065184
     9  C    0.207529   0.136778
    10  C    0.114013   0.152316
    11  C    0.040739  -0.062625
    12  C    0.009671   0.135512
    13  C    0.211808  -0.079558
    14  C    0.278055  -0.095180
    15  C    0.040972   0.152322
    16  C    0.016170  -0.068763
    17  C    0.263059   0.148500
    18  C    0.074012   0.152370
    19  C    0.059986  -0.053611
    20  C    0.036887   0.115415
    21  C    0.125289  -0.060088
    22  C   -0.096022   0.242712
    24  C   -0.107708  -0.071839
    26  C   -0.128266   0.252581
    28  C   -0.059353  -0.077219
    30  C   -0.013483   0.002117
    34  C   -0.014655   0.002536
    38  C   -0.026421   0.001225
    42  C    0.010195  -0.041255
    44  C   -0.029402   0.065364
    47  C   -0.013331   0.001675
    51  C    0.016683   0.015891
    53  C   -0.011113  -0.017781
    56  C   -0.019077   0.000795
    60  C   -0.024261   0.001558
    64  O    4.367099   0.076042
    67  C    0.014476  -0.000003
    71  S    0.272601   0.081562
 Electronic spatial extent (au):  <R**2>=          18261.8776
 Charge=              1.0000 electrons
 Dipole moment (field-independent basis, Debye):
    X=             -2.1991    Y=             -2.4738    Z=            -15.9636  Tot=             16.3031
 Quadrupole moment (field-independent basis, Debye-Ang):
   XX=           -223.6577   YY=           -228.0152   ZZ=           -204.1063
   XY=              3.0548   XZ=              0.0040   YZ=             13.3736
 Traceless Quadrupole moment (field-independent basis, Debye-Ang):
   XX=             -5.0646   YY=             -9.4221   ZZ=             14.4867
   XY=              3.0548   XZ=              0.0040   YZ=             13.3736
 Octapole moment (field-independent basis, Debye-Ang**2):
  XXX=             28.9026  YYY=              7.0005  ZZZ=             -6.7111  XYY=              3.6561
  XXY=              7.1026  XXZ=             66.6569  XZZ=            -36.1803  YZZ=            -21.5062
  YYZ=             56.7829  XYZ=             25.3546
 Hexadecapole moment (field-independent basis, Debye-Ang**3):
 XXXX=         -10616.0647 YYYY=         -10674.4248 ZZZZ=          -1637.8888 XXXY=            141.8841
 XXXZ=              2.2261 YYYX=            -52.1469 YYYZ=            -41.8180 ZZZX=              9.1185
 ZZZY=             81.7849 XXYY=          -3502.7071 XXZZ=          -2375.0510 YYZZ=          -2322.0198
 XXYZ=             78.1202 YYXZ=             -5.4913 ZZXY=             13.8755
 N-N= 5.416611285706D+03 E-N=-1.808604248066D+04  KE= 3.079525445222D+03
                          Isotropic Fermi Contact Couplings
        Atom                 a.u.       MegaHertz       Gauss      10(-4) cm-1
     1  Fe(57)             0.36790      10.67198       3.80803       3.55979
     2  N(14)              0.16308      10.53814       3.76027       3.51514
     3  N(14)              0.11671       7.54203       2.69118       2.51575
     4  N(14)              0.11947       7.72038       2.75483       2.57524
     5  N(14)              0.11107       7.17728       2.56103       2.39408
     6  C(13)             -0.01192      -2.68103      -0.95666      -0.89430
     7  C(13)              0.02207       4.96267       1.77081       1.65537
     8  C(13)             -0.00798      -1.79339      -0.63993      -0.59821
     9  C(13)              0.02585       5.81237       2.07400       1.93880
    10  C(13)              0.02659       5.97879       2.13338       1.99431
    11  C(13)             -0.00900      -2.02320      -0.72193      -0.67487
    12  C(13)              0.02342       5.26481       1.87862       1.75615
    13  C(13)             -0.01022      -2.29837      -0.82012      -0.76666
    14  C(13)             -0.01199      -2.69578      -0.96192      -0.89922
    15  C(13)              0.02598       5.84106       2.08423       1.94837
    16  C(13)             -0.00953      -2.14379      -0.76496      -0.71509
    17  C(13)              0.02616       5.88147       2.09865       1.96185
    18  C(13)              0.02723       6.12169       2.18437       2.04198
    19  C(13)             -0.00707      -1.58927      -0.56709      -0.53012
    20  C(13)              0.02050       4.60898       1.64460       1.53739
    21  C(13)             -0.00742      -1.66881      -0.59547      -0.55665
    22  C(13)              0.03543       7.96684       2.84277       2.65745
    23  H(1)              -0.00404      -3.60852      -1.28761      -1.20367
    24  C(13)             -0.01281      -2.87995      -1.02764      -0.96065
    25  H(1)               0.00091       0.81569       0.29106       0.27208
    26  C(13)              0.03725       8.37515       2.98846       2.79365
    27  H(1)              -0.00403      -3.60240      -1.28543      -1.20163
    28  C(13)             -0.01301      -2.92582      -1.04400      -0.97595
    29  H(1)               0.00113       1.01439       0.36196       0.33837
    30  C(13)              0.00257       0.57857       0.20645       0.19299
    31  H(1)               0.00006       0.05649       0.02016       0.01884
    32  H(1)              -0.00100      -0.89723      -0.32015      -0.29928
    33  H(1)              -0.00099      -0.88187      -0.31467      -0.29416
    34  C(13)             -0.00293      -0.65806      -0.23481      -0.21951
    35  H(1)               0.00195       1.74151       0.62141       0.58090
    36  H(1)               0.00225       2.00926       0.71695       0.67022
    37  H(1)               0.00027       0.23817       0.08498       0.07944
    38  C(13)              0.00246       0.55266       0.19720       0.18435
    39  H(1)              -0.00094      -0.83982      -0.29967      -0.28013
    40  H(1)              -0.00049      -0.43418      -0.15493      -0.14483
    41  H(1)              -0.00020      -0.17479      -0.06237      -0.05830
    42  C(13)             -0.00834      -1.87593      -0.66938      -0.62574
    43  H(1)               0.00132       1.17860       0.42056       0.39314
    44  C(13)              0.01066       2.39565       0.85483       0.79910
    45  H(1)              -0.00112      -1.00462      -0.35847      -0.33511
    46  H(1)              -0.00107      -0.95619      -0.34119      -0.31895
    47  C(13)             -0.00391      -0.87851      -0.31348      -0.29304
    48  H(1)               0.00347       3.10219       1.10694       1.03478
    49  H(1)               0.00147       1.31018       0.46750       0.43703
    50  H(1)               0.00086       0.76704       0.27370       0.25586
    51  C(13)              0.00380       0.85433       0.30485       0.28497
    52  H(1)              -0.00053      -0.47808      -0.17059      -0.15947
    53  C(13)             -0.00306      -0.68710      -0.24518      -0.22919
    54  H(1)               0.00034       0.30367       0.10836       0.10129
    55  H(1)               0.00036       0.31745       0.11327       0.10589
    56  C(13)              0.00204       0.45926       0.16388       0.15319
    57  H(1)              -0.00067      -0.59833      -0.21350      -0.19958
    58  H(1)              -0.00066      -0.59349      -0.21177      -0.19797
    59  H(1)               0.00001       0.00577       0.00206       0.00193
    60  C(13)             -0.00304      -0.68363      -0.24393      -0.22803
    61  H(1)               0.00223       1.99192       0.71077       0.66443
    62  H(1)               0.00018       0.16437       0.05865       0.05483
    63  H(1)               0.00199       1.78038       0.63528       0.59387
    64  O(17)              0.00003      -0.00314      -0.00112      -0.00105
    65  H(1)               0.01393      12.45313       4.44359       4.15392
    66  H(1)               0.04357      38.95387      13.89971      12.99361
    67  C(13)             -0.00297      -0.66875      -0.23863      -0.22307
    68  H(1)               0.00130       1.16499       0.41570       0.38860
    69  H(1)               0.00009       0.08156       0.02910       0.02721
    70  H(1)               0.00056       0.49817       0.17776       0.16617
    71  S(33)              0.11451       7.86651       2.80697       2.62399
    72  H(1)              -0.00007      -0.06197      -0.02211      -0.02067
 --------------------------------------------------------
       Center         ----  Spin Dipole Couplings  ----
                      3XX-RR        3YY-RR        3ZZ-RR
 --------------------------------------------------------
     1   Atom        0.046758      1.434693     -1.481451
     2   Atom        0.045858     -0.052235      0.006377
     3   Atom       -0.021501      0.051294     -0.029793
     4   Atom        0.030910     -0.054075      0.023165
     5   Atom       -0.014280      0.063360     -0.049081
     6   Atom        0.025171      0.072442     -0.097613
     7   Atom       -0.050295     -0.049469      0.099763
     8   Atom        0.037225      0.025809     -0.063034
     9   Atom       -0.020873     -0.082488      0.103361
    10   Atom       -0.038206     -0.083000      0.121206
    11   Atom        0.026872      0.028934     -0.055806
    12   Atom       -0.061100     -0.054413      0.115513
    13   Atom        0.011181      0.069567     -0.080748
    14   Atom        0.023737      0.072793     -0.096529
    15   Atom       -0.066162     -0.068197      0.134359
    16   Atom        0.036440      0.024231     -0.060671
    17   Atom       -0.027943     -0.087221      0.115164
    18   Atom       -0.034608     -0.085790      0.120398
    19   Atom        0.022554      0.025931     -0.048485
    20   Atom       -0.052239     -0.045608      0.097847
    21   Atom        0.002670      0.064394     -0.067064
    22   Atom       -0.134333     -0.091407      0.225740
    23   Atom       -0.020650      0.028815     -0.008164
    24   Atom        0.048170      0.018352     -0.066522
    25   Atom        0.011244     -0.002496     -0.008748
    26   Atom       -0.135895     -0.096954      0.232850
    27   Atom       -0.020667      0.029120     -0.008453
    28   Atom        0.051156      0.022923     -0.074079
    29   Atom        0.011078     -0.002183     -0.008895
    30   Atom        0.008432     -0.003127     -0.005305
    31   Atom        0.004310     -0.001091     -0.003219
    32   Atom        0.006072     -0.002648     -0.003424
    33   Atom        0.006505     -0.002887     -0.003618
    34   Atom       -0.000316      0.005322     -0.005005
    35   Atom       -0.001132      0.004804     -0.003671
    36   Atom       -0.001009      0.005622     -0.004612
    37   Atom        0.001456      0.001997     -0.003452
    38   Atom        0.005089     -0.000359     -0.004730
    39   Atom        0.004140     -0.000499     -0.003641
    40   Atom        0.005118     -0.001819     -0.003299
    41   Atom        0.002059      0.000997     -0.003055
    42   Atom        0.003963      0.024512     -0.028475
    43   Atom       -0.003788      0.008894     -0.005106
    44   Atom       -0.008887     -0.029948      0.038835
    45   Atom        0.003253     -0.000899     -0.002354
    46   Atom       -0.004267      0.007193     -0.002926
    47   Atom       -0.000971      0.005343     -0.004372
    48   Atom       -0.001303      0.004383     -0.003080
    49   Atom       -0.001466      0.006719     -0.005253
    50   Atom        0.001469      0.002399     -0.003868
    51   Atom        0.002962     -0.001866     -0.001096
    52   Atom        0.006854     -0.003001     -0.003854
    53   Atom        0.013091     -0.006924     -0.006167
    54   Atom        0.003955     -0.001597     -0.002358
    55   Atom        0.001667     -0.000528     -0.001139
    56   Atom        0.005232     -0.000749     -0.004482
    57   Atom        0.005095     -0.001224     -0.003871
    58   Atom        0.004306     -0.001390     -0.002916
    59   Atom        0.002292      0.000788     -0.003080
    60   Atom       -0.003380      0.008050     -0.004670
    61   Atom       -0.003039      0.007410     -0.004371
    62   Atom       -0.000934      0.004406     -0.003473
    63   Atom       -0.003278      0.007478     -0.004201
    64   Atom       -0.044767     -0.045062      0.089829
    65   Atom       -0.021436     -0.022093      0.043529
    66   Atom       -0.020704     -0.022059      0.042763
    67   Atom       -0.003780     -0.015038      0.018818
    68   Atom       -0.002556     -0.007746      0.010302
    69   Atom       -0.001216     -0.010252      0.011468
    70   Atom        0.006474     -0.013176      0.006702
    71   Atom       -0.173379     -0.169894      0.343274
    72   Atom       -0.027002     -0.000957      0.027959
 --------------------------------------------------------
                        XY            XZ            YZ
 --------------------------------------------------------
     1   Atom        1.217012     -0.003228     -0.170474
     2   Atom        0.191927     -0.023876      0.014246
     3   Atom       -0.166554      0.005108      0.000847
     4   Atom        0.176835      0.020404     -0.005228
     5   Atom       -0.169105      0.000661     -0.005375
     6   Atom        0.018797     -0.004217     -0.019554
     7   Atom        0.014759     -0.001545      0.026871
     8   Atom        0.012884      0.002440     -0.012473
     9   Atom        0.010024      0.007295      0.034372
    10   Atom       -0.025396     -0.018987      0.008959
    11   Atom       -0.012938      0.012419     -0.002289
    12   Atom       -0.015051     -0.025570      0.005536
    13   Atom       -0.007222      0.013300      0.000809
    14   Atom        0.018350      0.009593      0.016472
    15   Atom        0.016492     -0.017687     -0.022655
    16   Atom        0.010985      0.003061      0.012181
    17   Atom        0.013150     -0.015078     -0.037122
    18   Atom       -0.025842      0.031130      0.001883
    19   Atom       -0.012025     -0.012266      0.007562
    20   Atom       -0.014188      0.027244     -0.001944
    21   Atom       -0.007943     -0.010809      0.000489
    22   Atom        0.007297      0.032441      0.029784
    23   Atom        0.005110      0.000753     -0.001657
    24   Atom       -0.003048      0.007966     -0.015679
    25   Atom       -0.002484      0.002024     -0.000926
    26   Atom        0.005085     -0.037485     -0.011527
    27   Atom        0.005127     -0.001134     -0.000440
    28   Atom       -0.002848     -0.011309      0.010961
    29   Atom       -0.002481     -0.002129      0.000737
    30   Atom        0.003854      0.000087     -0.000027
    31   Atom        0.002985     -0.000147     -0.000156
    32   Atom        0.002599      0.001820      0.000364
    33   Atom        0.002205     -0.001691     -0.000316
    34   Atom        0.006787     -0.000686     -0.000982
    35   Atom        0.004718     -0.001677     -0.003477
    36   Atom        0.004901      0.000481      0.001166
    37   Atom        0.005239     -0.000735     -0.000737
    38   Atom       -0.005761      0.002092     -0.000868
    39   Atom       -0.004005     -0.000345      0.000068
    40   Atom       -0.003906      0.002872     -0.001053
    41   Atom       -0.003400      0.001665     -0.000797
    42   Atom       -0.008188     -0.017933     -0.001680
    43   Atom       -0.003983      0.000591     -0.001868
    44   Atom       -0.003191      0.045071     -0.000398
    45   Atom       -0.000820     -0.001741     -0.000717
    46   Atom       -0.001006      0.001798     -0.001008
    47   Atom        0.007021     -0.000225      0.000552
    48   Atom        0.004940      0.001852      0.003444
    49   Atom        0.004774     -0.000321     -0.000969
    50   Atom        0.005798     -0.000078     -0.000052
    51   Atom        0.003573     -0.000919     -0.008114
    52   Atom        0.001538     -0.001484     -0.000110
    53   Atom        0.000424      0.003448      0.014757
    54   Atom        0.003657      0.002499      0.000454
    55   Atom        0.001748      0.000757      0.000793
    56   Atom       -0.006228     -0.001815      0.000892
    57   Atom       -0.004362      0.000416     -0.000142
    58   Atom       -0.004248     -0.002945      0.001319
    59   Atom       -0.003957     -0.000927      0.000635
    60   Atom       -0.004897     -0.000392      0.000679
    61   Atom       -0.003163      0.000235     -0.002092
    62   Atom       -0.004519     -0.000447      0.000769
    63   Atom       -0.002444     -0.000725      0.003091
    64   Atom        0.004709     -0.001438      0.007605
    65   Atom        0.007104      0.019134      0.018649
    66   Atom        0.001201     -0.011784     -0.003438
    67   Atom       -0.000965     -0.019877      0.002146
    68   Atom       -0.000804     -0.008142      0.002567
    69   Atom        0.005307     -0.015422     -0.006327
    70   Atom       -0.006723     -0.021689      0.006712
    71   Atom        0.008150      0.034202      0.079480
    72   Atom        0.002777      0.002406      0.030017
 --------------------------------------------------------


 ---------------------------------------------------------------------------------
              Anisotropic Spin Dipole Couplings in Principal Axis System
 ---------------------------------------------------------------------------------

       Atom             a.u.   MegaHertz   Gauss  10(-4) cm-1        Axes

              Baa    -1.4958   -25.896    -9.240    -8.638 -0.0648  0.0847  0.9943
     1 Fe(57) Bbb    -0.6520   -11.289    -4.028    -3.766  0.8631 -0.4953  0.0985
              Bcc     2.1478    37.185    13.268    12.404  0.5008  0.8646 -0.0411
 
              Baa    -0.2045    -7.886    -2.814    -2.630 -0.6112  0.7820 -0.1221
     2 N(14)  Bbb     0.0090     0.348     0.124     0.116 -0.0322  0.1295  0.9911
              Bcc     0.1955     7.538     2.690     2.514  0.7908  0.6097 -0.0539
 
              Baa    -0.1557    -6.007    -2.143    -2.004  0.7786  0.6265 -0.0358
     3 N(14)  Bbb    -0.0297    -1.144    -0.408    -0.382  0.0205  0.0317  0.9993
              Bcc     0.1854     7.151     2.552     2.385 -0.6272  0.7788 -0.0118
 
              Baa    -0.1947    -7.511    -2.680    -2.505 -0.6193  0.7814  0.0767
     4 N(14)  Bbb     0.0233     0.900     0.321     0.300 -0.0204 -0.1137  0.9933
              Bcc     0.1714     6.610     2.359     2.205  0.7849  0.6136  0.0864
 
              Baa    -0.1490    -5.748    -2.051    -1.917  0.7817  0.6230  0.0283
     5 N(14)  Bbb    -0.0491    -1.893    -0.676    -0.631 -0.0338 -0.0031  0.9994
              Bcc     0.1981     7.641     2.727     2.549 -0.6228  0.7822 -0.0187
 
              Baa    -0.0999   -13.401    -4.782    -4.470  0.0168  0.1109  0.9937
     6 C(13)  Bbb     0.0187     2.504     0.893     0.835  0.9461 -0.3233  0.0201
              Bcc     0.0812    10.898     3.889     3.635  0.3235  0.9398 -0.1104
 
              Baa    -0.0672    -9.012    -3.216    -3.006 -0.6598  0.7409 -0.1254
     7 C(13)  Bbb    -0.0373    -5.005    -1.786    -1.670  0.7514  0.6491 -0.1188
              Bcc     0.1045    14.018     5.002     4.676  0.0066  0.1726  0.9850
 
              Baa    -0.0649    -8.712    -3.109    -2.906 -0.0415  0.1419  0.9890
     8 C(13)  Bbb     0.0191     2.563     0.915     0.855 -0.5610  0.8158 -0.1406
              Bcc     0.0458     6.150     2.194     2.051  0.8268  0.5606 -0.0457
 
              Baa    -0.0897   -12.039    -4.296    -4.016 -0.1244  0.9777 -0.1693
     9 C(13)  Bbb    -0.0204    -2.739    -0.977    -0.914  0.9899  0.1105 -0.0890
              Bcc     0.1101    14.778     5.273     4.929  0.0683  0.1787  0.9815
 
              Baa    -0.0945   -12.676    -4.523    -4.228  0.4110  0.9117 -0.0017
    10 C(13)  Bbb    -0.0297    -3.980    -1.420    -1.328  0.9030 -0.4068  0.1378
              Bcc     0.1241    16.657     5.944     5.556 -0.1249  0.0582  0.9905
 
              Baa    -0.0576    -7.734    -2.760    -2.580 -0.1447  0.0045  0.9895
    11 C(13)  Bbb     0.0157     2.104     0.751     0.702  0.7033  0.7039  0.0996
              Bcc     0.0420     5.629     2.009     1.878 -0.6960  0.7103 -0.1051
 
              Baa    -0.0747   -10.025    -3.577    -3.344  0.8116  0.5768  0.0923
    12 C(13)  Bbb    -0.0448    -6.008    -2.144    -2.004 -0.5662  0.8157 -0.1185
              Bcc     0.1195    16.032     5.721     5.348 -0.1437  0.0439  0.9887
 
              Baa    -0.0827   -11.092    -3.958    -3.700 -0.1412 -0.0120  0.9899
    13 C(13)  Bbb     0.0122     1.638     0.584     0.546  0.9824  0.1217  0.1416
              Bcc     0.0705     9.454     3.373     3.154 -0.1222  0.9925 -0.0054
 
              Baa    -0.0986   -13.234    -4.722    -4.414 -0.0646 -0.0886  0.9940
    14 C(13)  Bbb     0.0178     2.383     0.850     0.795  0.9452 -0.3249  0.0325
              Bcc     0.0809    10.851     3.872     3.619  0.3200  0.9416  0.1047
 
              Baa    -0.0838   -11.245    -4.013    -3.751 -0.6706  0.7415  0.0226
    15 C(13)  Bbb    -0.0549    -7.368    -2.629    -2.458  0.7358  0.6609  0.1479
              Bcc     0.1387    18.613     6.642     6.209 -0.0947 -0.1158  0.9887
 
              Baa    -0.0624    -8.374    -2.988    -2.793 -0.0154 -0.1373  0.9904
    16 C(13)  Bbb     0.0187     2.514     0.897     0.839 -0.5376  0.8363  0.1076
              Bcc     0.0437     5.860     2.091     1.955  0.8431  0.5307  0.0867
 
              Baa    -0.0954   -12.805    -4.569    -4.271 -0.1540  0.9749  0.1608
    17 C(13)  Bbb    -0.0283    -3.795    -1.354    -1.266  0.9816  0.1324  0.1375
              Bcc     0.1237    16.600     5.923     5.537 -0.1127 -0.1790  0.9774
 
              Baa    -0.0975   -13.080    -4.667    -4.363  0.4071  0.9110 -0.0660
    18 C(13)  Bbb    -0.0290    -3.889    -1.388    -1.297  0.8930 -0.4122 -0.1809
              Bcc     0.1265    16.970     6.055     5.661  0.1920 -0.0147  0.9813
 
              Baa    -0.0509    -6.836    -2.439    -2.280  0.1525 -0.0731  0.9856
    19 C(13)  Bbb     0.0124     1.660     0.592     0.554  0.7293  0.6814 -0.0623
              Bcc     0.0386     5.177     1.847     1.727 -0.6670  0.7283  0.1572
 
              Baa    -0.0661    -8.875    -3.167    -2.960  0.8214  0.5554 -0.1299
    20 C(13)  Bbb    -0.0366    -4.915    -1.754    -1.640 -0.5426  0.8311  0.1219
              Bcc     0.1028    13.791     4.921     4.600  0.1757 -0.0297  0.9840
 
              Baa    -0.0687    -9.220    -3.290    -3.075  0.1503  0.0053  0.9886
    21 C(13)  Bbb     0.0033     0.440     0.157     0.147  0.9803  0.1286 -0.1498
              Bcc     0.0654     8.779     3.133     2.929 -0.1279  0.9917  0.0141
 
              Baa    -0.1377   -18.481    -6.594    -6.164  0.9913 -0.1048 -0.0799
    22 C(13)  Bbb    -0.0938   -12.583    -4.490    -4.197  0.0964  0.9901 -0.1021
              Bcc     0.2315    31.063    11.084    10.362  0.0898  0.0935  0.9916
 
              Baa    -0.0212   -11.331    -4.043    -3.780  0.9921 -0.1036 -0.0703
    23 H(1)   Bbb    -0.0082    -4.357    -1.555    -1.453  0.0742  0.0344  0.9967
              Bcc     0.0294    15.688     5.598     5.233  0.1009  0.9940 -0.0418
 
              Baa    -0.0698    -9.364    -3.341    -3.123 -0.0619  0.1727  0.9830
    24 C(13)  Bbb     0.0205     2.747     0.980     0.916  0.1537  0.9748 -0.1616
              Bcc     0.0493     6.617     2.361     2.207  0.9862 -0.1411  0.0869
 
              Baa    -0.0090    -4.815    -1.718    -1.606 -0.0857  0.1078  0.9905
    25 H(1)   Bbb    -0.0029    -1.537    -0.548    -0.513  0.1851  0.9785 -0.0905
              Bcc     0.0119     6.351     2.266     2.119  0.9790 -0.1756  0.1038
 
              Baa    -0.1400   -18.790    -6.705    -6.268  0.9911 -0.0911  0.0968
    26 C(13)  Bbb    -0.0970   -13.020    -4.646    -4.343  0.0871  0.9952  0.0447
              Bcc     0.2371    31.810    11.351    10.611 -0.1004 -0.0358  0.9943
 
              Baa    -0.0213   -11.355    -4.052    -3.787  0.9914 -0.1001  0.0842
    27 H(1)   Bbb    -0.0084    -4.465    -1.593    -1.490 -0.0823  0.0229  0.9963
              Bcc     0.0297    15.820     5.645     5.277  0.1017  0.9947 -0.0145
 
              Baa    -0.0762   -10.231    -3.651    -3.413  0.0855 -0.1070  0.9906
    28 C(13)  Bbb     0.0236     3.162     1.128     1.055  0.1404  0.9856  0.0944
              Bcc     0.0527     7.068     2.522     2.358  0.9864 -0.1310 -0.0993
 
              Baa    -0.0092    -4.884    -1.743    -1.629  0.0958 -0.0709  0.9929
    29 H(1)   Bbb    -0.0026    -1.395    -0.498    -0.465  0.1859  0.9812  0.0522
              Bcc     0.0118     6.278     2.240     2.094  0.9779 -0.1796 -0.1072
 
              Baa    -0.0053    -0.712    -0.254    -0.238 -0.0193  0.0462  0.9987
    30 C(13)  Bbb    -0.0043    -0.576    -0.205    -0.192 -0.2892  0.9560 -0.0498
              Bcc     0.0096     1.288     0.460     0.430  0.9571  0.2898  0.0050
 
              Baa    -0.0032    -1.724    -0.615    -0.575 -0.0208  0.1016  0.9946
    31 H(1)   Bbb    -0.0024    -1.284    -0.458    -0.428 -0.4059  0.9083 -0.1013
              Bcc     0.0056     3.009     1.074     1.004  0.9137  0.4058 -0.0223
 
              Baa    -0.0038    -2.022    -0.721    -0.674 -0.2368  0.2387  0.9418
    32 H(1)   Bbb    -0.0033    -1.774    -0.633    -0.592 -0.2030  0.9358 -0.2882
              Bcc     0.0071     3.795     1.354     1.266  0.9501  0.2594  0.1731
 
              Baa    -0.0039    -2.079    -0.742    -0.693  0.1760 -0.0779  0.9813
    33 H(1)   Bbb    -0.0034    -1.799    -0.642    -0.600 -0.1981  0.9737  0.1128
              Bcc     0.0073     3.878     1.384     1.294  0.9642  0.2142 -0.1560
 
              Baa    -0.0051    -0.685    -0.244    -0.228  0.1264  0.0112  0.9919
    34 C(13)  Bbb    -0.0048    -0.650    -0.232    -0.217  0.8232 -0.5591 -0.0986
              Bcc     0.0099     1.335     0.476     0.445  0.5535  0.8290 -0.0799
 
              Baa    -0.0049    -2.623    -0.936    -0.875 -0.0071  0.3399  0.9405
    35 H(1)   Bbb    -0.0037    -1.976    -0.705    -0.659  0.8895 -0.4275  0.1612
              Bcc     0.0086     4.598     1.641     1.534  0.4568  0.8377 -0.2993
 
              Baa    -0.0047    -2.533    -0.904    -0.845  0.0487 -0.1344  0.9897
    36 H(1)   Bbb    -0.0036    -1.920    -0.685    -0.640  0.8835 -0.4563 -0.1055
              Bcc     0.0083     4.453     1.589     1.485  0.4658  0.8796  0.0965
 
              Baa    -0.0036    -1.904    -0.679    -0.635  0.3915 -0.2513  0.8852
    37 H(1)   Bbb    -0.0035    -1.871    -0.668    -0.624 -0.6139  0.6453  0.4547
              Bcc     0.0071     3.775     1.347     1.259  0.6855  0.7214 -0.0984
 
              Baa    -0.0052    -0.699    -0.250    -0.233 -0.2889 -0.1747  0.9413
    38 C(13)  Bbb    -0.0039    -0.522    -0.186    -0.174  0.4656  0.8335  0.2976
              Bcc     0.0091     1.221     0.436     0.407  0.8365 -0.5242  0.1595
 
              Baa    -0.0037    -1.957    -0.698    -0.653  0.0935  0.0971  0.9909
    39 H(1)   Bbb    -0.0028    -1.490    -0.532    -0.497  0.4910  0.8613 -0.1307
              Bcc     0.0065     3.447     1.230     1.150  0.8661 -0.4988 -0.0329
 
              Baa    -0.0042    -2.248    -0.802    -0.750 -0.3576 -0.1806  0.9162
    40 H(1)   Bbb    -0.0035    -1.871    -0.667    -0.624  0.3094  0.9028  0.2987
              Bcc     0.0077     4.118     1.470     1.374  0.8811 -0.3903  0.2670
 
              Baa    -0.0036    -1.903    -0.679    -0.635 -0.3265 -0.0788  0.9419
    41 H(1)   Bbb    -0.0018    -0.951    -0.340    -0.317  0.5728  0.7762  0.2635
              Bcc     0.0053     2.854     1.018     0.952  0.7519 -0.6255  0.2083
 
              Baa    -0.0368    -4.942    -1.763    -1.648  0.4146  0.0802  0.9065
    42 C(13)  Bbb     0.0090     1.212     0.432     0.404  0.8235  0.3909 -0.4112
              Bcc     0.0278     3.730     1.331     1.244 -0.3873  0.9169  0.0961
 
              Baa    -0.0054    -2.860    -1.021    -0.954 -0.1477  0.0878  0.9851
    43 H(1)   Bbb    -0.0049    -2.630    -0.938    -0.877  0.9500  0.2895  0.1167
              Bcc     0.0103     5.490     1.959     1.831 -0.2750  0.9531 -0.1262
 
              Baa    -0.0369    -4.957    -1.769    -1.654  0.8085  0.3416 -0.4791
    44 C(13)  Bbb    -0.0291    -3.901    -1.392    -1.301 -0.2826  0.9396  0.1931
              Bcc     0.0660     8.858     3.161     2.955  0.5161 -0.0207  0.8563
 
              Baa    -0.0032    -1.717    -0.613    -0.573  0.2848  0.3735  0.8828
    45 H(1)   Bbb    -0.0006    -0.324    -0.116    -0.108  0.0174  0.9188 -0.3943
              Bcc     0.0038     2.041     0.728     0.681  0.9584 -0.1276 -0.2552
 
              Baa    -0.0055    -2.946    -1.051    -0.983  0.8255  0.0207 -0.5640
    46 H(1)   Bbb    -0.0019    -1.010    -0.360    -0.337  0.5549  0.1522  0.8179
              Bcc     0.0074     3.956     1.412     1.319 -0.1027  0.9881 -0.1142
 
              Baa    -0.0057    -0.764    -0.273    -0.255  0.7829 -0.5155  0.3482
    47 C(13)  Bbb    -0.0042    -0.563    -0.201    -0.188 -0.3048  0.1701  0.9371
              Bcc     0.0099     1.327     0.474     0.443  0.5423  0.8398  0.0240
 
              Baa    -0.0044    -2.369    -0.845    -0.790  0.1807 -0.4438  0.8777
    48 H(1)   Bbb    -0.0041    -2.195    -0.783    -0.732  0.8629 -0.3566 -0.3580
              Bcc     0.0086     4.563     1.628     1.522  0.4719  0.8221  0.3185
 
              Baa    -0.0053    -2.846    -1.015    -0.949 -0.0319  0.0927  0.9952
    49 H(1)   Bbb    -0.0037    -1.949    -0.696    -0.650  0.9087 -0.4119  0.0674
              Bcc     0.0090     4.795     1.711     1.599  0.4162  0.9065 -0.0711
 
              Baa    -0.0039    -2.080    -0.742    -0.694  0.5926 -0.5407  0.5971
    50 H(1)   Bbb    -0.0039    -2.055    -0.733    -0.686 -0.4345  0.4096  0.8021
              Bcc     0.0078     4.136     1.476     1.379  0.6783  0.7348 -0.0079
 
              Baa    -0.0099    -1.330    -0.475    -0.444 -0.1568  0.7349  0.6598
    51 C(13)  Bbb     0.0014     0.192     0.068     0.064  0.8477 -0.2427  0.4717
              Bcc     0.0085     1.139     0.406     0.380  0.5068  0.6333 -0.5849
 
              Baa    -0.0041    -2.170    -0.774    -0.724  0.1496 -0.1149  0.9820
    52 H(1)   Bbb    -0.0032    -1.718    -0.613    -0.573 -0.1302  0.9823  0.1347
              Bcc     0.0073     3.888     1.387     1.297  0.9801  0.1480 -0.1320
 
              Baa    -0.0214    -2.877    -1.026    -0.960  0.0612  0.7108 -0.7008
    53 C(13)  Bbb     0.0070     0.938     0.335     0.313 -0.4042  0.6596  0.6337
              Bcc     0.0144     1.938     0.692     0.646  0.9126  0.2445  0.3277
 
              Baa    -0.0039    -2.097    -0.748    -0.699 -0.4863  0.6481  0.5860
    54 H(1)   Bbb    -0.0025    -1.344    -0.480    -0.448  0.0670 -0.6411  0.7645
              Bcc     0.0064     3.441     1.228     1.148  0.8712  0.4111  0.2684
 
              Baa    -0.0018    -0.946    -0.338    -0.316 -0.2315  0.7329 -0.6398
    55 H(1)   Bbb    -0.0011    -0.604    -0.216    -0.202 -0.4946  0.4776  0.7261
              Bcc     0.0029     1.550     0.553     0.517  0.8377  0.4845  0.2519
 
              Baa    -0.0049    -0.662    -0.236    -0.221  0.4219  0.4614  0.7804
    56 C(13)  Bbb    -0.0045    -0.605    -0.216    -0.202  0.3439  0.7150 -0.6087
              Bcc     0.0094     1.267     0.452     0.423  0.8389 -0.5252 -0.1430
 
              Baa    -0.0039    -2.079    -0.742    -0.693 -0.0970 -0.1056  0.9897
    57 H(1)   Bbb    -0.0034    -1.836    -0.655    -0.613  0.4453  0.8847  0.1380
              Bcc     0.0073     3.915     1.397     1.306  0.8901 -0.4541  0.0388
 
              Baa    -0.0040    -2.149    -0.767    -0.717  0.4568  0.3208  0.8297
    58 H(1)   Bbb    -0.0035    -1.886    -0.673    -0.629  0.2748  0.8362 -0.4746
              Bcc     0.0076     4.035     1.440     1.346  0.8461 -0.4448 -0.2938
 
              Baa    -0.0032    -1.727    -0.616    -0.576  0.1819  0.0238  0.9830
    59 H(1)   Bbb    -0.0025    -1.320    -0.471    -0.440  0.6177  0.7751 -0.1330
              Bcc     0.0057     3.047     1.087     1.016  0.7651 -0.6314 -0.1263
 
              Baa    -0.0052    -0.701    -0.250    -0.234  0.9127  0.3239  0.2490
    60 C(13)  Bbb    -0.0047    -0.628    -0.224    -0.209 -0.2160 -0.1347  0.9671
              Bcc     0.0099     1.329     0.474     0.443 -0.3468  0.9364  0.0530
 
              Baa    -0.0048    -2.575    -0.919    -0.859  0.2925  0.2341  0.9271
    61 H(1)   Bbb    -0.0038    -2.028    -0.723    -0.676  0.9198  0.1961 -0.3398
              Bcc     0.0086     4.602     1.642     1.535 -0.2614  0.9522 -0.1580
 
              Baa    -0.0035    -1.894    -0.676    -0.632  0.2010  0.0195  0.9794
    62 H(1)   Bbb    -0.0035    -1.873    -0.668    -0.625  0.8459  0.5007 -0.1836
              Bcc     0.0071     3.767     1.344     1.257 -0.4939  0.8654  0.0842
 
              Baa    -0.0050    -2.657    -0.948    -0.886  0.0941 -0.2223  0.9704
    63 H(1)   Bbb    -0.0038    -2.030    -0.724    -0.677  0.9739  0.2228 -0.0433
              Bcc     0.0088     4.687     1.672     1.563 -0.2066  0.9492  0.2375
 
              Baa    -0.0499     3.613     1.289     1.205 -0.6803  0.7314 -0.0468
    64 O(17)  Bbb    -0.0403     2.919     1.042     0.974  0.7329  0.6796 -0.0316
              Bcc     0.0903    -6.532    -2.331    -2.179 -0.0087  0.0558  0.9984
 
              Baa    -0.0289   -15.409    -5.498    -5.140 -0.6736  0.7390 -0.0123
    65 H(1)   Bbb    -0.0251   -13.369    -4.771    -4.460  0.6917  0.6245 -0.3628
              Bcc     0.0539    28.778    10.269     9.599  0.2604  0.2529  0.9318
 
              Baa    -0.0232   -12.366    -4.412    -4.125  0.8415 -0.5260  0.1230
    66 H(1)   Bbb    -0.0219   -11.683    -4.169    -3.897  0.5104  0.8488  0.1381
              Bcc     0.0451    24.049     8.581     8.022 -0.1770 -0.0535  0.9827
 
              Baa    -0.0155    -2.082    -0.743    -0.694  0.6971 -0.5668  0.4390
    67 C(13)  Bbb    -0.0150    -2.011    -0.718    -0.671  0.5119  0.8222  0.2488
              Bcc     0.0305     4.093     1.461     1.365 -0.5020  0.0513  0.8633
 
              Baa    -0.0082    -4.352    -1.553    -1.452 -0.1580  0.9661 -0.2040
    68 H(1)   Bbb    -0.0064    -3.419    -1.220    -1.140  0.8884  0.2293  0.3977
              Bcc     0.0146     7.771     2.773     2.592 -0.4310  0.1184  0.8945
 
              Baa    -0.0128    -6.839    -2.440    -2.281 -0.5733  0.8046 -0.1544
    69 H(1)   Bbb    -0.0110    -5.850    -2.087    -1.951  0.6109  0.5454  0.5738
              Bcc     0.0238    12.689     4.528     4.233 -0.5460 -0.2346  0.8043
 
              Baa    -0.0153    -8.140    -2.904    -2.715  0.2910  0.9567 -0.0050
    70 H(1)   Bbb    -0.0151    -8.054    -2.874    -2.687  0.6637 -0.1980  0.7213
              Bcc     0.0304    16.194     5.778     5.402 -0.6891  0.2132  0.6926
 
              Baa    -0.1831    -7.506    -2.678    -2.504 -0.3680  0.9226 -0.1154
    71 S(33)  Bbb    -0.1745    -7.155    -2.553    -2.387  0.9275  0.3555 -0.1158
              Bcc     0.3576    14.662     5.232     4.891  0.0658  0.1497  0.9865
 
              Baa    -0.0273   -14.578    -5.202    -4.863  0.9889 -0.1445  0.0354
    72 H(1)   Bbb    -0.0197   -10.492    -3.744    -3.500  0.1410  0.8343 -0.5330
              Bcc     0.0470    25.069     8.945     8.362  0.0475  0.5320  0.8454
 

 ---------------------------------------------------------------------------------

 Unable to Open any file for archive entry.
 1\1\GINC-BGN1022\SP\UAPFD\Gen\C31H34Fe1N4O1S1(1+,6)\BECSLEIP\15-Nov-20
 24\0\\# apfd/gen scf=maxcycle=999 geom=check\\6rqd_III_H\\1,6\Fe,0,-6.
 2238644522,24.7826275523,271.2061810127\N,0,-4.5379234319,23.704892269
 9,270.9881304467\N,0,-5.8629697337,24.8715098233,273.1850242902\N,0,-8
 .018387587,25.6241162371,271.5258630547\N,0,-6.706124337,24.4931945845
 ,269.3129538663\C,0,-3.9944917456,23.3385370636,269.7968420896\C,0,-2.
 6782219579,22.7738740655,269.9898557982\C,0,-2.4412695962,22.804471344
 5,271.3299082073\C,0,-3.613984353,23.392317084,271.9349128379\C,0,-4.8
 242448621,24.3039709018,273.8612712416\C,0,-4.9258930747,24.5711676431
 ,275.2733006685\C,0,-6.0422306917,25.3462733374,275.4394703019\C,0,-6.
 6203347372,25.5035375494,274.1191687658\C,0,-8.4018113497,26.309413268
 5,272.6375135019\C,0,-9.6116782758,27.0498456096,272.392116861\C,0,-9.
 9742091554,26.7725620384,271.0996279293\C,0,-8.9653809627,25.868602999
 3,270.5852016949\C,0,-7.927855678,24.6431951898,268.7366667872\C,0,-7.
 9224620986,24.1506176752,267.3772816613\C,0,-6.689051664,23.6195288397
 ,267.1730781179\C,0,-5.9628331012,23.7919239878,268.4144460562\C,0,-4.
 6513347621,23.3882095142,268.5818575597\H,0,-4.1409220556,22.978959789
 2,267.7238358958\C,0,-3.7669326674,23.6152835494,273.2887055164\H,0,-2
 .982409257,23.2705356087,273.9441846232\C,0,-7.7641551082,26.234949462
 4,273.8633022853\H,0,-8.2043496326,26.7727280688,274.6887260915\C,0,-8
 .9779938529,25.3352566116,269.3077593778\H,0,-9.8537236729,25.50492608
 01,268.7006401849\C,0,-1.2477258641,22.3410766707,272.091680623\H,0,-0
 .4971889211,21.9291070445,271.4217967747\H,0,-1.5268619358,21.56912744
 07,272.8093326199\H,0,-0.7998625414,23.1681525426,272.6432506944\C,0,-
 1.8089898793,22.2749822912,268.8877580074\H,0,-1.6484527712,23.0552157
 512,268.1439543627\H,0,-2.273918738,21.4239831583,268.3886603269\H,0,-
 0.8413426805,21.9596120308,269.2701587982\C,0,-4.004319786,24.03739196
 66,276.3133870301\H,0,-3.0991120417,24.6435033535,276.3815715374\H,0,-
 3.7093113998,23.0156709922,276.0787700964\H,0,-4.4950676722,24.0444205
 248,277.284421867\C,0,-6.609179867,25.8837696758,276.6569404364\H,0,-7
 .6909855996,25.9418232101,276.6843977919\C,0,-5.9132489878,26.30537049
 82,277.7074793302\H,0,-4.8371893998,26.3135743181,277.7163849319\H,0,-
 6.4003495474,26.6840795478,278.5905459002\C,0,-10.3296763101,27.881145
 9977,273.3963192454\H,0,-9.8827373588,28.873953849,273.4689568844\H,0,
 -10.28632949,27.4210367849,274.3820971456\H,0,-11.3733658586,27.993992
 9031,273.1104954017\C,0,-11.120471796,27.2390331582,270.3516144724\H,0
 ,-11.5331969228,26.5345865905,269.6387077439\C,0,-11.6779288646,28.439
 7938919,270.4661771262\H,0,-11.2799331887,29.1961394468,271.1197397482
 \H,0,-12.5397315784,28.7182580812,269.8827880383\C,0,-9.0882238322,24.
 229895347,266.453457967\H,0,-9.3523651536,25.2702755525,266.2626717639
 \H,0,-9.9567075165,23.7348339933,266.8880887912\H,0,-8.8618678459,23.7
 5432875,265.5024289775\C,0,-6.1353940887,22.9585846022,265.9581157142\
 H,0,-5.2577853181,23.4946508405,265.5964020669\H,0,-6.8742482106,22.93
 60944046,265.1610353985\H,0,-5.8381337859,21.9334314208,266.1803969487
 \O,0,-7.16,22.791,271.614\H,0,-6.464,22.138,271.54\H,0,-8.022,22.626,2
 71.757\C,0,-3.5355031311,26.7869196647,271.4906216924\H,0,-3.152144787
 4,27.7963742967,271.6022062369\H,0,-2.9350864381,26.2350205292,270.774
 7397578\H,0,-3.5499767601,26.2614261161,272.4398040266\S,0,-5.22908743
 31,26.860148466,270.8053936481\H,0,-5.7456234932,27.5253134813,271.846
 5843346\\Version=ES64L-G16RevC.02\State=6-A\HF=-3095.1656461\S2=8.8326
 48\S2-1=0.\S2A=8.751832\RMSD=5.667e-09\Dipole=-1.8370973,-6.0519799,1.
 0675731\Quadrupole=-3.0255088,14.0259472,-11.0004384,4.0752522,2.90108
 02,2.2756119\PG=C01 [X(C31H34Fe1N4O1S1)]\\@
 The archive entry for this job was punched.


 GOORD'S AXIOM:  A MEETING IS AN EVENT AT WHICH
 THE MINUTES ARE KEPT AND THE HOURS ARE LOST.
 Job cpu time:       0 days  2 hours 37 minutes 37.6 seconds.
 Elapsed time:       0 days  0 hours  2 minutes 40.4 seconds.
 File lengths (MBytes):  RWF=    347 Int=      0 D2E=      0 Chk=    140 Scr=      1
 Normal termination of Gaussian 16 at Fri Nov 15 10:42:21 2024.
