 Entering Gaussian System, Link 0=g16
 Input=6rqe01.com
 Output=6rqe01.log
 Initial command:
 /sw/chem/gaussian/g16_C02/a100/g16/l1.exe "/local/becsleip_8081155/Gau-1658624.inp" -scrdir="/local/becsleip_8081155/"
 Entering Link 1 = /sw/chem/gaussian/g16_C02/a100/g16/l1.exe PID=   1658625.
  
 Copyright (c) 1988-2021, Gaussian, Inc.  All Rights Reserved.
  
 This is part of the Gaussian(R) 16 program.  It is based on
 the Gaussian(R) 09 system (copyright 2009, Gaussian, Inc.),
 the Gaussian(R) 03 system (copyright 2003, Gaussian, Inc.),
 the Gaussian(R) 98 system (copyright 1998, Gaussian, Inc.),
 the Gaussian(R) 94 system (copyright 1995, Gaussian, Inc.),
 the Gaussian 92(TM) system (copyright 1992, Gaussian, Inc.),
 the Gaussian 90(TM) system (copyright 1990, Gaussian, Inc.),
 the Gaussian 88(TM) system (copyright 1988, Gaussian, Inc.),
 the Gaussian 86(TM) system (copyright 1986, Carnegie Mellon
 University), and the Gaussian 82(TM) system (copyright 1983,
 Carnegie Mellon University). Gaussian is a federally registered
 trademark of Gaussian, Inc.
  
 This software contains proprietary and confidential information,
 including trade secrets, belonging to Gaussian, Inc.
  
 This software is provided under written license and may be
 used, copied, transmitted, or stored only in accord with that
 written license.
  
 The following legend is applicable only to US Government
 contracts under FAR:
  
                    RESTRICTED RIGHTS LEGEND
  
 Use, reproduction and disclosure by the US Government is
 subject to restrictions as set forth in subparagraphs (a)
 and (c) of the Commercial Computer Software - Restricted
 Rights clause in FAR 52.227-19.
  
 Gaussian, Inc.
 340 Quinnipiac St., Bldg. 40, Wallingford CT 06492
  
  
 ---------------------------------------------------------------
 Warning -- This program may not be used in any manner that
 competes with the business of Gaussian, Inc. or will provide
 assistance to any competitor of Gaussian, Inc.  The licensee
 of this program is prohibited from giving any competitor of
 Gaussian, Inc. access to this program.  By using this program,
 the user acknowledges that Gaussian, Inc. is engaged in the
 business of creating and licensing software in the field of
 computational chemistry and represents and warrants to the
 licensee that it is not a competitor of Gaussian, Inc. and that
 it will not use this program in any manner prohibited above.
 ---------------------------------------------------------------
  

 Cite this work as:
 Gaussian 16, Revision C.02,
 M. J. Frisch, G. W. Trucks, H. B. Schlegel, G. E. Scuseria, 
 M. A. Robb, J. R. Cheeseman, G. Scalmani, V. Barone, 
 G. A. Petersson, H. Nakatsuji, X. Li, M. Caricato, A. V. Marenich, 
 J. Bloino, B. G. Janesko, R. Gomperts, B. Mennucci, H. P. Hratchian, 
 J. V. Ortiz, A. F. Izmaylov, J. L. Sonnenberg, D. Williams-Young, 
 F. Ding, F. Lipparini, F. Egidi, J. Goings, B. Peng, A. Petrone, 
 T. Henderson, D. Ranasinghe, V. G. Zakrzewski, J. Gao, N. Rega, 
 G. Zheng, W. Liang, M. Hada, M. Ehara, K. Toyota, R. Fukuda, 
 J. Hasegawa, M. Ishida, T. Nakajima, Y. Honda, O. Kitao, H. Nakai, 
 T. Vreven, K. Throssell, J. A. Montgomery, Jr., J. E. Peralta, 
 F. Ogliaro, M. J. Bearpark, J. J. Heyd, E. N. Brothers, K. N. Kudin, 
 V. N. Staroverov, T. A. Keith, R. Kobayashi, J. Normand, 
 K. Raghavachari, A. P. Rendell, J. C. Burant, S. S. Iyengar, 
 J. Tomasi, M. Cossi, J. M. Millam, M. Klene, C. Adamo, R. Cammi, 
 J. W. Ochterski, R. L. Martin, K. Morokuma, O. Farkas, 
 J. B. Foresman, and D. J. Fox, Gaussian, Inc., Wallingford CT, 2019.
 
 ******************************************
 Gaussian 16:  ES64L-G16RevC.02  7-Dec-2021
                14-Nov-2024 
 ******************************************
 %mem=16GB
 %CPU=0-71
 SetSPE:  set environment variable "OMP_PROC_BIND" = "true"
 SetSPE:  set environment variable "OMP_PLACES" = "{0},{1},{2},{3},{4},{5},{6},{7},{8},{9},{10},{11},{12},{13},{14},{15},{16},{17},{18},{19},{20},{21},{22},{23},{24},{25},{26},{27},{28},{29},{30},{31},{32},{33},{34},{35},{36},{37},{38},{39},{40},{41},{42},{43},{44},{45},{46},{47},{48},{49},{50},{51},{52},{53},{54},{55},{56},{57},{58},{59},{60},{61},{62},{63},{64},{65},{66},{67},{68},{69},{70},{71}"
 Will use up to   72 processors via shared memory.
 %gpucpu=0,1,2,3=0,1,2,3
 Will use    4 GPUs:
 Thread  CPU   GPU
      0    0     0
      1    1     1
      2    2     2
      3    3     3
      4    4    -1
      5    5    -1
      6    6    -1
      7    7    -1
      8    8    -1
      9    9    -1
     10   10    -1
     11   11    -1
     12   12    -1
     13   13    -1
     14   14    -1
     15   15    -1
     16   16    -1
     17   17    -1
     18   18    -1
     19   19    -1
     20   20    -1
     21   21    -1
     22   22    -1
     23   23    -1
     24   24    -1
     25   25    -1
     26   26    -1
     27   27    -1
     28   28    -1
     29   29    -1
     30   30    -1
     31   31    -1
     32   32    -1
     33   33    -1
     34   34    -1
     35   35    -1
     36   36    -1
     37   37    -1
     38   38    -1
     39   39    -1
     40   40    -1
     41   41    -1
     42   42    -1
     43   43    -1
     44   44    -1
     45   45    -1
     46   46    -1
     47   47    -1
     48   48    -1
     49   49    -1
     50   50    -1
     51   51    -1
     52   52    -1
     53   53    -1
     54   54    -1
     55   55    -1
     56   56    -1
     57   57    -1
     58   58    -1
     59   59    -1
     60   60    -1
     61   61    -1
     62   62    -1
     63   63    -1
     64   64    -1
     65   65    -1
     66   66    -1
     67   67    -1
     68   68    -1
     69   69    -1
     70   70    -1
     71   71    -1
 SetGPE:  set environment variable "OMP_PROC_BIND" = "true"
 SetGPE:  set environment variable "OMP_PLACES" = "{0},{1},{2},{3},{4},{5},{6},{7},{8},{9},{10},{11},{12},{13},{14},{15},{16},{17},{18},{19},{20},{21},{22},{23},{24},{25},{26},{27},{28},{29},{30},{31},{32},{33},{34},{35},{36},{37},{38},{39},{40},{41},{42},{43},{44},{45},{46},{47},{48},{49},{50},{51},{52},{53},{54},{55},{56},{57},{58},{59},{60},{61},{62},{63},{64},{65},{66},{67},{68},{69},{70},{71}"
 %chk=6rqe_II_O.chk
 Properties for Device   0
 Minimum vector length:                              32
 Maximum vector length:                            1024
 Number of SMPs:                                    108
 Maximum number of threads per SMP:                2048
 Number of ASync Engines:                             5
 Memory:                                           9207742464
 Properties for Device   1
 Minimum vector length:                              32
 Maximum vector length:                            1024
 Number of SMPs:                                    108
 Maximum number of threads per SMP:                2048
 Number of ASync Engines:                             5
 Memory:                                           9207742464
 Properties for Device   2
 Minimum vector length:                              32
 Maximum vector length:                            1024
 Number of SMPs:                                    108
 Maximum number of threads per SMP:                2048
 Number of ASync Engines:                             5
 Memory:                                           9207742464
 Properties for Device   3
 Minimum vector length:                              32
 Maximum vector length:                            1024
 Number of SMPs:                                    108
 Maximum number of threads per SMP:                2048
 Number of ASync Engines:                             5
 Memory:                                           9207742464
   8286968217 words of memory will be used on each GPU.
 ------------------------------------------
 # polar def2tzvp apfd int=(grid=ultrafine)
 ------------------------------------------
 1/38=1,172=1/1;
 2/12=2,17=6,18=5,40=1/2;
 3/5=44,7=101,11=2,25=1,30=1,74=-44,75=-5/1,2,3;
 4//1;
 5/5=2,38=5,98=1/2;
 8/6=4,10=90,11=11/1;
 10/6=1,13=10/2;
 6/7=2,8=2,9=2,10=2,28=1/1;
 99/5=1,9=1/99;
 ---------
 6rqe_II_S
 ---------
 Symbolic Z-matrix:
 Charge =  0 Multiplicity = 1
 Fe                   -6.1126    24.95495   270.55943 
 N                    -4.46179   23.83146   270.34245 
 N                    -5.71785   25.04631   272.52226 
 N                    -7.89522   25.79311   270.86596 
 N                    -6.6114    24.61399   268.67687 
 C                    -3.92854   23.43903   269.15177 
 C                    -2.62275   22.8495   269.34081 
 C                    -2.38117   22.8774   270.67891 
 C                    -3.53799   23.49434   271.28538 
 C                    -4.71935   24.42071   273.21334 
 C                    -4.82236   24.69036   274.62334 
 C                    -5.94964   25.44947   274.78914 
 C                    -6.5132    25.62437   273.46648 
 C                    -8.26912   26.47924   271.98453 
 C                    -9.44604   27.26908   271.73833 
 C                    -9.81897   27.00684   270.44623 
 C                    -8.82451   26.0952   269.92004 
 C                    -7.81856   24.83524   268.08464 
 C                    -7.82891   24.33564   266.72831 
 C                    -6.61709   23.75483   266.52856 
 C                    -5.88558   23.90598   267.7673 
 C                    -4.58148   23.48514   267.93596 
 H                    -4.07717   23.06096   267.0819 
 C                    -3.67001   23.72585   272.63856 
 H                    -2.89628   23.3527   273.29089 
 C                    -7.64471   26.37535   273.21348 
 H                    -8.10096   26.88452   274.04809 
 C                    -8.84396   25.5743   268.64004 
 H                    -9.70838   25.77441   268.02657 
 C                    -1.19756   22.38636   271.43806 
 H                    -0.45814   21.95901   270.76568 
 H                    -1.4942    21.61873   272.15281 
 H                    -0.73011   23.20131   271.9913 
 C                    -1.77005   22.32829   268.23653 
 H                    -1.61291   23.09588   267.47905 
 H                    -2.24632   21.47253   267.75733 
 H                    -0.8004    22.01244   268.61309 
 C                    -3.91097   24.14357   275.6651 
 H                    -2.99795   24.73741   275.73533 
 H                    -3.62992   23.11823   275.42995 
 H                    -4.40407   24.15633   276.63475 
 C                    -6.53628   25.96211   276.00828 
 H                    -7.61911   25.99574   276.02785 
 C                    -5.85647   26.38498   277.06858 
 H                    -4.78082   26.41542   277.08583 
 H                    -6.35819   26.74223   277.95229 
 C                    -10.06957   28.20001   272.71744 
 H                    -9.3082    28.69067   273.32186 
 H                    -10.74228   27.66442   273.38931 
 H                    -10.6442   28.96055   272.19284 
 C                    -10.928    27.5379   269.6841 
 H                    -10.74703   27.66229   268.62312 
 C                    -12.1166   27.86409   270.18042 
 H                    -12.3655   27.71756   271.21682 
 H                    -12.89584   28.26635   269.5548 
 C                    -8.98763   24.45753   265.8009 
 H                    -9.19076   25.50588   265.58059 
 H                    -9.88267   24.02579   266.248 
 H                    -8.78866   23.9439   264.86379 
 C                    -6.08661   23.0667   265.31885 
 H                    -5.20928   23.58784   264.93504 
 H                    -6.83696   23.03639   264.53303 
 H                    -5.7963    22.04365   265.55742 
 C                    -3.39761   26.92074   270.81613 
 H                    -3.00324   27.92925   270.89051 
 H                    -2.80479   26.33686   270.11936 
 H                    -3.41707   26.43038   271.78395 
 S                    -5.09249   26.9896   270.12934 
 H                    -5.59265   27.7148   271.13895 
 
 Stoichiometry    C31H32FeN4S
 Framework group  C1[X(C31H32FeN4S)]
 Deg. of freedom   201
 Full point group                 C1      NOp   1
 Largest Abelian subgroup         C1      NOp   1
 Largest concise Abelian subgroup C1      NOp   1
                         Standard orientation:                         
 ---------------------------------------------------------------------
 Center     Atomic      Atomic             Coordinates (Angstroms)
 Number     Number       Type             X           Y           Z
 ---------------------------------------------------------------------
      1         26           0       -0.027330   -0.206125   -0.071780
      2          7           0       -1.803217   -1.129918   -0.237117
      3          7           0       -0.988904    1.542459   -0.258135
      4          7           0        1.727026    0.726953   -0.232398
      5          7           0        0.905017   -1.947087   -0.165879
      6          6           0       -2.014824   -2.464309   -0.061921
      7          6           0       -3.428506   -2.760741   -0.016975
      8          6           0       -4.072928   -1.575095   -0.186162
      9          6           0       -3.042987   -0.571115   -0.319931
     10          6           0       -2.316736    1.755167   -0.498110
     11          6           0       -2.596638    3.160516   -0.632596
     12          6           0       -1.392827    3.804666   -0.530643
     13          6           0       -0.399135    2.768923   -0.337166
     14          6           0        1.933589    2.065372   -0.065828
     15          6           0        3.328981    2.353152    0.133336
     16          6           0        3.984932    1.154597    0.030528
     17          6           0        2.959549    0.154330   -0.181567
     18          6           0        2.230641   -2.167908   -0.391442
     19          6           0        2.505534   -3.581256   -0.518730
     20          6           0        1.305965   -4.211502   -0.420986
     21          6           0        0.315719   -3.173023   -0.238242
     22          6           0       -1.027055   -3.429019   -0.044254
     23          1           0       -1.337426   -4.460488    0.014119
     24          6           0       -3.292998    0.774803   -0.487589
     25          1           0       -4.319354    1.085428   -0.603945
     26          6           0        0.944723    3.027756   -0.149203
     27          1           0        1.251469    4.061303   -0.108111
     28          6           0        3.209025   -1.194733   -0.348629
     29          1           0        4.236789   -1.511699   -0.431352
     30          6           0       -5.533899   -1.290672   -0.241370
     31          1           0       -6.109702   -2.204524   -0.119743
     32          1           0       -5.799758   -0.843719   -1.199323
     33          1           0       -5.820571   -0.595084    0.547739
     34          6           0       -3.993594   -4.125510    0.173413
     35          1           0       -3.592603   -4.583372    1.077430
     36          1           0       -3.739069   -4.765765   -0.671632
     37          1           0       -5.076688   -4.086991    0.258184
     38          6           0       -3.936427    3.739281   -0.923940
     39          1           0       -4.530645    3.825625   -0.012555
     40          1           0       -4.482534    3.110158   -1.625052
     41          1           0       -3.827039    4.731034   -1.357524
     42          6           0       -1.099764    5.217769   -0.633168
     43          1           0       -0.155227    5.466460   -1.102236
     44          6           0       -1.884889    6.197992   -0.199657
     45          1           0       -2.811669    6.006765    0.312934
     46          1           0       -1.611491    7.232779   -0.321192
     47          6           0        3.889258    3.699663    0.428438
     48          1           0        3.210354    4.269711    1.060804
     49          1           0        4.049803    4.264248   -0.491490
     50          1           0        4.844391    3.600564    0.940040
     51          6           0        5.397104    0.866289    0.154857
     52          1           0        5.639592   -0.098151    0.584909
     53          6           0        6.383278    1.674635   -0.218689
     54          1           0        6.199624    2.622610   -0.693193
     55          1           0        7.416334    1.399714   -0.085837
     56          6           0        3.863848   -4.153272   -0.731766
     57          1           0        4.502567   -3.948788    0.127918
     58          1           0        4.330482   -3.713279   -1.612708
     59          1           0        3.812568   -5.230137   -0.870735
     60          6           0        0.993267   -5.665715   -0.497246
     61          1           0        0.554120   -6.013063    0.438220
     62          1           0        1.893962   -6.243751   -0.687239
     63          1           0        0.282298   -5.862315   -1.299554
     64          6           0       -1.736019    0.164050    2.799595
     65          1           0       -1.728074    0.503518    3.830539
     66          1           0       -2.234768   -0.796962    2.725203
     67          1           0       -2.223399    0.883112    2.149282
     68         16           0       -0.012772   -0.097703    2.241976
     69          1           0        0.354014    1.180129    2.409324
 ---------------------------------------------------------------------
 Rotational constants (GHZ):           0.1114184           0.1094250           0.0600030
 Standard basis: def2TZVP (5D, 7F)
 There are  1546 symmetry adapted cartesian basis functions of A   symmetry.
 There are  1359 symmetry adapted basis functions of A   symmetry.
  1359 basis functions,  2212 primitive gaussians,  1546 cartesian basis functions
   144 alpha electrons      144 beta electrons
       nuclear repulsion energy      5043.0603671954 Hartrees.
 NAtoms=   69 NActive=   69 NUniq=   69 SFac= 1.00D+00 NAtFMM=   60 NAOKFM=T Big=T
 Integral buffers will be    131072 words long.
 Raffenetti 2 integral format.
 Two-electron integral symmetry is turned on.
 R6APFD:  NTU= -4 IXU= 1 FactS= 1.050
 Nuclear repulsion after empirical dispersion term =     5042.9278144777 Hartrees.
 One-electron integrals computed using PRISM.
   1 Symmetry operations used in ECPInt.
 ECPInt:  NShTT=  146611 NPrTT=  457451 LenC2=  115758 LenP2D=  241259.
 LDataN:  DoStor=T MaxTD1= 6 Len=  172
 Number of processors reduced to  26 by ecpmxn.
 NBasis=  1359 RedAO= T EigKep=  3.40D-06  NBF=  1359
 NBsUse=  1359 1.00D-06 EigRej= -1.00D+00 NBFU=  1359
 ExpMin= 4.20D-02 ExpMax= 3.01D+05 ExpMxC= 2.91D+03 IAcc=3 IRadAn=         5 AccDes= 0.00D+00
 Harris functional with IExCor= 3731 and IRadAn=       5 diagonalized for initial guess.
 HarFok:  IExCor= 3731 AccDes= 0.00D+00 IRadAn=         5 IDoV= 1 UseB2=F ITyADJ=14
 ICtDFT=  3500011 ScaDFX=  1.000000  1.000000  1.000000  1.000000
 FoFCou: FMM=F IPFlag=           0 FMFlag=      100000 FMFlg1=        2001
         NFxFlg=           0 DoJE=T BraDBF=F KetDBF=T FulRan=T
         wScrn=  0.000000 ICntrl=       500 IOpCl=  0 I1Cent=   200000004 NGrid=           0
         NMat0=    1 NMatS0=      1 NMatT0=    0 NMatD0=    1 NMtDS0=    0 NMtDT0=    0
 Petite list used in FoFCou.
 Requested convergence on RMS density matrix=1.00D-08 within 128 cycles.
 Requested convergence on MAX density matrix=1.00D-06.
 Requested convergence on             energy=1.00D-06.
 No special actions if energy rises.
 EnCoef did     3 forward-backward iterations
 EnCoef did   100 forward-backward iterations
 EnCoef did   100 forward-backward iterations
 EnCoef did   100 forward-backward iterations
 EnCoef did     5 forward-backward iterations
 EnCoef did     1 forward-backward iterations
 Restarting incremental Fock formation.
 SCF Done:  E(RAPFD) =  -3080.76926694     A.U. after   27 cycles
            NFock= 27  Conv=0.34D-08     -V/T= 2.0031
 DoSCS=F DFT=T ScalE2(SS,OS)=  1.000000  1.000000
 Range of M.O.s used for correlation:     1  1359
 NBasis=  1359 NAE=   144 NBE=   144 NFC=     0 NFV=     0
 NROrb=   1359 NOA=   144 NOB=   144 NVA=  1215 NVB=  1215

 **** Warning!!: The largest alpha MO coefficient is  0.51034713D+02

          Differentiating once with respect to electric field.
                with respect to dipole field.
          Electric field/nuclear overlap derivatives assumed to be zero.
          There are     3 degrees of freedom in the 1st order CPHF.  IDoFFX=0 NUNeed=     3.
      3 vectors produced by pass  0 Test12= 5.83D-12 3.33D-08 XBig12= 1.83D+03 2.89D+01.
 AX will form     3 AO Fock derivatives at one time.
      3 vectors produced by pass  1 Test12= 5.83D-12 3.33D-08 XBig12= 1.13D+03 8.05D+00.
      3 vectors produced by pass  2 Test12= 5.83D-12 3.33D-08 XBig12= 5.18D+02 4.52D+00.
      3 vectors produced by pass  3 Test12= 5.83D-12 3.33D-08 XBig12= 2.53D+02 3.14D+00.
      3 vectors produced by pass  4 Test12= 5.83D-12 3.33D-08 XBig12= 1.64D+02 3.51D+00.
      3 vectors produced by pass  5 Test12= 5.83D-12 3.33D-08 XBig12= 8.94D+01 3.41D+00.
      3 vectors produced by pass  6 Test12= 5.83D-12 3.33D-08 XBig12= 7.16D+01 2.94D+00.
      3 vectors produced by pass  7 Test12= 5.83D-12 3.33D-08 XBig12= 3.31D+01 1.42D+00.
      3 vectors produced by pass  8 Test12= 5.83D-12 3.33D-08 XBig12= 9.92D+00 7.33D-01.
      3 vectors produced by pass  9 Test12= 5.83D-12 3.33D-08 XBig12= 4.28D+00 4.51D-01.
      3 vectors produced by pass 10 Test12= 5.83D-12 3.33D-08 XBig12= 1.70D+00 2.30D-01.
      3 vectors produced by pass 11 Test12= 5.83D-12 3.33D-08 XBig12= 6.36D-01 2.28D-01.
      3 vectors produced by pass 12 Test12= 5.83D-12 3.33D-08 XBig12= 2.65D-01 1.82D-01.
      3 vectors produced by pass 13 Test12= 5.83D-12 3.33D-08 XBig12= 1.12D-01 1.11D-01.
      3 vectors produced by pass 14 Test12= 5.83D-12 3.33D-08 XBig12= 3.27D-02 5.02D-02.
      3 vectors produced by pass 15 Test12= 5.83D-12 3.33D-08 XBig12= 1.35D-02 2.21D-02.
      3 vectors produced by pass 16 Test12= 5.83D-12 3.33D-08 XBig12= 3.35D-03 1.00D-02.
      3 vectors produced by pass 17 Test12= 5.83D-12 3.33D-08 XBig12= 6.38D-04 3.89D-03.
      3 vectors produced by pass 18 Test12= 5.83D-12 3.33D-08 XBig12= 1.08D-04 1.51D-03.
      3 vectors produced by pass 19 Test12= 5.83D-12 3.33D-08 XBig12= 2.09D-05 8.15D-04.
      3 vectors produced by pass 20 Test12= 5.83D-12 3.33D-08 XBig12= 5.23D-06 4.02D-04.
      3 vectors produced by pass 21 Test12= 5.83D-12 3.33D-08 XBig12= 8.43D-07 1.92D-04.
      3 vectors produced by pass 22 Test12= 5.83D-12 3.33D-08 XBig12= 1.48D-07 6.65D-05.
      3 vectors produced by pass 23 Test12= 5.83D-12 3.33D-08 XBig12= 3.23D-08 3.17D-05.
      3 vectors produced by pass 24 Test12= 5.83D-12 3.33D-08 XBig12= 4.86D-09 1.29D-05.
      3 vectors produced by pass 25 Test12= 5.83D-12 3.33D-08 XBig12= 6.49D-10 4.66D-06.
      3 vectors produced by pass 26 Test12= 5.83D-12 3.33D-08 XBig12= 1.45D-10 1.94D-06.
      3 vectors produced by pass 27 Test12= 5.83D-12 3.33D-08 XBig12= 1.93D-11 6.93D-07.
      3 vectors produced by pass 28 Test12= 5.83D-12 3.33D-08 XBig12= 3.14D-12 3.00D-07.
      3 vectors produced by pass 29 Test12= 5.83D-12 3.33D-08 XBig12= 5.05D-13 1.38D-07.
      1 vectors produced by pass 30 Test12= 5.83D-12 3.33D-08 XBig12= 5.42D-14 4.97D-08.
 InvSVY:  IOpt=1 It=  1 EMax= 3.55D-14
 Solved reduced A of dimension    91 with     3 vectors.
 Isotropic polarizability for W=    0.000000      544.04 Bohr**3.
 End of Minotr F.D. properties file   721 does not exist.
 End of Minotr F.D. properties file   722 does not exist.
 End of Minotr F.D. properties file   788 does not exist.

 **********************************************************************

            Population analysis using the SCF Density.

 **********************************************************************

 Orbital symmetries:
       Occupied  (A) (A) (A) (A) (A) (A) (A) (A) (A) (A) (A) (A)
                 (A) (A) (A) (A) (A) (A) (A) (A) (A) (A) (A) (A)
                 (A) (A) (A) (A) (A) (A) (A) (A) (A) (A) (A) (A)
                 (A) (A) (A) (A) (A) (A) (A) (A) (A) (A) (A) (A)
                 (A) (A) (A) (A) (A) (A) (A) (A) (A) (A) (A) (A)
                 (A) (A) (A) (A) (A) (A) (A) (A) (A) (A) (A) (A)
                 (A) (A) (A) (A) (A) (A) (A) (A) (A) (A) (A) (A)
                 (A) (A) (A) (A) (A) (A) (A) (A) (A) (A) (A) (A)
                 (A) (A) (A) (A) (A) (A) (A) (A) (A) (A) (A) (A)
                 (A) (A) (A) (A) (A) (A) (A) (A) (A) (A) (A) (A)
                 (A) (A) (A) (A) (A) (A) (A) (A) (A) (A) (A) (A)
                 (A) (A) (A) (A) (A) (A) (A) (A) (A) (A) (A) (A)
       Virtual   (A) (A) (A) (A) (A) (A) (A) (A) (A) (A) (A) (A)
                 (A) (A) (A) (A) (A) (A) (A) (A) (A) (A) (A) (A)
                 (A) (A) (A) (A) (A) (A) (A) (A) (A) (A) (A) (A)
                 (A) (A) (A) (A) (A) (A) (A) (A) (A) (A) (A) (A)
                 (A) (A) (A) (A) (A) (A) (A) (A) (A) (A) (A) (A)
                 (A) (A) (A) (A) (A) (A) (A) (A) (A) (A) (A) (A)
                 (A) (A) (A) (A) (A) (A) (A) (A) (A) (A) (A) (A)
                 (A) (A) (A) (A) (A) (A) (A) (A) (A) (A) (A) (A)
                 (A) (A) (A) (A) (A) (A) (A) (A) (A) (A) (A) (A)
                 (A) (A) (A) (A) (A) (A) (A) (A) (A) (A) (A) (A)
                 (A) (A) (A) (A) (A) (A) (A) (A) (A) (A) (A) (A)
                 (A) (A) (A) (A) (A) (A) (A) (A) (A) (A) (A) (A)
                 (A) (A) (A) (A) (A) (A) (A) (A) (A) (A) (A) (A)
                 (A) (A) (A) (A) (A) (A) (A) (A) (A) (A) (A) (A)
                 (A) (A) (A) (A) (A) (A) (A) (A) (A) (A) (A) (A)
                 (A) (A) (A) (A) (A) (A) (A) (A) (A) (A) (A) (A)
                 (A) (A) (A) (A) (A) (A) (A) (A) (A) (A) (A) (A)
                 (A) (A) (A) (A) (A) (A) (A) (A) (A) (A) (A) (A)
                 (A) (A) (A) (A) (A) (A) (A) (A) (A) (A) (A) (A)
                 (A) (A) (A) (A) (A) (A) (A) (A) (A) (A) (A) (A)
                 (A) (A) (A) (A) (A) (A) (A) (A) (A) (A) (A) (A)
                 (A) (A) (A) (A) (A) (A) (A) (A) (A) (A) (A) (A)
                 (A) (A) (A) (A) (A) (A) (A) (A) (A) (A) (A) (A)
                 (A) (A) (A) (A) (A) (A) (A) (A) (A) (A) (A) (A)
                 (A) (A) (A) (A) (A) (A) (A) (A) (A) (A) (A) (A)
                 (A) (A) (A) (A) (A) (A) (A) (A) (A) (A) (A) (A)
                 (A) (A) (A) (A) (A) (A) (A) (A) (A) (A) (A) (A)
                 (A) (A) (A) (A) (A) (A) (A) (A) (A) (A) (A) (A)
                 (A) (A) (A) (A) (A) (A) (A) (A) (A) (A) (A) (A)
                 (A) (A) (A) (A) (A) (A) (A) (A) (A) (A) (A) (A)
                 (A) (A) (A) (A) (A) (A) (A) (A) (A) (A) (A) (A)
                 (A) (A) (A) (A) (A) (A) (A) (A) (A) (A) (A) (A)
                 (A) (A) (A) (A) (A) (A) (A) (A) (A) (A) (A) (A)
                 (A) (A) (A) (A) (A) (A) (A) (A) (A) (A) (A) (A)
                 (A) (A) (A) (A) (A) (A) (A) (A) (A) (A) (A) (A)
                 (A) (A) (A) (A) (A) (A) (A) (A) (A) (A) (A) (A)
                 (A) (A) (A) (A) (A) (A) (A) (A) (A) (A) (A) (A)
                 (A) (A) (A) (A) (A) (A) (A) (A) (A) (A) (A) (A)
                 (A) (A) (A) (A) (A) (A) (A) (A) (A) (A) (A) (A)
                 (A) (A) (A) (A) (A) (A) (A) (A) (A) (A) (A) (A)
                 (A) (A) (A) (A) (A) (A) (A) (A) (A) (A) (A) (A)
                 (A) (A) (A) (A) (A) (A) (A) (A) (A) (A) (A) (A)
                 (A) (A) (A) (A) (A) (A) (A) (A) (A) (A) (A) (A)
                 (A) (A) (A) (A) (A) (A) (A) (A) (A) (A) (A) (A)
                 (A) (A) (A) (A) (A) (A) (A) (A) (A) (A) (A) (A)
                 (A) (A) (A) (A) (A) (A) (A) (A) (A) (A) (A) (A)
                 (A) (A) (A) (A) (A) (A) (A) (A) (A) (A) (A) (A)
                 (A) (A) (A) (A) (A) (A) (A) (A) (A) (A) (A) (A)
                 (A) (A) (A) (A) (A) (A) (A) (A) (A) (A) (A) (A)
                 (A) (A) (A) (A) (A) (A) (A) (A) (A) (A) (A) (A)
                 (A) (A) (A) (A) (A) (A) (A) (A) (A) (A) (A) (A)
                 (A) (A) (A) (A) (A) (A) (A) (A) (A) (A) (A) (A)
                 (A) (A) (A) (A) (A) (A) (A) (A) (A) (A) (A) (A)
                 (A) (A) (A) (A) (A) (A) (A) (A) (A) (A) (A) (A)
                 (A) (A) (A) (A) (A) (A) (A) (A) (A) (A) (A) (A)
                 (A) (A) (A) (A) (A) (A) (A) (A) (A) (A) (A) (A)
                 (A) (A) (A) (A) (A) (A) (A) (A) (A) (A) (A) (A)
                 (A) (A) (A) (A) (A) (A) (A) (A) (A) (A) (A) (A)
                 (A) (A) (A) (A) (A) (A) (A) (A) (A) (A) (A) (A)
                 (A) (A) (A) (A) (A) (A) (A) (A) (A) (A) (A) (A)
                 (A) (A) (A) (A) (A) (A) (A) (A) (A) (A) (A) (A)
                 (A) (A) (A) (A) (A) (A) (A) (A) (A) (A) (A) (A)
                 (A) (A) (A) (A) (A) (A) (A) (A) (A) (A) (A) (A)
                 (A) (A) (A) (A) (A) (A) (A) (A) (A) (A) (A) (A)
                 (A) (A) (A) (A) (A) (A) (A) (A) (A) (A) (A) (A)
                 (A) (A) (A) (A) (A) (A) (A) (A) (A) (A) (A) (A)
                 (A) (A) (A) (A) (A) (A) (A) (A) (A) (A) (A) (A)
                 (A) (A) (A) (A) (A) (A) (A) (A) (A) (A) (A) (A)
                 (A) (A) (A) (A) (A) (A) (A) (A) (A) (A) (A) (A)
                 (A) (A) (A) (A) (A) (A) (A) (A) (A) (A) (A) (A)
                 (A) (A) (A) (A) (A) (A) (A) (A) (A) (A) (A) (A)
                 (A) (A) (A) (A) (A) (A) (A) (A) (A) (A) (A) (A)
                 (A) (A) (A) (A) (A) (A) (A) (A) (A) (A) (A) (A)
                 (A) (A) (A) (A) (A) (A) (A) (A) (A) (A) (A) (A)
                 (A) (A) (A) (A) (A) (A) (A) (A) (A) (A) (A) (A)
                 (A) (A) (A) (A) (A) (A) (A) (A) (A) (A) (A) (A)
                 (A) (A) (A) (A) (A) (A) (A) (A) (A) (A) (A) (A)
                 (A) (A) (A) (A) (A) (A) (A) (A) (A) (A) (A) (A)
                 (A) (A) (A) (A) (A) (A) (A) (A) (A) (A) (A) (A)
                 (A) (A) (A) (A) (A) (A) (A) (A) (A) (A) (A) (A)
                 (A) (A) (A) (A) (A) (A) (A) (A) (A) (A) (A) (A)
                 (A) (A) (A) (A) (A) (A) (A) (A) (A) (A) (A) (A)
                 (A) (A) (A) (A) (A) (A) (A) (A) (A) (A) (A) (A)
                 (A) (A) (A) (A) (A) (A) (A) (A) (A) (A) (A) (A)
                 (A) (A) (A) (A) (A) (A) (A) (A) (A) (A) (A) (A)
                 (A) (A) (A) (A) (A) (A) (A) (A) (A) (A) (A) (A)
                 (A) (A) (A) (A) (A) (A) (A) (A) (A) (A) (A) (A)
                 (A) (A) (A) (A) (A) (A) (A) (A) (A) (A) (A) (A)
                 (A) (A) (A) (A) (A) (A) (A) (A) (A) (A) (A) (A)
                 (A) (A) (A) (A) (A) (A) (A) (A) (A) (A) (A) (A)
                 (A) (A) (A) (A) (A) (A) (A) (A) (A) (A) (A) (A)
                 (A) (A) (A) (A) (A) (A) (A) (A) (A) (A) (A) (A)
                 (A) (A) (A) (A) (A) (A) (A) (A) (A) (A) (A) (A)
                 (A) (A) (A) (A) (A) (A) (A) (A) (A) (A) (A) (A)
                 (A) (A) (A) (A) (A) (A) (A) (A) (A) (A) (A) (A)
                 (A) (A) (A) (A) (A) (A) (A) (A) (A) (A) (A) (A)
                 (A) (A) (A) (A) (A) (A) (A) (A) (A) (A) (A) (A)
                 (A) (A) (A) (A) (A) (A) (A) (A) (A) (A) (A) (A)
                 (A) (A) (A) (A) (A) (A) (A) (A) (A) (A) (A) (A)
                 (A) (A) (A) (A) (A) (A) (A) (A) (A) (A) (A) (A)
                 (A) (A) (A) (A) (A) (A) (A) (A) (A) (A) (A) (A)
                 (A) (A) (A)
 The electronic state is 1-A.
 Alpha  occ. eigenvalues -- -256.19617 -88.97526 -30.04509 -25.88718 -25.88339
 Alpha  occ. eigenvalues --  -25.88167 -14.34842 -14.34683 -14.34573 -14.34567
 Alpha  occ. eigenvalues --  -10.22714 -10.22013 -10.21930 -10.21906 -10.21816
 Alpha  occ. eigenvalues --  -10.21793 -10.21765 -10.21684 -10.21634 -10.20227
 Alpha  occ. eigenvalues --  -10.20122 -10.19850 -10.19837 -10.19607 -10.19532
 Alpha  occ. eigenvalues --  -10.19446 -10.19393 -10.19390 -10.19389 -10.19369
 Alpha  occ. eigenvalues --  -10.19355 -10.19315 -10.19237 -10.19185 -10.19176
 Alpha  occ. eigenvalues --  -10.19099 -10.19038 -10.19036 -10.18997 -10.18836
 Alpha  occ. eigenvalues --  -10.18769  -8.00242  -5.94803  -5.94528  -5.94048
 Alpha  occ. eigenvalues --   -3.42298  -2.19184  -2.18173  -2.17914  -0.97960
 Alpha  occ. eigenvalues --   -0.97008  -0.96920  -0.95963  -0.83224  -0.82694
 Alpha  occ. eigenvalues --   -0.82371  -0.81608  -0.81216  -0.81119  -0.80487
 Alpha  occ. eigenvalues --   -0.80466  -0.77499  -0.76469  -0.75052  -0.74899
 Alpha  occ. eigenvalues --   -0.73841  -0.71783  -0.70909  -0.69040  -0.68686
 Alpha  occ. eigenvalues --   -0.68608  -0.67221  -0.65001  -0.64936  -0.61366
 Alpha  occ. eigenvalues --   -0.60753  -0.58714  -0.57536  -0.55301  -0.54514
 Alpha  occ. eigenvalues --   -0.54119  -0.53440  -0.51934  -0.51885  -0.51377
 Alpha  occ. eigenvalues --   -0.49578  -0.48637  -0.48160  -0.47412  -0.46164
 Alpha  occ. eigenvalues --   -0.45642  -0.45514  -0.45273  -0.44940  -0.44526
 Alpha  occ. eigenvalues --   -0.44233  -0.44156  -0.43948  -0.43686  -0.43456
 Alpha  occ. eigenvalues --   -0.43091  -0.42592  -0.42151  -0.41857  -0.41442
 Alpha  occ. eigenvalues --   -0.40952  -0.40877  -0.40811  -0.40379  -0.40190
 Alpha  occ. eigenvalues --   -0.40153  -0.39877  -0.39429  -0.39290  -0.38768
 Alpha  occ. eigenvalues --   -0.38401  -0.38052  -0.37807  -0.37295  -0.37034
 Alpha  occ. eigenvalues --   -0.36868  -0.36171  -0.35697  -0.35184  -0.34855
 Alpha  occ. eigenvalues --   -0.34502  -0.32743  -0.32363  -0.31164  -0.31062
 Alpha  occ. eigenvalues --   -0.30535  -0.30103  -0.29174  -0.27665  -0.27420
 Alpha  occ. eigenvalues --   -0.25298  -0.25106  -0.23784  -0.23009  -0.21178
 Alpha  occ. eigenvalues --   -0.19767  -0.19753  -0.19568  -0.18681
 Alpha virt. eigenvalues --   -0.07471  -0.07435  -0.04108  -0.02763  -0.00105
 Alpha virt. eigenvalues --    0.00628   0.01482   0.03336   0.03464   0.03742
 Alpha virt. eigenvalues --    0.04630   0.04923   0.05448   0.05727   0.06513
 Alpha virt. eigenvalues --    0.07094   0.07143   0.07455   0.07954   0.08045
 Alpha virt. eigenvalues --    0.08528   0.09353   0.09634   0.09821   0.09978
 Alpha virt. eigenvalues --    0.10489   0.10522   0.10882   0.11175   0.11366
 Alpha virt. eigenvalues --    0.11599   0.11733   0.12410   0.12596   0.12648
 Alpha virt. eigenvalues --    0.13007   0.13175   0.13376   0.13597   0.14172
 Alpha virt. eigenvalues --    0.14256   0.14400   0.14625   0.14893   0.15178
 Alpha virt. eigenvalues --    0.15457   0.15464   0.15634   0.16066   0.16410
 Alpha virt. eigenvalues --    0.16543   0.16606   0.16895   0.17004   0.17425
 Alpha virt. eigenvalues --    0.17828   0.18145   0.18511   0.19133   0.19188
 Alpha virt. eigenvalues --    0.19431   0.19719   0.19839   0.19959   0.20361
 Alpha virt. eigenvalues --    0.20769   0.21035   0.21587   0.21704   0.21832
 Alpha virt. eigenvalues --    0.22213   0.22458   0.22541   0.23359   0.23512
 Alpha virt. eigenvalues --    0.24121   0.24378   0.24453   0.25031   0.25198
 Alpha virt. eigenvalues --    0.25453   0.25602   0.25992   0.26536   0.26707
 Alpha virt. eigenvalues --    0.26765   0.27045   0.27689   0.27957   0.28300
 Alpha virt. eigenvalues --    0.28496   0.28738   0.28928   0.29112   0.29161
 Alpha virt. eigenvalues --    0.29600   0.29677   0.30123   0.30419   0.30750
 Alpha virt. eigenvalues --    0.30888   0.31553   0.31816   0.32170   0.32280
 Alpha virt. eigenvalues --    0.32460   0.32834   0.33145   0.33380   0.33689
 Alpha virt. eigenvalues --    0.33927   0.34510   0.35291   0.35536   0.35667
 Alpha virt. eigenvalues --    0.36034   0.36196   0.36823   0.36976   0.37442
 Alpha virt. eigenvalues --    0.37633   0.37809   0.37994   0.38618   0.38805
 Alpha virt. eigenvalues --    0.38910   0.39228   0.39358   0.39696   0.39905
 Alpha virt. eigenvalues --    0.40085   0.40345   0.40518   0.40677   0.40959
 Alpha virt. eigenvalues --    0.41452   0.41559   0.41614   0.41903   0.41971
 Alpha virt. eigenvalues --    0.42297   0.42593   0.43094   0.43290   0.43395
 Alpha virt. eigenvalues --    0.43689   0.43745   0.43997   0.44340   0.44652
 Alpha virt. eigenvalues --    0.44712   0.45059   0.45534   0.45846   0.46055
 Alpha virt. eigenvalues --    0.46192   0.46416   0.46577   0.46790   0.46835
 Alpha virt. eigenvalues --    0.47451   0.47549   0.47685   0.47936   0.48228
 Alpha virt. eigenvalues --    0.48580   0.48686   0.48892   0.49235   0.49366
 Alpha virt. eigenvalues --    0.49681   0.50174   0.50333   0.50599   0.50663
 Alpha virt. eigenvalues --    0.51116   0.51312   0.51416   0.51637   0.51829
 Alpha virt. eigenvalues --    0.51899   0.52454   0.52582   0.52667   0.53175
 Alpha virt. eigenvalues --    0.53482   0.53651   0.53817   0.53933   0.54384
 Alpha virt. eigenvalues --    0.54661   0.55095   0.55438   0.55902   0.56003
 Alpha virt. eigenvalues --    0.56466   0.56846   0.57109   0.57178   0.57739
 Alpha virt. eigenvalues --    0.58205   0.58759   0.58813   0.59064   0.59259
 Alpha virt. eigenvalues --    0.59775   0.60096   0.60751   0.61186   0.61735
 Alpha virt. eigenvalues --    0.62022   0.62262   0.62529   0.62671   0.62901
 Alpha virt. eigenvalues --    0.63054   0.64002   0.64224   0.64501   0.65112
 Alpha virt. eigenvalues --    0.65291   0.65521   0.65780   0.66039   0.66225
 Alpha virt. eigenvalues --    0.66420   0.67125   0.67335   0.67797   0.67920
 Alpha virt. eigenvalues --    0.68448   0.69145   0.69236   0.69741   0.69987
 Alpha virt. eigenvalues --    0.70092   0.70467   0.70788   0.71468   0.71572
 Alpha virt. eigenvalues --    0.72045   0.72397   0.72685   0.72771   0.72950
 Alpha virt. eigenvalues --    0.73068   0.73413   0.73815   0.74269   0.74616
 Alpha virt. eigenvalues --    0.74896   0.75052   0.75792   0.75855   0.76274
 Alpha virt. eigenvalues --    0.76623   0.77184   0.77568   0.77850   0.78154
 Alpha virt. eigenvalues --    0.78649   0.78887   0.79096   0.79579   0.79778
 Alpha virt. eigenvalues --    0.80240   0.80584   0.80866   0.81357   0.81557
 Alpha virt. eigenvalues --    0.81700   0.82859   0.83625   0.83830   0.84685
 Alpha virt. eigenvalues --    0.84794   0.85332   0.85624   0.86137   0.86338
 Alpha virt. eigenvalues --    0.86906   0.87246   0.87935   0.88289   0.88457
 Alpha virt. eigenvalues --    0.89022   0.89517   0.89955   0.90221   0.90742
 Alpha virt. eigenvalues --    0.90892   0.91634   0.92048   0.92215   0.92541
 Alpha virt. eigenvalues --    0.92815   0.93052   0.93983   0.94712   0.94783
 Alpha virt. eigenvalues --    0.95026   0.95762   0.96008   0.96457   0.96614
 Alpha virt. eigenvalues --    0.96950   0.97444   0.97967   0.98371   0.98569
 Alpha virt. eigenvalues --    0.98982   0.99371   0.99658   0.99905   1.00494
 Alpha virt. eigenvalues --    1.00920   1.01172   1.01555   1.01751   1.02038
 Alpha virt. eigenvalues --    1.02492   1.02800   1.02897   1.03196   1.03218
 Alpha virt. eigenvalues --    1.03995   1.04344   1.04751   1.05163   1.05927
 Alpha virt. eigenvalues --    1.06158   1.06523   1.06811   1.07104   1.07333
 Alpha virt. eigenvalues --    1.08104   1.08638   1.09287   1.09459   1.09840
 Alpha virt. eigenvalues --    1.10124   1.10609   1.11207   1.11932   1.12495
 Alpha virt. eigenvalues --    1.13475   1.13890   1.14537   1.14981   1.15260
 Alpha virt. eigenvalues --    1.16002   1.16531   1.17256   1.17509   1.17732
 Alpha virt. eigenvalues --    1.17846   1.18386   1.19185   1.19501   1.19907
 Alpha virt. eigenvalues --    1.20371   1.20480   1.21257   1.21911   1.22207
 Alpha virt. eigenvalues --    1.22727   1.23626   1.24414   1.24804   1.25220
 Alpha virt. eigenvalues --    1.26058   1.26168   1.26668   1.26742   1.27323
 Alpha virt. eigenvalues --    1.27490   1.27808   1.28218   1.28481   1.28696
 Alpha virt. eigenvalues --    1.29259   1.29498   1.30116   1.30381   1.30971
 Alpha virt. eigenvalues --    1.31408   1.31725   1.33253   1.33452   1.34602
 Alpha virt. eigenvalues --    1.35179   1.36105   1.36956   1.37065   1.37661
 Alpha virt. eigenvalues --    1.38184   1.39207   1.40272   1.40673   1.41346
 Alpha virt. eigenvalues --    1.41677   1.41951   1.42346   1.42844   1.43390
 Alpha virt. eigenvalues --    1.44354   1.44822   1.45025   1.45728   1.46358
 Alpha virt. eigenvalues --    1.46554   1.47158   1.47362   1.48021   1.48137
 Alpha virt. eigenvalues --    1.48526   1.48695   1.49221   1.49829   1.50089
 Alpha virt. eigenvalues --    1.50275   1.50408   1.50884   1.51141   1.51601
 Alpha virt. eigenvalues --    1.51896   1.52430   1.52705   1.52814   1.53047
 Alpha virt. eigenvalues --    1.53403   1.54114   1.54269   1.54514   1.54968
 Alpha virt. eigenvalues --    1.55102   1.55249   1.55305   1.55687   1.56101
 Alpha virt. eigenvalues --    1.56295   1.56547   1.56571   1.57082   1.57236
 Alpha virt. eigenvalues --    1.57382   1.57646   1.58122   1.58573   1.59136
 Alpha virt. eigenvalues --    1.59267   1.59424   1.59838   1.60686   1.61046
 Alpha virt. eigenvalues --    1.61428   1.61722   1.61977   1.62301   1.62686
 Alpha virt. eigenvalues --    1.62962   1.63653   1.63714   1.64062   1.64383
 Alpha virt. eigenvalues --    1.64484   1.64752   1.65081   1.65499   1.65783
 Alpha virt. eigenvalues --    1.65994   1.66599   1.66700   1.67090   1.67328
 Alpha virt. eigenvalues --    1.67742   1.68227   1.68475   1.68938   1.69442
 Alpha virt. eigenvalues --    1.69510   1.69787   1.70387   1.70613   1.71208
 Alpha virt. eigenvalues --    1.71775   1.72316   1.72416   1.72637   1.72914
 Alpha virt. eigenvalues --    1.73576   1.74540   1.75235   1.75882   1.76124
 Alpha virt. eigenvalues --    1.76786   1.77201   1.77625   1.78313   1.79267
 Alpha virt. eigenvalues --    1.79540   1.80158   1.80471   1.80718   1.81497
 Alpha virt. eigenvalues --    1.81864   1.82126   1.82780   1.83506   1.83665
 Alpha virt. eigenvalues --    1.84030   1.84621   1.84695   1.85682   1.86340
 Alpha virt. eigenvalues --    1.86785   1.86976   1.87360   1.87718   1.88006
 Alpha virt. eigenvalues --    1.88479   1.89610   1.89651   1.90014   1.90904
 Alpha virt. eigenvalues --    1.91410   1.92263   1.93431   1.93936   1.94007
 Alpha virt. eigenvalues --    1.94558   1.95222   1.95611   1.95834   1.96037
 Alpha virt. eigenvalues --    1.96880   1.97247   1.97993   1.98447   1.98934
 Alpha virt. eigenvalues --    1.99147   1.99682   2.00019   2.00316   2.01010
 Alpha virt. eigenvalues --    2.01355   2.01863   2.02308   2.02671   2.02928
 Alpha virt. eigenvalues --    2.03930   2.04657   2.05576   2.06209   2.06927
 Alpha virt. eigenvalues --    2.07187   2.07959   2.08144   2.08754   2.09063
 Alpha virt. eigenvalues --    2.09919   2.10248   2.10422   2.10896   2.11504
 Alpha virt. eigenvalues --    2.12023   2.12190   2.13098   2.13554   2.13923
 Alpha virt. eigenvalues --    2.14754   2.15056   2.15404   2.15878   2.16801
 Alpha virt. eigenvalues --    2.17411   2.18256   2.19099   2.19436   2.19602
 Alpha virt. eigenvalues --    2.20170   2.20630   2.21223   2.21761   2.22319
 Alpha virt. eigenvalues --    2.23094   2.23263   2.23970   2.24328   2.24817
 Alpha virt. eigenvalues --    2.25822   2.26067   2.26401   2.26848   2.27338
 Alpha virt. eigenvalues --    2.27526   2.28306   2.28762   2.29263   2.29818
 Alpha virt. eigenvalues --    2.30310   2.30452   2.30614   2.31455   2.32001
 Alpha virt. eigenvalues --    2.32610   2.33147   2.33983   2.34159   2.34990
 Alpha virt. eigenvalues --    2.35375   2.35539   2.36017   2.36406   2.36735
 Alpha virt. eigenvalues --    2.36784   2.37083   2.37699   2.38385   2.38536
 Alpha virt. eigenvalues --    2.38981   2.39385   2.39666   2.40495   2.40735
 Alpha virt. eigenvalues --    2.41085   2.41244   2.42049   2.42586   2.43777
 Alpha virt. eigenvalues --    2.44590   2.44708   2.44881   2.45061   2.45514
 Alpha virt. eigenvalues --    2.46059   2.46489   2.47325   2.47415   2.48327
 Alpha virt. eigenvalues --    2.48535   2.48696   2.49449   2.50283   2.51201
 Alpha virt. eigenvalues --    2.52011   2.52219   2.52623   2.52947   2.53238
 Alpha virt. eigenvalues --    2.53706   2.54399   2.54787   2.55221   2.55662
 Alpha virt. eigenvalues --    2.55891   2.56022   2.56579   2.56951   2.57450
 Alpha virt. eigenvalues --    2.57672   2.58166   2.58548   2.59118   2.59328
 Alpha virt. eigenvalues --    2.59732   2.59891   2.60679   2.60921   2.61062
 Alpha virt. eigenvalues --    2.61708   2.61879   2.62133   2.63415   2.63808
 Alpha virt. eigenvalues --    2.64515   2.64606   2.65107   2.65428   2.65959
 Alpha virt. eigenvalues --    2.66324   2.66833   2.67244   2.67949   2.68234
 Alpha virt. eigenvalues --    2.68951   2.69201   2.69657   2.70022   2.70217
 Alpha virt. eigenvalues --    2.70576   2.71272   2.72013   2.72209   2.72983
 Alpha virt. eigenvalues --    2.73604   2.74064   2.74360   2.74516   2.75505
 Alpha virt. eigenvalues --    2.75971   2.76942   2.77290   2.77884   2.78066
 Alpha virt. eigenvalues --    2.78452   2.79006   2.79558   2.80419   2.80749
 Alpha virt. eigenvalues --    2.81445   2.81616   2.82091   2.82366   2.82703
 Alpha virt. eigenvalues --    2.83487   2.83527   2.83752   2.84188   2.84508
 Alpha virt. eigenvalues --    2.85185   2.85558   2.85991   2.87011   2.87326
 Alpha virt. eigenvalues --    2.87576   2.87966   2.88148   2.89146   2.89355
 Alpha virt. eigenvalues --    2.89897   2.90123   2.90309   2.91445   2.91845
 Alpha virt. eigenvalues --    2.92147   2.92761   2.92888   2.93341   2.93635
 Alpha virt. eigenvalues --    2.94229   2.94780   2.95407   2.95751   2.95951
 Alpha virt. eigenvalues --    2.96268   2.96667   2.96923   2.97564   2.98114
 Alpha virt. eigenvalues --    2.98482   2.99168   2.99212   2.99931   3.00598
 Alpha virt. eigenvalues --    3.00756   3.02208   3.02594   3.02952   3.03124
 Alpha virt. eigenvalues --    3.03889   3.04338   3.04750   3.04897   3.05489
 Alpha virt. eigenvalues --    3.05821   3.06297   3.06634   3.07150   3.07333
 Alpha virt. eigenvalues --    3.07553   3.08166   3.08781   3.09097   3.09197
 Alpha virt. eigenvalues --    3.09876   3.10216   3.10469   3.10878   3.11129
 Alpha virt. eigenvalues --    3.11826   3.12052   3.12396   3.12527   3.12843
 Alpha virt. eigenvalues --    3.13236   3.14079   3.14297   3.14567   3.14744
 Alpha virt. eigenvalues --    3.15047   3.15736   3.16334   3.16641   3.16817
 Alpha virt. eigenvalues --    3.17064   3.17356   3.17891   3.18455   3.19145
 Alpha virt. eigenvalues --    3.19386   3.19597   3.19716   3.19822   3.20231
 Alpha virt. eigenvalues --    3.20761   3.20822   3.21380   3.21765   3.21804
 Alpha virt. eigenvalues --    3.22266   3.22630   3.22649   3.23510   3.23849
 Alpha virt. eigenvalues --    3.24020   3.24420   3.24890   3.25203   3.25414
 Alpha virt. eigenvalues --    3.25854   3.25951   3.26213   3.26786   3.26863
 Alpha virt. eigenvalues --    3.27281   3.27682   3.27996   3.28218   3.28827
 Alpha virt. eigenvalues --    3.29141   3.29545   3.29774   3.30059   3.30366
 Alpha virt. eigenvalues --    3.30605   3.30669   3.31282   3.31666   3.32179
 Alpha virt. eigenvalues --    3.32362   3.32830   3.33186   3.33261   3.33585
 Alpha virt. eigenvalues --    3.33906   3.34201   3.34799   3.34990   3.35085
 Alpha virt. eigenvalues --    3.35313   3.35661   3.35745   3.36390   3.36585
 Alpha virt. eigenvalues --    3.36777   3.36902   3.37282   3.37586   3.37950
 Alpha virt. eigenvalues --    3.38309   3.38662   3.39061   3.39700   3.39740
 Alpha virt. eigenvalues --    3.40026   3.40522   3.41128   3.41423   3.41762
 Alpha virt. eigenvalues --    3.42189   3.42547   3.42668   3.43086   3.43387
 Alpha virt. eigenvalues --    3.44199   3.44424   3.44757   3.45045   3.45395
 Alpha virt. eigenvalues --    3.45992   3.46499   3.47058   3.47579   3.48321
 Alpha virt. eigenvalues --    3.48530   3.48904   3.49840   3.50026   3.50724
 Alpha virt. eigenvalues --    3.51066   3.51736   3.52237   3.53124   3.54224
 Alpha virt. eigenvalues --    3.54656   3.55180   3.55781   3.56132   3.56784
 Alpha virt. eigenvalues --    3.57076   3.57760   3.58481   3.58640   3.59032
 Alpha virt. eigenvalues --    3.59635   3.60007   3.60525   3.60644   3.61154
 Alpha virt. eigenvalues --    3.61297   3.62063   3.62875   3.63430   3.64500
 Alpha virt. eigenvalues --    3.64898   3.65492   3.66120   3.66231   3.67252
 Alpha virt. eigenvalues --    3.67756   3.68084   3.68363   3.68853   3.70010
 Alpha virt. eigenvalues --    3.70221   3.70751   3.70955   3.71075   3.71630
 Alpha virt. eigenvalues --    3.71650   3.72265   3.72929   3.73369   3.73724
 Alpha virt. eigenvalues --    3.74095   3.74522   3.74917   3.75116   3.75311
 Alpha virt. eigenvalues --    3.76642   3.77516   3.78282   3.78590   3.79311
 Alpha virt. eigenvalues --    3.80073   3.80498   3.81609   3.81868   3.82125
 Alpha virt. eigenvalues --    3.83407   3.84143   3.84429   3.84788   3.84979
 Alpha virt. eigenvalues --    3.86679   3.87192   3.87438   3.87984   3.88239
 Alpha virt. eigenvalues --    3.89005   3.89572   3.90285   3.91639   3.91746
 Alpha virt. eigenvalues --    3.91971   3.93009   3.93504   3.95203   3.96228
 Alpha virt. eigenvalues --    3.96908   3.97302   3.97984   3.98528   3.99198
 Alpha virt. eigenvalues --    3.99590   4.00450   4.00741   4.01472   4.02336
 Alpha virt. eigenvalues --    4.02634   4.03376   4.04284   4.04440   4.04722
 Alpha virt. eigenvalues --    4.05345   4.06803   4.07273   4.08544   4.09118
 Alpha virt. eigenvalues --    4.09509   4.10826   4.11418   4.11752   4.12471
 Alpha virt. eigenvalues --    4.12893   4.13731   4.14492   4.15172   4.16210
 Alpha virt. eigenvalues --    4.16557   4.16669   4.17484   4.17926   4.18483
 Alpha virt. eigenvalues --    4.19037   4.19389   4.20801   4.21783   4.22202
 Alpha virt. eigenvalues --    4.22455   4.22598   4.23411   4.24254   4.25115
 Alpha virt. eigenvalues --    4.26053   4.27074   4.27438   4.27711   4.28472
 Alpha virt. eigenvalues --    4.28635   4.29082   4.30094   4.31077   4.31216
 Alpha virt. eigenvalues --    4.31988   4.32502   4.32912   4.33218   4.33739
 Alpha virt. eigenvalues --    4.34158   4.34963   4.35370   4.36258   4.37331
 Alpha virt. eigenvalues --    4.38249   4.38967   4.39539   4.39809   4.40488
 Alpha virt. eigenvalues --    4.40796   4.41350   4.42548   4.42804   4.43249
 Alpha virt. eigenvalues --    4.43968   4.44523   4.45010   4.45425   4.45974
 Alpha virt. eigenvalues --    4.46564   4.46746   4.47928   4.48840   4.50502
 Alpha virt. eigenvalues --    4.50960   4.52118   4.52443   4.53351   4.54271
 Alpha virt. eigenvalues --    4.54591   4.55463   4.56345   4.57439   4.57787
 Alpha virt. eigenvalues --    4.59045   4.61244   4.62351   4.63426   4.64346
 Alpha virt. eigenvalues --    4.64811   4.66778   4.67656   4.67850   4.68346
 Alpha virt. eigenvalues --    4.68549   4.69635   4.71836   4.72897   4.73513
 Alpha virt. eigenvalues --    4.74708   4.74959   4.77248   4.79190   4.79966
 Alpha virt. eigenvalues --    4.81354   4.82286   4.82860   4.83002   4.83272
 Alpha virt. eigenvalues --    4.84038   4.84316   4.85182   4.85940   4.87658
 Alpha virt. eigenvalues --    4.88178   4.89315   4.90086   4.91820   4.93091
 Alpha virt. eigenvalues --    4.93573   4.94934   4.95642   4.97261   4.98240
 Alpha virt. eigenvalues --    4.99620   5.00898   5.01769   5.02054   5.02436
 Alpha virt. eigenvalues --    5.03087   5.03521   5.04850   5.06350   5.07008
 Alpha virt. eigenvalues --    5.07884   5.08749   5.10965   5.12410   5.15384
 Alpha virt. eigenvalues --    5.16428   5.18011   5.19615   5.20056   5.21426
 Alpha virt. eigenvalues --    5.22087   5.23301   5.23810   5.25130   5.25414
 Alpha virt. eigenvalues --    5.28116   5.34534   5.35498   5.35727   5.36131
 Alpha virt. eigenvalues --    5.36887   5.37886   5.38221   5.39193   5.42035
 Alpha virt. eigenvalues --    5.47495   5.47607   5.49046   5.49363   5.50120
 Alpha virt. eigenvalues --    5.50979   5.52509   5.57655   5.59218   5.60504
 Alpha virt. eigenvalues --    5.61056   5.61962   5.65116   5.67040   5.67538
 Alpha virt. eigenvalues --    5.69980   5.72646   5.74071   5.75357   5.76570
 Alpha virt. eigenvalues --    5.77352   5.83765   5.88201   5.89774   5.99361
 Alpha virt. eigenvalues --    6.00094   6.00920   6.05955   6.09401   6.10339
 Alpha virt. eigenvalues --    6.11525   6.17072   6.24270   6.31496   6.32458
 Alpha virt. eigenvalues --    6.39182   9.04331   9.18808   9.38710  19.52324
 Alpha virt. eigenvalues --   22.31564  22.34794  22.35526  22.45660  22.46100
 Alpha virt. eigenvalues --   22.52644  22.53323  22.61990  22.62198  22.80332
 Alpha virt. eigenvalues --   22.86392  22.88570  22.91566  22.93359  22.94766
 Alpha virt. eigenvalues --   22.95726  23.02773  23.03284  23.14357  23.25123
 Alpha virt. eigenvalues --   23.29131  23.30378  23.36136  23.41558  23.49729
 Alpha virt. eigenvalues --   23.50630  23.54950  23.74513  23.78769  23.79216
 Alpha virt. eigenvalues --   23.88098  32.82553  32.85816  32.88357  33.00077
          Condensed to atoms (all electrons):
 Mulliken charges:
               1
     1  Fe  -0.223688
     2  N   -0.086561
     3  N   -0.061820
     4  N   -0.094675
     5  N   -0.048052
     6  C    0.219662
     7  C   -0.020058
     8  C   -0.042439
     9  C    0.214321
    10  C    0.240417
    11  C   -0.027715
    12  C    0.033822
    13  C    0.249198
    14  C    0.233740
    15  C   -0.035336
    16  C    0.037100
    17  C    0.280092
    18  C    0.248196
    19  C   -0.054828
    20  C   -0.031880
    21  C    0.225752
    22  C   -0.399932
    23  H    0.143957
    24  C   -0.451708
    25  H    0.138142
    26  C   -0.454718
    27  H    0.123247
    28  C   -0.434288
    29  H    0.130924
    30  C   -0.411211
    31  H    0.121605
    32  H    0.138079
    33  H    0.136291
    34  C   -0.418439
    35  H    0.135894
    36  H    0.141204
    37  H    0.121999
    38  C   -0.447037
    39  H    0.141010
    40  H    0.132340
    41  H    0.158915
    42  C   -0.210650
    43  H    0.117127
    44  C   -0.287202
    45  H    0.139599
    46  H    0.125158
    47  C   -0.454183
    48  H    0.132964
    49  H    0.145114
    50  H    0.159230
    51  C   -0.214578
    52  H    0.114217
    53  C   -0.280679
    54  H    0.140803
    55  H    0.124428
    56  C   -0.412014
    57  H    0.137037
    58  H    0.139659
    59  H    0.120768
    60  C   -0.418634
    61  H    0.135580
    62  H    0.121311
    63  H    0.140463
    64  C   -0.342854
    65  H    0.156861
    66  H    0.148994
    67  H    0.164159
    68  S   -0.013664
    69  H    0.169465
 Sum of Mulliken charges =  -0.00000
 Mulliken charges with hydrogens summed into heavy atoms:
               1
     1  Fe  -0.223688
     2  N   -0.086561
     3  N   -0.061820
     4  N   -0.094675
     5  N   -0.048052
     6  C    0.219662
     7  C   -0.020058
     8  C   -0.042439
     9  C    0.214321
    10  C    0.240417
    11  C   -0.027715
    12  C    0.033822
    13  C    0.249198
    14  C    0.233740
    15  C   -0.035336
    16  C    0.037100
    17  C    0.280092
    18  C    0.248196
    19  C   -0.054828
    20  C   -0.031880
    21  C    0.225752
    22  C   -0.255976
    24  C   -0.313566
    26  C   -0.331471
    28  C   -0.303364
    30  C   -0.015235
    34  C   -0.019342
    38  C   -0.014772
    42  C   -0.093523
    44  C   -0.022446
    47  C   -0.016876
    51  C   -0.100361
    53  C   -0.015448
    56  C   -0.014549
    60  C   -0.021281
    64  C    0.127160
    68  S    0.155800
 Electronic spatial extent (au):  <R**2>=          18056.9878
 Charge=             -0.0000 electrons
 Dipole moment (field-independent basis, Debye):
    X=             -1.6071    Y=             -0.5521    Z=              2.0327  Tot=              2.6495
 Quadrupole moment (field-independent basis, Debye-Ang):
   XX=           -211.7792   YY=           -212.8336   ZZ=           -232.3957
   XY=              0.9822   XZ=             -3.9642   YZ=              1.9927
 Traceless Quadrupole moment (field-independent basis, Debye-Ang):
   XX=              7.2236   YY=              6.1692   ZZ=            -13.3928
   XY=              0.9822   XZ=             -3.9642   YZ=              1.9927
 Octapole moment (field-independent basis, Debye-Ang**2):
  XXX=            -26.3903  YYY=            -42.4942  ZZZ=             30.7433  XYY=              9.7249
  XXY=            -15.5078  XXZ=              3.4493  XZZ=            -19.9119  YZZ=             -2.2500
  YYZ=             -7.0344  XYZ=             -1.6998
 Hexadecapole moment (field-independent basis, Debye-Ang**3):
 XXXX=         -11502.1559 YYYY=         -11282.4399 ZZZZ=          -1209.5294 XXXY=             -8.3175
 XXXZ=              8.7589 YYYX=             35.2245 YYYZ=              3.4545 ZZZX=            -46.4392
 ZZZY=             34.8274 XXYY=          -3778.3966 XXZZ=          -2294.9857 YYZZ=          -2256.8261
 XXYZ=            -11.9263 YYXZ=            -67.5618 ZZXY=              3.5305
 N-N= 5.042927814478D+03 E-N=-1.733937309426D+04  KE= 3.071206429482D+03
  Exact polarizability:     695.943       0.870     684.664      -3.842       1.233     251.508
 Approx polarizability:    1280.728       5.388    1258.074      -0.262      -3.092     431.341

 ----------------------------------------------------------------------

 Electric dipole moment (input orientation):
 (Debye = 10**-18 statcoulomb cm , SI units = C m)
                  (au)            (Debye)         (10**-30 SI)
   Tot        0.104237D+01      0.264945D+01      0.883762D+01
   x          0.956526D+00      0.243125D+01      0.810977D+01
   y          0.377909D+00      0.960548D+00      0.320404D+01
   z         -0.169668D+00     -0.431253D+00     -0.143850D+01

 Dipole polarizability, Alpha (input orientation).
 (esu units = cm**3 , SI units = C**2 m**2 J**-1)
 Alpha(0;0):
               (au)            (10**-24 esu)      (10**-40 SI)
   iso        0.544039D+03      0.806182D+02      0.896998D+02
   aniso      0.438963D+03      0.650476D+02      0.723752D+02
   xx         0.606251D+03      0.898372D+02      0.999573D+02
   yx        -0.171706D+03     -0.254442D+02     -0.283104D+02
   yy         0.363829D+03      0.539139D+02      0.599873D+02
   zx         0.477782D+02      0.708000D+01      0.787757D+01
   zy         0.856110D+02      0.126862D+02      0.141154D+02
   zz         0.662035D+03      0.981035D+02      0.109155D+03

 First dipole hyperpolarizability, Beta (input orientation).
 ||, _|_  parallel and perpendicular components, (z) with respect to z axis,
 vector components x,y,z.  Values do not include the 1/n! factor of 1/2.
 (esu units = statvolt**-1 cm**4 , SI units = C**3 m**3 J**-2)
 Beta(0;0,0):
               (au)            (10**-30 esu)      (10**-50 SI)
   || (z)     0.760592D+03      0.657092D+01      0.243873D+01
   _|_(z)     0.253531D+03      0.219031D+01      0.812910D+00
   x         -0.255658D+04     -0.220868D+02     -0.819731D+01
   y          0.194780D+04      0.168274D+02      0.624534D+01
   z          0.380296D+04      0.328546D+02      0.121937D+02
   ||         0.995841D+03      0.860329D+01      0.319303D+01
   xxx       -0.774680D+03     -0.669264D+01     -0.248391D+01
   xxy        0.522372D+03      0.451289D+01      0.167491D+01
   yxy       -0.350498D+03     -0.302803D+01     -0.112382D+01
   yyy        0.182687D+03      0.157827D+01      0.585759D+00
   xxz       -0.131635D+03     -0.113723D+01     -0.422070D+00
   yxz        0.110537D+03      0.954952D+00      0.354421D+00
   yyz       -0.633112D+02     -0.546960D+00     -0.202999D+00
   zxz        0.272985D+03      0.235838D+01      0.875290D+00
   zyz       -0.557932D+02     -0.482009D+00     -0.178893D+00
   zzz        0.146260D+04      0.126357D+02      0.468962D+01

 ----------------------------------------------------------------------

 Dipole orientation:
    26        452.49614194       -230.49597330        -76.72475499
     7        453.58775253       -227.57166462        -74.56506029
     7        456.05622378       -231.78044229        -76.58137312
     7        451.64539846       -233.07466839        -79.33601474
     7        449.15598966       -228.90441556        -77.24425537
     6        452.01311112       -225.80984186        -73.54298492
     6        453.34025237       -224.24521178        -71.74065367
     6        455.77146953       -225.07812710        -71.71421849
     6        455.88663049       -227.15315691        -73.48411557
     6        458.11328704       -230.66545676        -75.49105155
     6        460.35887947       -232.13912804        -75.91865596
     6        459.64841104       -234.13456228        -77.40438052
     6        456.96650112       -233.82626163        -77.85498269
     6        453.01925805       -235.19320082        -79.85837978
     6        451.55185472       -236.98471794        -81.28241550
     6        449.25863656       -235.86159201        -81.71133719
     6        449.35741353       -233.43538457        -80.44957911
     6        447.38019031       -229.52220456        -79.00381548
     6        445.29293930       -227.76116898        -78.94685421
     6        445.89218996       -225.99561542        -77.18193477
     6        448.33981409       -226.70211255        -76.19089360
     6        449.53952527       -225.40719894        -74.26967328
     1        448.55071566       -223.83843111        -73.42306491
     6        458.03918374       -228.53964084        -73.97067284
     1        459.77540892       -227.94278432        -73.08524904
     6        455.53198075       -235.52342875        -79.22478654
     1        456.46617989       -237.19534754        -79.92384810
     6        447.40927066       -231.69587702        -80.44646749
     1        445.78671502       -232.07835623        -81.61964485
     6        457.97031108       -224.13523206        -70.23164242
     1        457.42079004       -222.55848963        -69.03539453
     1        459.47017997       -223.49867509        -71.49181918
     1        458.73268082       -225.62746400        -69.03288560
     6        452.15158244       -222.15402632        -70.27941383
     1        450.50490934       -222.83666741        -69.24803342
     1        451.53505053       -220.64887274        -71.54421191
     1        453.48072594       -221.35834295        -68.93018668
     6        462.93605079       -231.44359035        -75.03326663
     1        463.21262970       -231.99339649        -73.06477179
     1        463.22914167       -229.41196037        -75.17604621
     1        464.35360775       -232.39591085        -76.17786177
     6        461.17957811       -236.14623952        -78.44545797
     1        460.63094746       -236.80147543        -80.30615123
     6        463.14390033       -237.21388634        -77.30301580
     1        463.71800459       -236.69513818        -75.42220421
     1        464.22168485       -238.68938031        -78.20012474
     6        452.42139314       -239.55299757        -82.02705703
     1        453.60104403       -240.37782915        -80.55652364
     1        453.52543871       -239.47931870        -83.76719323
     1        450.80097318       -240.77903768        -82.34109544
     6        447.07186481       -236.82919039        -83.03623017
     1        445.25910775       -236.21293746        -82.31085046
     6        447.13666161       -238.35860161        -85.02656064
     1        448.88336842       -238.95762503        -85.87734456
     1        445.42813899       -239.02554494        -85.90980884
     6        443.01487613       -227.95659259        -80.58741458
     1        441.96015094       -229.67263464        -80.15365316
     1        443.55713319       -228.02319142        -82.57281178
     1        441.77124986       -226.34609158        -80.30602851
     6        444.44299465       -223.72662578        -76.36137347
     1        443.95292092       -223.86280589        -74.36491728
     1        442.70560048       -223.54313536        -77.44161075
     1        445.56114454       -222.01835613        -76.63223874
     6        453.29348850       -232.49877920        -70.74887026
     1        453.08274426       -234.02688855        -69.39694212
     1        452.70991017       -230.72224431        -69.90657421
     1        455.22675487       -232.35047666        -71.41625869
    16        451.18192535       -233.06006643        -73.42951881
     1        452.27989374       -235.23770689        -74.11055009

 Electric dipole moment (dipole orientation):
 (Debye = 10**-18 statcoulomb cm , SI units = C m)
                  (au)            (Debye)         (10**-30 SI)
   Tot        0.104237D+01      0.264945D+01      0.883762D+01
   x          0.000000D+00      0.000000D+00      0.000000D+00
   y          0.000000D+00      0.000000D+00      0.000000D+00
   z          0.104237D+01      0.264945D+01      0.883762D+01

 Dipole polarizability, Alpha (dipole orientation).
 (esu units = cm**3 , SI units = C**2 m**2 J**-1)
 Alpha(0;0):
               (au)            (10**-24 esu)      (10**-40 SI)
   iso        0.544039D+03      0.806182D+02      0.896998D+02
   aniso      0.438963D+03      0.650476D+02      0.723752D+02
   xx         0.639710D+03      0.947953D+02      0.105474D+03
   yx        -0.770506D+02     -0.114177D+02     -0.127039D+02
   yy         0.555166D+03      0.822671D+02      0.915345D+02
   zx         0.115283D+03      0.170831D+02      0.190075D+02
   zy         0.186175D+03      0.275883D+02      0.306961D+02
   zz         0.437240D+03      0.647923D+02      0.720911D+02

 First dipole hyperpolarizability, Beta (dipole orientation).
 ||, _|_  parallel and perpendicular components, (z) with respect to z axis,
 vector components x,y,z.  Values do not include the 1/n! factor of 1/2.
 (esu units = statvolt**-1 cm**4 , SI units = C**3 m**3 J**-2)
 Beta(0;0,0):
               (au)            (10**-30 esu)      (10**-50 SI)
   || (z)    -0.451773D+03     -0.390297D+01     -0.144855D+01
   _|_(z)    -0.150591D+03     -0.130099D+01     -0.482849D+00
   x          0.222732D+04      0.192423D+02      0.714161D+01
   y         -0.383784D+04     -0.331560D+02     -0.123055D+02
   z         -0.225887D+04     -0.195148D+02     -0.724274D+01
   ||         0.995841D+03      0.860329D+01      0.319303D+01
   xxx        0.119246D+04      0.103019D+02      0.382345D+01
   xxy       -0.648979D+03     -0.560667D+01     -0.208086D+01
   yxy       -0.229137D+03     -0.197957D+01     -0.734697D+00
   yyy       -0.388555D+03     -0.335681D+01     -0.124585D+01
   xxz       -0.226757D+03     -0.195901D+01     -0.727065D+00
   yxz       -0.290740D+03     -0.251177D+01     -0.932218D+00
   yyz       -0.322165D+03     -0.278325D+01     -0.103298D+01
   zxz       -0.220879D+03     -0.190822D+01     -0.708217D+00
   zyz       -0.241747D+03     -0.208851D+01     -0.775128D+00
   zzz       -0.204034D+03     -0.176269D+01     -0.654206D+00

 ----------------------------------------------------------------------
 Unable to Open any file for archive entry.
 1\1\GINC-BGN1037\SP\RAPFD\def2TZVP\C31H32Fe1N4S1\BECSLEIP\14-Nov-2024\
 0\\# polar def2tzvp apfd int=(grid=ultrafine)\\6rqe_II_S\\0,1\Fe,0,-6.
 1126040802,24.9549460408,270.5594293348\N,0,-4.4617853752,23.831458856
 8,270.3424538114\N,0,-5.7178513078,25.046312946,272.5222640015\N,0,-7.
 8952172948,25.7931143671,270.8659577044\N,0,-6.6114036862,24.613986831
 6,268.6768728269\C,0,-3.9285431862,23.4390281547,269.1517721531\C,0,-2
 .622745686,22.8494969738,269.3408063406\C,0,-2.3811745538,22.877403759
 7,270.6789120168\C,0,-3.5379918623,23.4943448116,271.2853796416\C,0,-4
 .7193469698,24.4207119664,273.2133380939\C,0,-4.8223619962,24.69036002
 43,274.6233435661\C,0,-5.9496381648,25.4494663294,274.7891421178\C,0,-
 6.5132018249,25.6243716516,273.4664846233\C,0,-8.2691153227,26.4792395
 389,271.9845335633\C,0,-9.4460381244,27.269075147,271.7383330443\C,0,-
 9.8189737053,27.0068440252,270.4462297349\C,0,-8.8245108932,26.0951960
 475,269.9200437825\C,0,-7.8185570924,24.8352449139,268.0846359001\C,0,
 -7.8289054511,24.335637676,266.7283142334\C,0,-6.6170915179,23.7548308
 332,266.5285634423\C,0,-5.8855774089,23.9059787427,267.7672969213\C,0,
 -4.5814834593,23.4851440989,267.9359566644\H,0,-4.0771731063,23.060963
 4136,267.0819035741\C,0,-3.6700127313,23.7258472299,272.6385566354\H,0
 ,-2.8962808129,23.3527017317,273.2908857679\C,0,-7.6447053772,26.37534
 90052,273.2134795184\H,0,-8.1009559655,26.8845199055,274.0480947923\C,
 0,-8.8439646304,25.574300246,268.6400408224\H,0,-9.7083798276,25.77440
 97243,268.0265660358\C,0,-1.1975560049,22.3863633679,271.4380620488\H,
 0,-0.4581396754,21.9590074939,270.7656793275\H,0,-1.494202963,21.61873
 3988,272.1528114244\H,0,-0.7301087524,23.2013112514,271.9912970412\C,0
 ,-1.7700463007,22.3282926995,268.2365346838\H,0,-1.612905602,23.095884
 284,267.4790464689\H,0,-2.24632101,21.472529095,267.7573272132\H,0,-0.
 8004048795,22.0124418755,268.6130923555\C,0,-3.9109674934,24.143566631
 ,275.6651028165\H,0,-2.9979527896,24.7374053115,275.735333742\H,0,-3.6
 299219462,23.1182346794,275.4299540211\H,0,-4.4040679934,24.1563281644
 ,276.6347543048\C,0,-6.5362823609,25.962105184,276.008284455\H,0,-7.61
 91065806,25.9957359642,276.0278498087\C,0,-5.8564681879,26.3849832527,
 277.0685750673\H,0,-4.7808217442,26.4154170907,277.0858320195\H,0,-6.3
 581929998,26.7422250812,277.9522890753\C,0,-10.0695740334,28.200006519
 9,272.7174432464\H,0,-9.3082016205,28.6906657823,273.3218570244\H,0,-1
 0.7422815762,27.6644183416,273.3893126663\H,0,-10.6442042056,28.960552
 3094,272.1928421343\C,0,-10.9280007492,27.5379033935,269.6840981505\H,
 0,-10.7470323878,27.6622869508,268.6231233242\C,0,-12.1166002062,27.86
 40885022,270.1804185679\H,0,-12.3654957923,27.7175595909,271.216815848
 3\H,0,-12.8958439708,28.2663529378,269.5548005009\C,0,-8.9876312583,24
 .45753081,265.8008992431\H,0,-9.1907581562,25.5058800142,265.580592741
 3\H,0,-9.8826697924,24.0257878386,266.2480048453\H,0,-8.7886625625,23.
 9439045363,264.8637870442\C,0,-6.0866061886,23.0667027944,265.31885455
 69\H,0,-5.2092831414,23.5878426863,264.9350397319\H,0,-6.8369598865,23
 .0363872585,264.5330274906\H,0,-5.7962975218,22.0436505595,265.5574199
 447\C,0,-3.3976064264,26.9207380926,270.816127512\H,0,-3.0032406602,27
 .9292468535,270.8905129982\H,0,-2.8047882989,26.3368582568,270.1193638
 018\H,0,-3.4170674838,26.4303834056,271.7839451699\S,0,-5.0924867124,2
 6.989601393,270.1293429327\H,0,-5.59264867,27.7148007645,271.138953985
 6\\Version=ES64L-G16RevC.02\State=1-A\HF=-3080.7692669\RMSD=3.412e-09\
 Dipole=0.956526,0.3779087,-0.1696679\Polar=606.2513141,-171.7056385,36
 3.8287649,47.778231,85.6110436,662.0354907\HyperPolar=-774.6804578,522
 .3721119,-350.4977162,182.6865983,-131.6351699,110.536818,-63.311249,2
 72.9853671,-55.7931619,1462.5989241\Quadrupole=4.4654992,-6.8872087,2.
 4217095,-4.556645,1.7529428,5.0470762\PG=C01 [X(C31H32Fe1N4S1)]\\@
 The archive entry for this job was punched.


 SCIENCE IS LONG AND LIFE IS SHORT.

                     DON MOSER IN THE FEBRUARY 1979 SMITHSONIAN
 Job cpu time:       1 days 12 hours  6 minutes 17.9 seconds.
 Elapsed time:       0 days  0 hours 31 minutes 23.8 seconds.
 File lengths (MBytes):  RWF=    952 Int=      0 D2E=      0 Chk=    122 Scr=      1
 Normal termination of Gaussian 16 at Thu Nov 14 16:10:02 2024.
 Initial command:
 /sw/chem/gaussian/g16_C02/a100/g16/l1.exe "/local/becsleip_8081155/Gau-1658624.inp" -scrdir="/local/becsleip_8081155/"
 Entering Link 1 = /sw/chem/gaussian/g16_C02/a100/g16/l1.exe PID=   1660112.
  
 Copyright (c) 1988-2021, Gaussian, Inc.  All Rights Reserved.
  
 This is part of the Gaussian(R) 16 program.  It is based on
 the Gaussian(R) 09 system (copyright 2009, Gaussian, Inc.),
 the Gaussian(R) 03 system (copyright 2003, Gaussian, Inc.),
 the Gaussian(R) 98 system (copyright 1998, Gaussian, Inc.),
 the Gaussian(R) 94 system (copyright 1995, Gaussian, Inc.),
 the Gaussian 92(TM) system (copyright 1992, Gaussian, Inc.),
 the Gaussian 90(TM) system (copyright 1990, Gaussian, Inc.),
 the Gaussian 88(TM) system (copyright 1988, Gaussian, Inc.),
 the Gaussian 86(TM) system (copyright 1986, Carnegie Mellon
 University), and the Gaussian 82(TM) system (copyright 1983,
 Carnegie Mellon University). Gaussian is a federally registered
 trademark of Gaussian, Inc.
  
 This software contains proprietary and confidential information,
 including trade secrets, belonging to Gaussian, Inc.
  
 This software is provided under written license and may be
 used, copied, transmitted, or stored only in accord with that
 written license.
  
 The following legend is applicable only to US Government
 contracts under FAR:
  
                    RESTRICTED RIGHTS LEGEND
  
 Use, reproduction and disclosure by the US Government is
 subject to restrictions as set forth in subparagraphs (a)
 and (c) of the Commercial Computer Software - Restricted
 Rights clause in FAR 52.227-19.
  
 Gaussian, Inc.
 340 Quinnipiac St., Bldg. 40, Wallingford CT 06492
  
  
 ---------------------------------------------------------------
 Warning -- This program may not be used in any manner that
 competes with the business of Gaussian, Inc. or will provide
 assistance to any competitor of Gaussian, Inc.  The licensee
 of this program is prohibited from giving any competitor of
 Gaussian, Inc. access to this program.  By using this program,
 the user acknowledges that Gaussian, Inc. is engaged in the
 business of creating and licensing software in the field of
 computational chemistry and represents and warrants to the
 licensee that it is not a competitor of Gaussian, Inc. and that
 it will not use this program in any manner prohibited above.
 ---------------------------------------------------------------
  

 Cite this work as:
 Gaussian 16, Revision C.02,
 M. J. Frisch, G. W. Trucks, H. B. Schlegel, G. E. Scuseria, 
 M. A. Robb, J. R. Cheeseman, G. Scalmani, V. Barone, 
 G. A. Petersson, H. Nakatsuji, X. Li, M. Caricato, A. V. Marenich, 
 J. Bloino, B. G. Janesko, R. Gomperts, B. Mennucci, H. P. Hratchian, 
 J. V. Ortiz, A. F. Izmaylov, J. L. Sonnenberg, D. Williams-Young, 
 F. Ding, F. Lipparini, F. Egidi, J. Goings, B. Peng, A. Petrone, 
 T. Henderson, D. Ranasinghe, V. G. Zakrzewski, J. Gao, N. Rega, 
 G. Zheng, W. Liang, M. Hada, M. Ehara, K. Toyota, R. Fukuda, 
 J. Hasegawa, M. Ishida, T. Nakajima, Y. Honda, O. Kitao, H. Nakai, 
 T. Vreven, K. Throssell, J. A. Montgomery, Jr., J. E. Peralta, 
 F. Ogliaro, M. J. Bearpark, J. J. Heyd, E. N. Brothers, K. N. Kudin, 
 V. N. Staroverov, T. A. Keith, R. Kobayashi, J. Normand, 
 K. Raghavachari, A. P. Rendell, J. C. Burant, S. S. Iyengar, 
 J. Tomasi, M. Cossi, J. M. Millam, M. Klene, C. Adamo, R. Cammi, 
 J. W. Ochterski, R. L. Martin, K. Morokuma, O. Farkas, 
 J. B. Foresman, and D. J. Fox, Gaussian, Inc., Wallingford CT, 2019.
 
 ******************************************
 Gaussian 16:  ES64L-G16RevC.02  7-Dec-2021
                14-Nov-2024 
 ******************************************
 %mem=16GB
 %CPU=0-71
 SetSPE:  set environment variable "OMP_PROC_BIND" = "true"
 SetSPE:  set environment variable "OMP_PLACES" = "{0},{1},{2},{3},{4},{5},{6},{7},{8},{9},{10},{11},{12},{13},{14},{15},{16},{17},{18},{19},{20},{21},{22},{23},{24},{25},{26},{27},{28},{29},{30},{31},{32},{33},{34},{35},{36},{37},{38},{39},{40},{41},{42},{43},{44},{45},{46},{47},{48},{49},{50},{51},{52},{53},{54},{55},{56},{57},{58},{59},{60},{61},{62},{63},{64},{65},{66},{67},{68},{69},{70},{71}"
 Will use up to   72 processors via shared memory.
 %gpucpu=0,1,2,3=0,1,2,3
 Will use    4 GPUs:
 Thread  CPU   GPU
      0    0     0
      1    1     1
      2    2     2
      3    3     3
      4    4    -1
      5    5    -1
      6    6    -1
      7    7    -1
      8    8    -1
      9    9    -1
     10   10    -1
     11   11    -1
     12   12    -1
     13   13    -1
     14   14    -1
     15   15    -1
     16   16    -1
     17   17    -1
     18   18    -1
     19   19    -1
     20   20    -1
     21   21    -1
     22   22    -1
     23   23    -1
     24   24    -1
     25   25    -1
     26   26    -1
     27   27    -1
     28   28    -1
     29   29    -1
     30   30    -1
     31   31    -1
     32   32    -1
     33   33    -1
     34   34    -1
     35   35    -1
     36   36    -1
     37   37    -1
     38   38    -1
     39   39    -1
     40   40    -1
     41   41    -1
     42   42    -1
     43   43    -1
     44   44    -1
     45   45    -1
     46   46    -1
     47   47    -1
     48   48    -1
     49   49    -1
     50   50    -1
     51   51    -1
     52   52    -1
     53   53    -1
     54   54    -1
     55   55    -1
     56   56    -1
     57   57    -1
     58   58    -1
     59   59    -1
     60   60    -1
     61   61    -1
     62   62    -1
     63   63    -1
     64   64    -1
     65   65    -1
     66   66    -1
     67   67    -1
     68   68    -1
     69   69    -1
     70   70    -1
     71   71    -1
 SetGPE:  set environment variable "OMP_PROC_BIND" = "true"
 SetGPE:  set environment variable "OMP_PLACES" = "{0},{1},{2},{3},{4},{5},{6},{7},{8},{9},{10},{11},{12},{13},{14},{15},{16},{17},{18},{19},{20},{21},{22},{23},{24},{25},{26},{27},{28},{29},{30},{31},{32},{33},{34},{35},{36},{37},{38},{39},{40},{41},{42},{43},{44},{45},{46},{47},{48},{49},{50},{51},{52},{53},{54},{55},{56},{57},{58},{59},{60},{61},{62},{63},{64},{65},{66},{67},{68},{69},{70},{71}"
 %oldchk=6rqe_II_O.chk
 %chk=6rqe_II_Sn.chk
 Properties for Device   0
 Minimum vector length:                              32
 Maximum vector length:                            1024
 Number of SMPs:                                    108
 Maximum number of threads per SMP:                2048
 Number of ASync Engines:                             5
 Memory:                                           9207742464
 Properties for Device   1
 Minimum vector length:                              32
 Maximum vector length:                            1024
 Number of SMPs:                                    108
 Maximum number of threads per SMP:                2048
 Number of ASync Engines:                             5
 Memory:                                           9207742464
 Properties for Device   2
 Minimum vector length:                              32
 Maximum vector length:                            1024
 Number of SMPs:                                    108
 Maximum number of threads per SMP:                2048
 Number of ASync Engines:                             5
 Memory:                                           9207742464
 Properties for Device   3
 Minimum vector length:                              32
 Maximum vector length:                            1024
 Number of SMPs:                                    108
 Maximum number of threads per SMP:                2048
 Number of ASync Engines:                             5
 Memory:                                           9207742464
   8286968217 words of memory will be used on each GPU.
 Copying data from "6rqe_II_O.chk" to current chk file "6rqe_II_Sn.chk"
 IOpt=  2 FromEx=T IUOpen= 4 IOptOp= 5 NList=   0 IFRang= 0 IUIn= 4 IUOut= 2.
 ----------------------------------------------------------------------
 # apfd/def2TZVP int=(grid=ultrafine) geom=check guess=read pop=nbo scf
 =qc
 ----------------------------------------------------------------------
 1/29=2,38=1,172=1/1;
 2/12=2,40=1/2;
 3/5=44,7=101,11=2,14=-4,25=1,30=1,74=-44,75=-5,116=-2/1,2,3;
 4/5=1/1;
 5/5=2,8=3,38=6/8;
 6/7=2,8=2,9=2,10=2,28=1,40=1/1,7;
 99/5=1,9=1/99;
 -------------
 6rqe_II_S_nbo
 -------------
 Structure from the checkpoint file:  "6rqe_II_Sn.chk"
 Charge =  0 Multiplicity = 1
 Z-Matrix found in chk file.
 Fe,0,-6.1126040802,24.9549460408,270.5594293348
 N,0,-4.4617853752,23.8314588568,270.3424538114
 N,0,-5.7178513078,25.046312946,272.5222640015
 N,0,-7.8952172948,25.7931143671,270.8659577044
 N,0,-6.6114036862,24.6139868316,268.6768728269
 C,0,-3.9285431862,23.4390281547,269.1517721531
 C,0,-2.622745686,22.8494969738,269.3408063406
 C,0,-2.3811745538,22.8774037597,270.6789120168
[...]
  1063. RY*(  12) C  51                  0.00001     1.66593   
  1064. RY*(  13) C  51                  0.00001     2.55236   
  1065. RY*(  14) C  51                  0.00000     1.66468   
  1066. RY*(  15) C  51                  0.00001     2.34552   
  1067. RY*(  16) C  51                  0.00001     2.39192   
  1068. RY*(  17) C  51                  0.00000    20.76776   
  1069. RY*(  18) C  51                  0.00000     3.24196   
  1070. RY*(  19) C  51                  0.00000     3.37335   
  1071. RY*(  20) C  51                  0.00000     3.48981   
  1072. RY*(  21) C  51                  0.00000     3.71476   
  1073. RY*(  22) C  51                  0.00000     3.20985   
  1074. RY*(  23) C  51                  0.00000     3.64984   
  1075. RY*(  24) C  51                  0.00000     3.61917   
  1076. RY*(  25) C  51                  0.00000     3.99713   
  1077. RY*(  26) C  51                  0.00000     4.04864   
  1078. RY*(   1) H  52                  0.00127     0.69137   
  1079. RY*(   2) H  52                  0.00022     2.25650   
  1080. RY*(   3) H  52                  0.00013     2.32254   
  1081. RY*(   4) H  52                  0.00009     2.73454   
  1082. RY*(   5) H  52                  0.00001     3.11680   
  1083. RY*(   1) C  53                  0.00228     1.27521   
  1084. RY*(   2) C  53                  0.00137     0.97365   
  1085. RY*(   3) C  53                  0.00109     0.60565   
  1086. RY*(   4) C  53                  0.00027     1.02002   
  1087. RY*(   5) C  53                  0.00016     1.05311   
  1088. RY*(   6) C  53                  0.00005     1.54305   
  1089. RY*(   7) C  53                  0.00004     1.40314   
  1090. RY*(   8) C  53                  0.00001     1.23598   
  1091. RY*(   9) C  53                  0.00002     2.11913   
  1092. RY*(  10) C  53                  0.00001     2.22202   
  1093. RY*(  11) C  53                  0.00000     3.27439   
  1094. RY*(  12) C  53                  0.00001     1.70224   
  1095. RY*(  13) C  53                  0.00000     3.01006   
  1096. RY*(  14) C  53                  0.00000     1.36981   
  1097. RY*(  15) C  53                  0.00000     2.93057   
  1098. RY*(  16) C  53                  0.00000    21.10709   
  1099. RY*(  17) C  53                  0.00000     2.69300   
  1100. RY*(  18) C  53                  0.00000     1.53513   
  1101. RY*(  19) C  53                  0.00000     3.02366   
  1102. RY*(  20) C  53                  0.00000     3.37642   
  1103. RY*(  21) C  53                  0.00000     3.45016   
  1104. RY*(  22) C  53                  0.00000     3.22327   
  1105. RY*(  23) C  53                  0.00000     3.51571   
  1106. RY*(  24) C  53                  0.00000     3.43988   
  1107. RY*(  25) C  53                  0.00000     3.74285   
  1108. RY*(  26) C  53                  0.00000     3.86776   
  1109. RY*(   1) H  54                  0.00071     1.00541   
  1110. RY*(   2) H  54                  0.00030     1.69066   
  1111. RY*(   3) H  54                  0.00019     2.17839   
  1112. RY*(   4) H  54                  0.00006     2.38353   
  1113. RY*(   5) H  54                  0.00001     3.11692   
  1114. RY*(   1) H  55                  0.00045     0.72478   
  1115. RY*(   2) H  55                  0.00031     1.82073   
  1116. RY*(   3) H  55                  0.00015     2.12152   
  1117. RY*(   4) H  55                  0.00006     2.49995   
  1118. RY*(   5) H  55                  0.00001     3.06576   
  1119. RY*(   1) C  56                  0.00146     1.26435   
  1120. RY*(   2) C  56                  0.00138     1.25535   
  1121. RY*(   3) C  56                  0.00076     1.37544   
  1122. RY*(   4) C  56                  0.00014     1.08884   
  1123. RY*(   5) C  56                  0.00004     2.00567   
  1124. RY*(   6) C  56                  0.00005     1.51930   
  1125. RY*(   7) C  56                  0.00003     2.18367   
  1126. RY*(   8) C  56                  0.00001     1.64573   
  1127. RY*(   9) C  56                  0.00000    21.45871   
  1128. RY*(  10) C  56                  0.00001     2.72345   
  1129. RY*(  11) C  56                  0.00001     2.75478   
  1130. RY*(  12) C  56                  0.00001     2.49342   
  1131. RY*(  13) C  56                  0.00000     2.32164   
  1132. RY*(  14) C  56                  0.00000     2.62098   
  1133. RY*(  15) C  56                  0.00000     2.45845   
  1134. RY*(  16) C  56                  0.00001     1.75844   
  1135. RY*(  17) C  56                  0.00000     3.04588   
  1136. RY*(  18) C  56                  0.00000     3.13661   
  1137. RY*(  19) C  56                  0.00001     2.57436   
  1138. RY*(  20) C  56                  0.00000     3.25506   
  1139. RY*(  21) C  56                  0.00000     3.85239   
  1140. RY*(  22) C  56                  0.00000     3.54268   
  1141. RY*(  23) C  56                  0.00000     3.42056   
  1142. RY*(  24) C  56                  0.00000     3.39833   
  1143. RY*(  25) C  56                  0.00000     3.73572   
  1144. RY*(  26) C  56                  0.00001     3.68483   
  1145. RY*(   1) H  57                  0.00092     0.91618   
  1146. RY*(   2) H  57                  0.00017     1.81827   
  1147. RY*(   3) H  57                  0.00006     2.11606   
  1148. RY*(   4) H  57                  0.00005     2.02111   
  1149. RY*(   5) H  57                  0.00001     2.96939   
  1150. RY*(   1) H  58                  0.00083     0.92053   
  1151. RY*(   2) H  58                  0.00018     1.83670   
  1152. RY*(   3) H  58                  0.00007     2.14888   
  1153. RY*(   4) H  58                  0.00005     1.96737   
  1154. RY*(   5) H  58                  0.00001     2.97234   
  1155. RY*(   1) H  59                  0.00072     0.85909   
  1156. RY*(   2) H  59                  0.00013     1.70238   
  1157. RY*(   3) H  59                  0.00011     2.15349   
  1158. RY*(   4) H  59                  0.00007     2.08058   
  1159. RY*(   5) H  59                  0.00001     2.99469   
  1160. RY*(   1) C  60                  0.00148     1.24840   
  1161. RY*(   2) C  60                  0.00137     1.26840   
  1162. RY*(   3) C  60                  0.00075     1.37373   
  1163. RY*(   4) C  60                  0.00014     1.07863   
  1164. RY*(   5) C  60                  0.00005     2.01468   
  1165. RY*(   6) C  60                  0.00005     1.51306   
  1166. RY*(   7) C  60                  0.00003     2.25854   
  1167. RY*(   8) C  60                  0.00003     2.29559   
  1168. RY*(   9) C  60                  0.00000    21.10588   
  1169. RY*(  10) C  60                  0.00001     1.78172   
  1170. RY*(  11) C  60                  0.00000     2.88260   
  1171. RY*(  12) C  60                  0.00000     3.07465   
  1172. RY*(  13) C  60                  0.00000     2.29181   
  1173. RY*(  14) C  60                  0.00000     2.07595   
  1174. RY*(  15) C  60                  0.00000     2.45085   
  1175. RY*(  16) C  60                  0.00001     3.23519   
  1176. RY*(  17) C  60                  0.00000     2.66074   
  1177. RY*(  18) C  60                  0.00000     3.15260   
  1178. RY*(  19) C  60                  0.00000     2.25139   
  1179. RY*(  20) C  60                  0.00000     3.28687   
  1180. RY*(  21) C  60                  0.00000     3.64955   
  1181. RY*(  22) C  60                  0.00000     3.60850   
  1182. RY*(  23) C  60                  0.00000     3.40126   
  1183. RY*(  24) C  60                  0.00000     3.42231   
  1184. RY*(  25) C  60                  0.00000     3.48379   
  1185. RY*(  26) C  60                  0.00000     3.64373   
  1186. RY*(   1) H  61                  0.00091     0.90746   
  1187. RY*(   2) H  61                  0.00018     1.81496   
  1188. RY*(   3) H  61                  0.00006     2.10534   
  1189. RY*(   4) H  61                  0.00006     2.04189   
  1190. RY*(   5) H  61                  0.00001     2.96263   
  1191. RY*(   1) H  62                  0.00073     0.85218   
  1192. RY*(   2) H  62                  0.00013     1.70437   
  1193. RY*(   3) H  62                  0.00011     2.15899   
  1194. RY*(   4) H  62                  0.00007     2.07900   
  1195. RY*(   5) H  62                  0.00001     2.99399   
  1196. RY*(   1) H  63                  0.00087     0.91529   
  1197. RY*(   2) H  63                  0.00018     1.84209   
  1198. RY*(   3) H  63                  0.00006     2.09537   
  1199. RY*(   4) H  63                  0.00005     2.01472   
  1200. RY*(   5) H  63                  0.00001     2.97440   
  1276. BD*(   1) N   2 - C   6          0.02582     0.49901   
  1277. BD*(   1) N   2 - C   9          0.02613     0.49895   
  1278. BD*(   2) N   2 - C   9          0.63937     0.00204  1298(v),1291(v),1289(v)
                                                    142(r),361(g),177(g),138(r)
                                                    728(v),139(r),1283(r),141(r)
                                                    140(r),1275(r)
  1279. BD*(   1) N   3 - C  10          0.02699     0.49238   
  1280. BD*(   1) N   3 - C  13          0.02590     0.49696   
  1281. BD*(   1) N   4 - C  14          0.02655     0.49491   
  1282. BD*(   1) N   4 - C  17          0.02527     0.50224   
  1283. BD*(   2) N   4 - C  17          0.61730     0.00315  1316(v),1309(v),148(v)
                                                    569(g),138(r),142(r),139(r)
                                                    229(g),790(v),1278(r),141(r)
                                                    140(r),1275(r)
  1284. BD*(   1) N   5 - C  18          0.02630     0.49960   
  1285. BD*(   1) N   5 - C  21          0.02635     0.49979   
  1286. BD*(   2) N   5 - C  21          0.61923     0.00523  1289(v),1318(v),1316(v)
                                                    673(g),142(r),255(g),697(v)
                                                    1275(r),138(r)
  1287. BD*(   1) C   6 - C   7          0.03557     0.48815   
  1288. BD*(   1) C   6 - C  22          0.02105     0.57454   
  1289. BD*(   2) C   6 - C  22          0.41048     0.04439  1286(v),1291(v),1278(v)
                                                    697(g),1316(r),1298(r)
                                                    285(g),284(g),142(r)
  1290. BD*(   1) C   7 - C   8          0.02278     0.60345   
  1291. BD*(   2) C   7 - C   8          0.25045     0.06499  1289(v),1278(v),1331(v)
                                                    1329(v),1328(v),1330(v)
  1292. BD*(   1) C   7 - C  34          0.01719     0.41172   
  1293. BD*(   1) C   8 - C   9          0.03549     0.48924   
  1294. BD*(   1) C   8 - C  30          0.01721     0.41133   
  1295. BD*(   1) C   9 - C  24          0.02100     0.57758   
  1296. BD*(   1) C  10 - C  11          0.03428     0.49546   
  1297. BD*(   1) C  10 - C  24          0.02113     0.56997   
  1298. BD*(   2) C  10 - C  24          0.42780     0.04016  1278(v),1300(v),145(v)
                                                    1305(r),728(g),1289(r)
                                                    389(g),387(g),142(r),1275(r)
  1299. BD*(   1) C  11 - C  12          0.02499     0.58862   
  1300. BD*(   2) C  11 - C  12          0.28790     0.06157  1338(v),1305(v),1298(v)
                                                    1333(v),1334(v),1309(r)
  1301. BD*(   1) C  11 - C  38          0.01639     0.41393   
  1302. BD*(   1) C  12 - C  13          0.03447     0.48508   
  1303. BD*(   1) C  12 - C  42          0.02671     0.49277   
  1304. BD*(   1) C  13 - C  26          0.02071     0.57372   
  1305. BD*(   2) C  13 - C  26          0.40789     0.04227  1300(v),148(v),145(v)
                                                    1298(r),759(g),1338(r)
                                                    467(g),465(g),142(r)
  1306. BD*(   1) C  14 - C  15          0.03452     0.49656   
  1307. BD*(   1) C  14 - C  26          0.02141     0.57222   
  1308. BD*(   1) C  15 - C  16          0.02502     0.58823   
  1309. BD*(   2) C  15 - C  16          0.28895     0.06167  1346(v),1283(v),148(v)
                                                    1342(v),1300(r),1341(v)
  1310. BD*(   1) C  15 - C  47          0.01633     0.41463   
  1311. BD*(   1) C  16 - C  17          0.03445     0.48597   
  1312. BD*(   1) C  16 - C  51          0.02664     0.49382   
  1313. BD*(   1) C  17 - C  28          0.02069     0.57464   
  1314. BD*(   1) C  18 - C  19          0.03461     0.48970   
  1315. BD*(   1) C  18 - C  28          0.02070     0.57648   
  1316. BD*(   2) C  18 - C  28          0.39605     0.04628  1283(v),1318(v),1286(v)
                                                    790(g),1289(r),597(g),142(r)
  1317. BD*(   1) C  19 - C  20          0.02261     0.60835   
  1318. BD*(   2) C  19 - C  20          0.24385     0.06887  1316(v),1286(v),1349(v)
                                                    1352(v),1354(v),1350(v)
  1319. BD*(   1) C  19 - C  56          0.01706     0.41475   
  1320. BD*(   1) C  20 - C  21          0.03522     0.48834   
  1321. BD*(   1) C  20 - C  60          0.01710     0.41401   
  1322. BD*(   1) C  21 - C  22          0.02075     0.57623   
  1323. BD*(   1) C  22 - H  23          0.01279     0.43040   
  1324. BD*(   1) C  24 - H  25          0.01279     0.43090   
  1325. BD*(   1) C  26 - H  27          0.01307     0.43114   
  1326. BD*(   1) C  28 - H  29          0.01286     0.43113   
  1327. BD*(   1) C  30 - H  31          0.00661     0.38684   
  1328. BD*(   1) C  30 - H  32          0.01071     0.37614   
  1329. BD*(   1) C  30 - H  33          0.01075     0.37507   
  1330. BD*(   1) C  34 - H  35          0.01006     0.37667   
  1331. BD*(   1) C  34 - H  36          0.01135     0.37560   
  1332. BD*(   1) C  34 - H  37          0.00665     0.38677   
  1333. BD*(   1) C  38 - H  39          0.01234     0.37403   
  1334. BD*(   1) C  38 - H  40          0.00991     0.38325   
  1335. BD*(   1) C  38 - H  41          0.00817     0.39144   
  1336. BD*(   1) C  42 - H  43          0.02113     0.42132   
  1337. BD*(   1) C  42 - C  44          0.00780     0.62868   
  1338. BD*(   2) C  42 - C  44          0.07477     0.05637   
  1339. BD*(   1) C  44 - H  45          0.01102     0.43193   
  1340. BD*(   1) C  44 - H  46          0.00855     0.43332   
  1341. BD*(   1) C  47 - H  48          0.00970     0.38407   
  1342. BD*(   1) C  47 - H  49          0.01261     0.37566   
  1343. BD*(   1) C  47 - H  50          0.00796     0.39053   
  1344. BD*(   1) C  51 - H  52          0.02105     0.42215   
  1345. BD*(   1) C  51 - C  53          0.00772     0.63157   
  1346. BD*(   2) C  51 - C  53          0.07398     0.05534   
  1347. BD*(   1) C  53 - H  54          0.01096     0.43379   
  1348. BD*(   1) C  53 - H  55          0.00851     0.43395   
  1349. BD*(   1) C  56 - H  57          0.01113     0.37827   
  1350. BD*(   1) C  56 - H  58          0.01011     0.38106   
  1351. BD*(   1) C  56 - H  59          0.00664     0.39008   
  1352. BD*(   1) C  60 - H  61          0.01112     0.37781   
  1353. BD*(   1) C  60 - H  62          0.00668     0.38986   
  1354. BD*(   1) C  60 - H  63          0.01037     0.37950   
       -------------------------------
              Total Lewis  230.22830  ( 97.2753%)
        Valence non-Lewis    5.96448  (  2.5201%)
        Rydberg non-Lewis    0.48417  (  0.2046%)
       -------------------------------
            Total unit  2  236.67695  (100.0000%)
           Charge unit  2   -0.67695
 Unable to Open any file for archive entry.
 1\1\GINC-BGN1037\SP\RAPFD\def2TZVP\C31H32Fe1N4S1\BECSLEIP\14-Nov-2024\
 0\\# apfd/def2TZVP int=(grid=ultrafine) geom=check guess=read pop=nbo 
 scf=qc\\6rqe_II_S_nbo\\0,1\Fe,0,-6.1126040802,24.9549460408,270.559429
 3348\N,0,-4.4617853752,23.8314588568,270.3424538114\N,0,-5.7178513078,
 25.046312946,272.5222640015\N,0,-7.8952172948,25.7931143671,270.865957
 7044\N,0,-6.6114036862,24.6139868316,268.6768728269\C,0,-3.9285431862,
 23.4390281547,269.1517721531\C,0,-2.622745686,22.8494969738,269.340806
 3406\C,0,-2.3811745538,22.8774037597,270.6789120168\C,0,-3.5379918623,
 23.4943448116,271.2853796416\C,0,-4.7193469698,24.4207119664,273.21333
 80939\C,0,-4.8223619962,24.6903600243,274.6233435661\C,0,-5.9496381648
 ,25.4494663294,274.7891421178\C,0,-6.5132018249,25.6243716516,273.4664
 846233\C,0,-8.2691153227,26.4792395389,271.9845335633\C,0,-9.446038124
 4,27.269075147,271.7383330443\C,0,-9.8189737053,27.0068440252,270.4462
 297349\C,0,-8.8245108932,26.0951960475,269.9200437825\C,0,-7.818557092
 4,24.8352449139,268.0846359001\C,0,-7.8289054511,24.335637676,266.7283
 142334\C,0,-6.6170915179,23.7548308332,266.5285634423\C,0,-5.885577408
 9,23.9059787427,267.7672969213\C,0,-4.5814834593,23.4851440989,267.935
 9566644\H,0,-4.0771731063,23.0609634136,267.0819035741\C,0,-3.67001273
 13,23.7258472299,272.6385566354\H,0,-2.8962808129,23.3527017317,273.29
 08857679\C,0,-7.6447053772,26.3753490052,273.2134795184\H,0,-8.1009559
 655,26.8845199055,274.0480947923\C,0,-8.8439646304,25.574300246,268.64
 00408224\H,0,-9.7083798276,25.7744097243,268.0265660358\C,0,-1.1975560
 049,22.3863633679,271.4380620488\H,0,-0.4581396754,21.9590074939,270.7
 656793275\H,0,-1.494202963,21.618733988,272.1528114244\H,0,-0.73010875
 24,23.2013112514,271.9912970412\C,0,-1.7700463007,22.3282926995,268.23
 65346838\H,0,-1.612905602,23.095884284,267.4790464689\H,0,-2.24632101,
 21.472529095,267.7573272132\H,0,-0.8004048795,22.0124418755,268.613092
 3555\C,0,-3.9109674934,24.143566631,275.6651028165\H,0,-2.9979527896,2
 4.7374053115,275.735333742\H,0,-3.6299219462,23.1182346794,275.4299540
 211\H,0,-4.4040679934,24.1563281644,276.6347543048\C,0,-6.5362823609,2
 5.962105184,276.008284455\H,0,-7.6191065806,25.9957359642,276.02784980
 87\C,0,-5.8564681879,26.3849832527,277.0685750673\H,0,-4.7808217442,26
 .4154170907,277.0858320195\H,0,-6.3581929998,26.7422250812,277.9522890
 753\C,0,-10.0695740334,28.2000065199,272.7174432464\H,0,-9.3082016205,
 28.6906657823,273.3218570244\H,0,-10.7422815762,27.6644183416,273.3893
 126663\H,0,-10.6442042056,28.9605523094,272.1928421343\C,0,-10.9280007
 492,27.5379033935,269.6840981505\H,0,-10.7470323878,27.6622869508,268.
 6231233242\C,0,-12.1166002062,27.8640885022,270.1804185679\H,0,-12.365
 4957923,27.7175595909,271.2168158483\H,0,-12.8958439708,28.2663529378,
 269.5548005009\C,0,-8.9876312583,24.45753081,265.8008992431\H,0,-9.190
 7581562,25.5058800142,265.5805927413\H,0,-9.8826697924,24.0257878386,2
 66.2480048453\H,0,-8.7886625625,23.9439045363,264.8637870442\C,0,-6.08
 66061886,23.0667027944,265.3188545569\H,0,-5.2092831414,23.5878426863,
 264.9350397319\H,0,-6.8369598865,23.0363872585,264.5330274906\H,0,-5.7
 962975218,22.0436505595,265.5574199447\C,0,-3.3976064264,26.9207380926
 ,270.816127512\H,0,-3.0032406602,27.9292468535,270.8905129982\H,0,-2.8
 047882989,26.3368582568,270.1193638018\H,0,-3.4170674838,26.4303834056
 ,271.7839451699\S,0,-5.0924867124,26.989601393,270.1293429327\H,0,-5.5
 9264867,27.7148007645,271.1389539856\\Version=ES64L-G16RevC.02\State=1
 -A\HF=-3080.7692669\RMSD=1.706e-09\Dipole=0.956526,0.3779087,-0.169667
 9\Quadrupole=4.4654992,-6.8872087,2.4217095,-4.556645,1.7529428,5.0470
 762\PG=C01 [X(C31H32Fe1N4S1)]\\@
 The archive entry for this job was punched.


 ON A CLEAR DISK YOU CAN SEEK FOREVER.
 Job cpu time:       0 days  0 hours 32 minutes 46.3 seconds.
 Elapsed time:       0 days  0 hours  0 minutes 41.2 seconds.
 File lengths (MBytes):  RWF=    624 Int=      0 D2E=      0 Chk=    150 Scr=      1
 Normal termination of Gaussian 16 at Thu Nov 14 16:10:46 2024.
