 Entering Gaussian System, Link 0=g16
 Input=6tet12.com
 Output=6tet12.log
 Initial command:
 /sw/chem/gaussian/g16_C02/a100/g16/l1.exe "/local/becsleip_8081601/Gau-1449233.inp" -scrdir="/local/becsleip_8081601/"
 Entering Link 1 = /sw/chem/gaussian/g16_C02/a100/g16/l1.exe PID=   1449234.
  
 Copyright (c) 1988-2021, Gaussian, Inc.  All Rights Reserved.
  
 This is part of the Gaussian(R) 16 program.  It is based on
 the Gaussian(R) 09 system (copyright 2009, Gaussian, Inc.),
 the Gaussian(R) 03 system (copyright 2003, Gaussian, Inc.),
 the Gaussian(R) 98 system (copyright 1998, Gaussian, Inc.),
 the Gaussian(R) 94 system (copyright 1995, Gaussian, Inc.),
 the Gaussian 92(TM) system (copyright 1992, Gaussian, Inc.),
 the Gaussian 90(TM) system (copyright 1990, Gaussian, Inc.),
 the Gaussian 88(TM) system (copyright 1988, Gaussian, Inc.),
 the Gaussian 86(TM) system (copyright 1986, Carnegie Mellon
 University), and the Gaussian 82(TM) system (copyright 1983,
 Carnegie Mellon University). Gaussian is a federally registered
 trademark of Gaussian, Inc.
  
 This software contains proprietary and confidential information,
 including trade secrets, belonging to Gaussian, Inc.
  
 This software is provided under written license and may be
 used, copied, transmitted, or stored only in accord with that
 written license.
  
 The following legend is applicable only to US Government
 contracts under FAR:
  
                    RESTRICTED RIGHTS LEGEND
  
 Use, reproduction and disclosure by the US Government is
 subject to restrictions as set forth in subparagraphs (a)
 and (c) of the Commercial Computer Software - Restricted
 Rights clause in FAR 52.227-19.
  
 Gaussian, Inc.
 340 Quinnipiac St., Bldg. 40, Wallingford CT 06492
  
  
 ---------------------------------------------------------------
 Warning -- This program may not be used in any manner that
 competes with the business of Gaussian, Inc. or will provide
 assistance to any competitor of Gaussian, Inc.  The licensee
 of this program is prohibited from giving any competitor of
 Gaussian, Inc. access to this program.  By using this program,
 the user acknowledges that Gaussian, Inc. is engaged in the
 business of creating and licensing software in the field of
 computational chemistry and represents and warrants to the
 licensee that it is not a competitor of Gaussian, Inc. and that
 it will not use this program in any manner prohibited above.
 ---------------------------------------------------------------
  

 Cite this work as:
 Gaussian 16, Revision C.02,
 M. J. Frisch, G. W. Trucks, H. B. Schlegel, G. E. Scuseria, 
 M. A. Robb, J. R. Cheeseman, G. Scalmani, V. Barone, 
 G. A. Petersson, H. Nakatsuji, X. Li, M. Caricato, A. V. Marenich, 
 J. Bloino, B. G. Janesko, R. Gomperts, B. Mennucci, H. P. Hratchian, 
 J. V. Ortiz, A. F. Izmaylov, J. L. Sonnenberg, D. Williams-Young, 
 F. Ding, F. Lipparini, F. Egidi, J. Goings, B. Peng, A. Petrone, 
 T. Henderson, D. Ranasinghe, V. G. Zakrzewski, J. Gao, N. Rega, 
 G. Zheng, W. Liang, M. Hada, M. Ehara, K. Toyota, R. Fukuda, 
 J. Hasegawa, M. Ishida, T. Nakajima, Y. Honda, O. Kitao, H. Nakai, 
 T. Vreven, K. Throssell, J. A. Montgomery, Jr., J. E. Peralta, 
 F. Ogliaro, M. J. Bearpark, J. J. Heyd, E. N. Brothers, K. N. Kudin, 
 V. N. Staroverov, T. A. Keith, R. Kobayashi, J. Normand, 
 K. Raghavachari, A. P. Rendell, J. C. Burant, S. S. Iyengar, 
 J. Tomasi, M. Cossi, J. M. Millam, M. Klene, C. Adamo, R. Cammi, 
 J. W. Ochterski, R. L. Martin, K. Morokuma, O. Farkas, 
 J. B. Foresman, and D. J. Fox, Gaussian, Inc., Wallingford CT, 2019.
 
 ******************************************
 Gaussian 16:  ES64L-G16RevC.02  7-Dec-2021
                15-Nov-2024 
 ******************************************
 %mem=16GB
 %CPU=0-71
 SetSPE:  set environment variable "OMP_PROC_BIND" = "true"
 SetSPE:  set environment variable "OMP_PLACES" = "{0},{1},{2},{3},{4},{5},{6},{7},{8},{9},{10},{11},{12},{13},{14},{15},{16},{17},{18},{19},{20},{21},{22},{23},{24},{25},{26},{27},{28},{29},{30},{31},{32},{33},{34},{35},{36},{37},{38},{39},{40},{41},{42},{43},{44},{45},{46},{47},{48},{49},{50},{51},{52},{53},{54},{55},{56},{57},{58},{59},{60},{61},{62},{63},{64},{65},{66},{67},{68},{69},{70},{71}"
 Will use up to   72 processors via shared memory.
 %gpucpu=0,1,2,3=0,1,2,3
 Will use    4 GPUs:
 Thread  CPU   GPU
      0    0     0
      1    1     1
      2    2     2
      3    3     3
      4    4    -1
      5    5    -1
      6    6    -1
      7    7    -1
      8    8    -1
      9    9    -1
     10   10    -1
     11   11    -1
     12   12    -1
     13   13    -1
     14   14    -1
     15   15    -1
     16   16    -1
     17   17    -1
     18   18    -1
     19   19    -1
     20   20    -1
     21   21    -1
     22   22    -1
     23   23    -1
     24   24    -1
     25   25    -1
     26   26    -1
     27   27    -1
     28   28    -1
     29   29    -1
     30   30    -1
     31   31    -1
     32   32    -1
     33   33    -1
     34   34    -1
     35   35    -1
     36   36    -1
     37   37    -1
     38   38    -1
     39   39    -1
     40   40    -1
     41   41    -1
     42   42    -1
     43   43    -1
     44   44    -1
     45   45    -1
     46   46    -1
     47   47    -1
     48   48    -1
     49   49    -1
     50   50    -1
     51   51    -1
     52   52    -1
     53   53    -1
     54   54    -1
     55   55    -1
     56   56    -1
     57   57    -1
     58   58    -1
     59   59    -1
     60   60    -1
     61   61    -1
     62   62    -1
     63   63    -1
     64   64    -1
     65   65    -1
     66   66    -1
     67   67    -1
     68   68    -1
     69   69    -1
     70   70    -1
     71   71    -1
 SetGPE:  set environment variable "OMP_PROC_BIND" = "true"
 SetGPE:  set environment variable "OMP_PLACES" = "{0},{1},{2},{3},{4},{5},{6},{7},{8},{9},{10},{11},{12},{13},{14},{15},{16},{17},{18},{19},{20},{21},{22},{23},{24},{25},{26},{27},{28},{29},{30},{31},{32},{33},{34},{35},{36},{37},{38},{39},{40},{41},{42},{43},{44},{45},{46},{47},{48},{49},{50},{51},{52},{53},{54},{55},{56},{57},{58},{59},{60},{61},{62},{63},{64},{65},{66},{67},{68},{69},{70},{71}"
 %oldchk=6tet_II_Sre.chk
 %chk=6tet_III_Dn.chk
 Properties for Device   0
 Minimum vector length:                              32
 Maximum vector length:                            1024
 Number of SMPs:                                    108
 Maximum number of threads per SMP:                2048
 Number of ASync Engines:                             5
 Memory:                                           9207742464
 Properties for Device   1
 Minimum vector length:                              32
 Maximum vector length:                            1024
 Number of SMPs:                                    108
 Maximum number of threads per SMP:                2048
 Number of ASync Engines:                             5
 Memory:                                           9207742464
 Properties for Device   2
 Minimum vector length:                              32
 Maximum vector length:                            1024
 Number of SMPs:                                    108
 Maximum number of threads per SMP:                2048
 Number of ASync Engines:                             5
 Memory:                                           9207742464
 Properties for Device   3
 Minimum vector length:                              32
 Maximum vector length:                            1024
 Number of SMPs:                                    108
 Maximum number of threads per SMP:                2048
 Number of ASync Engines:                             5
 Memory:                                           9207742464
   8286968217 words of memory will be used on each GPU.
 Copying data from "6tet_II_Sre.chk" to current chk file "6tet_III_Dn.chk"
 IOpt=  2 FromEx=T IUOpen= 4 IOptOp= 5 NList=   0 IFRang= 0 IUIn= 4 IUOut= 2.
 --------------------------------------------------------------
 # apfd/def2TZVP guess=read scf=maxcycle=999 geom=check pop=nbo
 --------------------------------------------------------------
 1/29=2,38=1,172=1/1;
 2/12=2,40=1/2;
 3/5=44,7=101,11=2,14=-4,25=1,30=1,74=-44,116=-2/1,2,3;
 4/5=1/1;
 5/5=2,7=999,38=6/2;
 6/7=2,8=2,9=2,10=2,28=1,40=1/1,7;
 99/5=1,9=1/99;
 ----------
 6tet_III_D
 ----------
 Structure from the checkpoint file:  "6tet_III_Dn.chk"
 Charge =  1 Multiplicity = 2
 Z-Matrix found in chk file.
 Fe,0,-6.1719228152,24.7192117278,7.5657788801
 N,0,-4.4457397533,23.7261777825,7.3128407848
 N,0,-5.813695667,24.8057720801,9.5348378351
 N,0,-7.935367965,25.6038078422,7.8473060304
 N,0,-6.5784018778,24.4843629234,5.6355559567
 C,0,-3.8806566683,23.3768065937,6.1279538575
 C,0,-2.5573355878,22.8296689697,6.3332361662
 C,0,-2.3468341153,22.834246723,7.6762839244
 C,0,-3.5343078576,23.4086738978,8.2700682284
 C,0,-4.7584090736,24.2709323232,10.2103548941
 C,0,-4.8349484376,24.5887317735,11.6118391579
 C,0,-5.9535351302,25.3649454012,11.7718046921
 C,0,-6.5423632322,25.4952752678,10.45473731
 C,0,-8.3146270942,26.3007077903,8.9541146994
 C,0,-9.5096069266,27.0612372345,8.6991072649
 C,0,-9.8536240399,26.8068877723,7.3976159538
 C,0,-8.8428992165,25.9035830945,6.8848810459
 C,0,-7.7801137774,24.6990313775,5.0370922957
 C,0,-7.7834931361,24.183628437,3.6860464313
 C,0,-6.5519376453,23.6460241149,3.4827752777
 C,0,-5.8242419536,23.8218842954,4.7207103934
 C,0,-4.5108843452,23.4314244631,4.8998665009
 H,0,-3.9792744425,23.0433410801,4.0450800041
 C,0,-3.7039898396,23.5861086723,9.6284471479
 H,0,-2.9151811116,23.2406679833,10.278392574
 C,0,-7.6895664845,26.2195622925,10.1869816665
 H,0,-8.1294008599,26.7705457686,11.0038798201
 C,0,-8.8285511043,25.4041359108,5.5954405625
 H,0,-9.6858483411,25.6019671381,4.9708081949
 C,0,-1.1605014339,22.3706485424,8.449278556
 H,0,-0.392711548,21.9847680346,7.7834273465
 H,0,-1.4414703701,21.5780033357,9.1430625417
 H,0,-0.7337861135,23.1905786543,9.0277062941
 C,0,-1.6643797112,22.3598229532,5.2372619546
 H,0,-1.5097158814,23.1510429911,4.5038627382
 H,0,-2.1054509115,21.5048828652,4.7237630073
 H,0,-0.695628113,22.0598169305,5.6291965766
 C,0,-3.8964808516,24.0884010149,12.6533809625
 H,0,-3.0020000046,24.7117054367,12.7055973272
 H,0,-3.5843936634,23.0688333431,12.432309722
 H,0,-4.3801742447,24.1020130581,13.6280311728
 C,0,-6.5002585012,25.9444663868,12.9789727107
 H,0,-7.5807839512,26.0217773465,13.0120892311
 C,0,-5.7910111068,26.3806041055,14.0146914605
 H,0,-4.7150592283,26.3721028704,14.0181282835
 H,0,-6.2672611147,26.7886742262,14.8905765828
 C,0,-10.1596296905,27.9836845578,9.6697742104
 H,0,-9.4137422257,28.4880619127,10.2822920718
 H,0,-10.8310494956,27.4384652894,10.3353714683
 H,0,-10.7404948781,28.7345002688,9.137979417
 C,0,-10.9581938925,27.3286201333,6.6232662671
 H,0,-10.7618542697,27.4678729435,5.5668347821
 C,0,-12.1600459468,27.631406641,7.1028210718
 H,0,-12.4238145655,27.4695255287,8.1333292292
 H,0,-12.9350688433,28.0295469213,6.4691997142
 C,0,-8.9451540362,24.269056425,2.7574714749
 H,0,-9.1657160474,25.3096720737,2.5177907886
 H,0,-9.833635085,23.8316504498,3.2124388115
 H,0,-8.7380834427,23.7419122014,1.8294337694
 C,0,-5.9988041316,22.9785239166,2.2710613041
 H,0,-5.1414709346,23.5326775264,1.8881414423
 H,0,-6.7477245319,22.9229985336,1.4850045489
 H,0,-5.6694691319,21.9662505116,2.5059318021
 O,0,-7.174,22.773,7.977
 H,0,-7.408,22.741,8.905
 H,0,-7.324,22.137,7.374
 C,0,-3.5074791123,26.7972652378,7.9192279839
 H,0,-3.1477649985,27.8162448962,8.0225248477
 H,0,-2.8851869247,26.2490841421,7.2199240786
 H,0,-3.5249884895,26.2849708202,8.8747787045
 S,0,-5.1911253136,26.8267367064,7.2070588927
 H,0,-5.7442866349,27.471696646,8.2416926287
 Recover connectivity data from disk.
 Stoichiometry    C31H34FeN4OS(1+,2)
 Framework group  C1[X(C31H34FeN4OS)]
 Deg. of freedom   210
 Full point group                 C1      NOp   1
 Largest Abelian subgroup         C1      NOp   1
 Largest concise Abelian subgroup C1      NOp   1
                         Standard orientation:                         
 ---------------------------------------------------------------------
 Center     Atomic      Atomic             Coordinates (Angstroms)
 Number     Number       Type             X           Y           Z
 ---------------------------------------------------------------------
      1         26           0        0.018973   -0.202286   -0.106879
      2          7           0       -1.519418   -1.491210   -0.149677
      3          7           0       -1.269078    1.315786   -0.329128
      4          7           0        1.543110    1.079508   -0.181173
      5          7           0        1.285476   -1.731368   -0.043502
      6          6           0       -1.457937   -2.830356    0.069965
      7          6           0       -2.785904   -3.400881    0.130663
      8          6           0       -3.651913   -2.374989   -0.083078
      9          6           0       -2.841075   -1.187986   -0.244962
     10          6           0       -2.620483    1.241127   -0.484493
     11          6           0       -3.198734    2.556393   -0.566426
     12          6           0       -2.163555    3.443559   -0.422646
     13          6           0       -0.967689    2.641521   -0.264492
     14          6           0        1.466488    2.426962    0.000564
     15          6           0        2.774546    2.995610    0.193006
     16          6           0        3.658959    1.951750    0.121655
     17          6           0        2.859462    0.763127   -0.098348
     18          6           0        2.628106   -1.669732   -0.248194
     19          6           0        3.190978   -2.994707   -0.384543
     20          6           0        2.151899   -3.862034   -0.261560
     21          6           0        0.968193   -3.051572   -0.074635
     22          6           0       -0.295367   -3.574612    0.123638
     23          1           0       -0.388583   -4.645201    0.218657
     24          6           0       -3.359835    0.069489   -0.479725
     25          1           0       -4.430372    0.155627   -0.582229
     26          6           0        0.298380    3.166124   -0.079503
     27          1           0        0.381383    4.237736    0.015976
     28          6           0        3.380371   -0.511368   -0.227287
     29          1           0        4.452956   -0.611535   -0.288853
     30          6           0       -5.140597   -2.390506   -0.141454
     31          1           0       -5.522563   -3.396055    0.015824
     32          1           0       -5.489325   -2.040266   -1.113198
     33          1           0       -5.562469   -1.738663    0.624101
     34          6           0       -3.069068   -4.843793    0.369638
     35          1           0       -2.597854   -5.178361    1.293675
     36          1           0       -2.678808   -5.451193   -0.447620
     37          1           0       -4.139131   -5.020756    0.445433
     38          6           0       -4.635956    2.842549   -0.827901
     39          1           0       -5.217495    2.798543    0.094708
     40          1           0       -5.052512    2.115981   -1.523868
     41          1           0       -4.745993    3.837580   -1.254388
     42          6           0       -2.188622    4.889618   -0.439689
     43          1           0       -1.309317    5.367104   -0.856149
     44          6           0       -3.181409    5.648979    0.011650
     45          1           0       -4.057181    5.231955    0.477342
     46          1           0       -3.138529    6.723822   -0.046526
     47          6           0        3.049494    4.429540    0.482632
     48          1           0        2.265198    4.854763    1.107122
     49          1           0        3.099269    5.010517   -0.439906
     50          1           0        4.000969    4.528711    1.001085
     51          6           0        5.097981    1.958682    0.266787
     52          1           0        5.524981    1.071073    0.718238
     53          6           0        5.905550    2.944303   -0.110685
     54          1           0        5.540446    3.827259   -0.605472
     55          1           0        6.970842    2.888175    0.039836
     56          6           0        4.637120   -3.274003   -0.607418
     57          1           0        5.224296   -2.953336    0.253612
     58          1           0        5.001452   -2.737584   -1.483337
     59          1           0        4.806852   -4.337119   -0.759039
     60          6           0        2.150108   -5.350890   -0.316968
     61          1           0        1.805514   -5.767422    0.629864
     62          1           0        3.149451   -5.731181   -0.513289
     63          1           0        1.485045   -5.705821   -1.104393
     64          8           0        0.086028   -0.285155   -2.331657
     65          1           0       -0.214550    0.555903   -2.676964
     66          1           0        0.346695   -0.987830   -2.810098
     67          6           0       -1.755508   -0.078442    2.787663
     68          1           0       -1.822267    0.291002    3.806210
     69          1           0       -2.046565   -1.122699    2.747793
     70          1           0       -2.376916    0.501860    2.114661
     71         16           0       -0.014030   -0.000909    2.236338
     72          1           0        0.073492    1.332836    2.313108
 ---------------------------------------------------------------------
 Rotational constants (GHZ):           0.1092376           0.1074172           0.0599108
 Standard basis: def2TZVP (5D, 7F)
 There are  1594 symmetry adapted cartesian basis functions of A   symmetry.
 There are  1402 symmetry adapted basis functions of A   symmetry.
  1402 basis functions,  2279 primitive gaussians,  1594 cartesian basis functions
   149 alpha electrons      148 beta electrons
       nuclear repulsion energy      5420.5355666502 Hartrees.
 NAtoms=   72 NActive=   72 NUniq=   72 SFac= 1.00D+00 NAtFMM=   60 NAOKFM=T Big=T
 Integral buffers will be    131072 words long.
 Raffenetti 2 integral format.
 Two-electron integral symmetry is turned on.
 R6APFD:  NTU= -4 IXU= 1 FactS= 1.050
 Nuclear repulsion after empirical dispersion term =     5420.3824238532 Hartrees.
 One-electron integrals computed using PRISM.
   1 Symmetry operations used in ECPInt.
 ECPInt:  NShTT=  157080 NPrTT=  488567 LenC2=  124805 LenP2D=  259021.
 LDataN:  DoStor=T MaxTD1= 6 Len=  172
 Number of processors reduced to  25 by ecpmxn.
 NBasis=  1402 RedAO= T EigKep=  3.39D-06  NBF=  1402
 NBsUse=  1402 1.00D-06 EigRej= -1.00D+00 NBFU=  1402
 Initial guess from the checkpoint file:  "6tet_III_Dn.chk"
 B after Tr=     0.000000    0.000000   -0.000000
         Rot=    1.000000    0.000000   -0.000000    0.000000 Ang=   0.00 deg.
 Initial guess <Sx>= 0.0000 <Sy>= 0.0000 <Sz>= 0.5000 <S**2>= 0.7792 S= 0.5145
 Requested convergence on RMS density matrix=1.00D-08 within 999 cycles.
 Requested convergence on MAX density matrix=1.00D-06.
 Requested convergence on             energy=1.00D-06.
 No special actions if energy rises.
 EnCoef did   100 forward-backward iterations
 EnCoef did     5 forward-backward iterations
 EnCoef did     2 forward-backward iterations
 EnCoef did     3 forward-backward iterations
 EnCoef did     3 forward-backward iterations
 EnCoef did     3 forward-backward iterations
 EnCoef did     3 forward-backward iterations
 EnCoef did     1 forward-backward iterations
 Restarting incremental Fock formation.
 Restarting incremental Fock formation.
 Restarting incremental Fock formation.
 Restarting incremental Fock formation.
 Restarting incremental Fock formation.
 SCF Done:  E(UAPFD) =  -3156.99008745     A.U. after  112 cycles
            NFock=112  Conv=0.27D-08     -V/T= 2.0031
 <Sx>= 0.0000 <Sy>= 0.0000 <Sz>= 0.5000 <S**2>= 0.8402 S= 0.5441
 <L.S>=  0.00000000000    
 Annihilation of the first spin contaminant:
 S**2 before annihilation     0.8402,   after     0.7516

 **********************************************************************

            Population analysis using the SCF Density.

 **********************************************************************

 Orbital symmetries:
 Alpha Orbitals:
       Occupied  (A) (A) (A) (A) (A) (A) (A) (A) (A) (A) (A) (A)
                 (A) (A) (A) (A) (A) (A) (A) (A) (A) (A) (A) (A)
                 (A) (A) (A) (A) (A) (A) (A) (A) (A) (A) (A) (A)
                 (A) (A) (A) (A) (A) (A) (A) (A) (A) (A) (A) (A)
                 (A) (A) (A) (A) (A) (A) (A) (A) (A) (A) (A) (A)
                 (A) (A) (A) (A) (A) (A) (A) (A) (A) (A) (A) (A)
                 (A) (A) (A) (A) (A) (A) (A) (A) (A) (A) (A) (A)
                 (A) (A) (A) (A) (A) (A) (A) (A) (A) (A) (A) (A)
                 (A) (A) (A) (A) (A) (A) (A) (A) (A) (A) (A) (A)
                 (A) (A) (A) (A) (A) (A) (A) (A) (A) (A) (A) (A)
                 (A) (A) (A) (A) (A) (A) (A) (A) (A) (A) (A) (A)
                 (A) (A) (A) (A) (A) (A) (A) (A) (A) (A) (A) (A)
                 (A) (A) (A) (A) (A)
       Virtual   (A) (A) (A) (A) (A) (A) (A) (A) (A) (A) (A) (A)
                 (A) (A) (A) (A) (A) (A) (A) (A) (A) (A) (A) (A)
                 (A) (A) (A) (A) (A) (A) (A) (A) (A) (A) (A) (A)
                 (A) (A) (A) (A) (A) (A) (A) (A) (A) (A) (A) (A)
                 (A) (A) (A) (A) (A) (A) (A) (A) (A) (A) (A) (A)
                 (A) (A) (A) (A) (A) (A) (A) (A) (A) (A) (A) (A)
                 (A) (A) (A) (A) (A) (A) (A) (A) (A) (A) (A) (A)
                 (A) (A) (A) (A) (A) (A) (A) (A) (A) (A) (A) (A)
                 (A) (A) (A) (A) (A) (A) (A) (A) (A) (A) (A) (A)
                 (A) (A) (A) (A) (A) (A) (A) (A) (A) (A) (A) (A)
                 (A) (A) (A) (A) (A) (A) (A) (A) (A) (A) (A) (A)
                 (A) (A) (A) (A) (A) (A) (A) (A) (A) (A) (A) (A)
                 (A) (A) (A) (A) (A) (A) (A) (A) (A) (A) (A) (A)
                 (A) (A) (A) (A) (A) (A) (A) (A) (A) (A) (A) (A)
                 (A) (A) (A) (A) (A) (A) (A) (A) (A) (A) (A) (A)
                 (A) (A) (A) (A) (A) (A) (A) (A) (A) (A) (A) (A)
                 (A) (A) (A) (A) (A) (A) (A) (A) (A) (A) (A) (A)
                 (A) (A) (A) (A) (A) (A) (A) (A) (A) (A) (A) (A)
                 (A) (A) (A) (A) (A) (A) (A) (A) (A) (A) (A) (A)
                 (A) (A) (A) (A) (A) (A) (A) (A) (A) (A) (A) (A)
                 (A) (A) (A) (A) (A) (A) (A) (A) (A) (A) (A) (A)
                 (A) (A) (A) (A) (A) (A) (A) (A) (A) (A) (A) (A)
                 (A) (A) (A) (A) (A) (A) (A) (A) (A) (A) (A) (A)
                 (A) (A) (A) (A) (A) (A) (A) (A) (A) (A) (A) (A)
                 (A) (A) (A) (A) (A) (A) (A) (A) (A) (A) (A) (A)
                 (A) (A) (A) (A) (A) (A) (A) (A) (A) (A) (A) (A)
                 (A) (A) (A) (A) (A) (A) (A) (A) (A) (A) (A) (A)
                 (A) (A) (A) (A) (A) (A) (A) (A) (A) (A) (A) (A)
                 (A) (A) (A) (A) (A) (A) (A) (A) (A) (A) (A) (A)
                 (A) (A) (A) (A) (A) (A) (A) (A) (A) (A) (A) (A)
                 (A) (A) (A) (A) (A) (A) (A) (A) (A) (A) (A) (A)
                 (A) (A) (A) (A) (A) (A) (A) (A) (A) (A) (A) (A)
                 (A) (A) (A) (A) (A) (A) (A) (A) (A) (A) (A) (A)
                 (A) (A) (A) (A) (A) (A) (A) (A) (A) (A) (A) (A)
                 (A) (A) (A) (A) (A) (A) (A) (A) (A) (A) (A) (A)
                 (A) (A) (A) (A) (A) (A) (A) (A) (A) (A) (A) (A)
                 (A) (A) (A) (A) (A) (A) (A) (A) (A) (A) (A) (A)
                 (A) (A) (A) (A) (A) (A) (A) (A) (A) (A) (A) (A)
                 (A) (A) (A) (A) (A) (A) (A) (A) (A) (A) (A) (A)
                 (A) (A) (A) (A) (A) (A) (A) (A) (A) (A) (A) (A)
                 (A) (A) (A) (A) (A) (A) (A) (A) (A) (A) (A) (A)
                 (A) (A) (A) (A) (A) (A) (A) (A) (A) (A) (A) (A)
                 (A) (A) (A) (A) (A) (A) (A) (A) (A) (A) (A) (A)
                 (A) (A) (A) (A) (A) (A) (A) (A) (A) (A) (A) (A)
                 (A) (A) (A) (A) (A) (A) (A) (A) (A) (A) (A) (A)
                 (A) (A) (A) (A) (A) (A) (A) (A) (A) (A) (A) (A)
                 (A) (A) (A) (A) (A) (A) (A) (A) (A) (A) (A) (A)
                 (A) (A) (A) (A) (A) (A) (A) (A) (A) (A) (A) (A)
                 (A) (A) (A) (A) (A) (A) (A) (A) (A) (A) (A) (A)
                 (A) (A) (A) (A) (A) (A) (A) (A) (A) (A) (A) (A)
                 (A) (A) (A) (A) (A) (A) (A) (A) (A) (A) (A) (A)
                 (A) (A) (A) (A) (A) (A) (A) (A) (A) (A) (A) (A)
                 (A) (A) (A) (A) (A) (A) (A) (A) (A) (A) (A) (A)
                 (A) (A) (A) (A) (A) (A) (A) (A) (A) (A) (A) (A)
                 (A) (A) (A) (A) (A) (A) (A) (A) (A) (A) (A) (A)
                 (A) (A) (A) (A) (A) (A) (A) (A) (A) (A) (A) (A)
                 (A) (A) (A) (A) (A) (A) (A) (A) (A) (A) (A) (A)
                 (A) (A) (A) (A) (A) (A) (A) (A) (A) (A) (A) (A)
                 (A) (A) (A) (A) (A) (A) (A) (A) (A) (A) (A) (A)
                 (A) (A) (A) (A) (A) (A) (A) (A) (A) (A) (A) (A)
                 (A) (A) (A) (A) (A) (A) (A) (A) (A) (A) (A) (A)
                 (A) (A) (A) (A) (A) (A) (A) (A) (A) (A) (A) (A)
                 (A) (A) (A) (A) (A) (A) (A) (A) (A) (A) (A) (A)
                 (A) (A) (A) (A) (A) (A) (A) (A) (A) (A) (A) (A)
                 (A) (A) (A) (A) (A) (A) (A) (A) (A) (A) (A) (A)
                 (A) (A) (A) (A) (A) (A) (A) (A) (A) (A) (A) (A)
                 (A) (A) (A) (A) (A) (A) (A) (A) (A) (A) (A) (A)
                 (A) (A) (A) (A) (A) (A) (A) (A) (A) (A) (A) (A)
                 (A) (A) (A) (A) (A) (A) (A) (A) (A) (A) (A) (A)
                 (A) (A) (A) (A) (A) (A) (A) (A) (A) (A) (A) (A)
                 (A) (A) (A) (A) (A) (A) (A) (A) (A) (A) (A) (A)
                 (A) (A) (A) (A) (A) (A) (A) (A) (A) (A) (A) (A)
                 (A) (A) (A) (A) (A) (A) (A) (A) (A) (A) (A) (A)
                 (A) (A) (A) (A) (A) (A) (A) (A) (A) (A) (A) (A)
                 (A) (A) (A) (A) (A) (A) (A) (A) (A) (A) (A) (A)
                 (A) (A) (A) (A) (A) (A) (A) (A) (A) (A) (A) (A)
                 (A) (A) (A) (A) (A) (A) (A) (A) (A) (A) (A) (A)
                 (A) (A) (A) (A) (A) (A) (A) (A) (A) (A) (A) (A)
                 (A) (A) (A) (A) (A) (A) (A) (A) (A) (A) (A) (A)
                 (A) (A) (A) (A) (A) (A) (A) (A) (A) (A) (A) (A)
                 (A) (A) (A) (A) (A) (A) (A) (A) (A) (A) (A) (A)
                 (A) (A) (A) (A) (A) (A) (A) (A) (A) (A) (A) (A)
                 (A) (A) (A) (A) (A) (A) (A) (A) (A) (A) (A) (A)
                 (A) (A) (A) (A) (A) (A) (A) (A) (A) (A) (A) (A)
                 (A) (A) (A) (A) (A) (A) (A) (A) (A) (A) (A) (A)
                 (A) (A) (A) (A) (A) (A) (A) (A) (A) (A) (A) (A)
                 (A) (A) (A) (A) (A) (A) (A) (A) (A) (A) (A) (A)
                 (A) (A) (A) (A) (A) (A) (A) (A) (A) (A) (A) (A)
                 (A) (A) (A) (A) (A) (A) (A) (A) (A) (A) (A) (A)
                 (A) (A) (A) (A) (A) (A) (A) (A) (A) (A) (A) (A)
                 (A) (A) (A) (A) (A) (A) (A) (A) (A) (A) (A) (A)
                 (A) (A) (A) (A) (A) (A) (A) (A) (A) (A) (A) (A)
                 (A) (A) (A) (A) (A) (A) (A) (A) (A) (A) (A) (A)
                 (A) (A) (A) (A) (A) (A) (A) (A) (A) (A) (A) (A)
                 (A) (A) (A) (A) (A) (A) (A) (A) (A) (A) (A) (A)
                 (A) (A) (A) (A) (A) (A) (A) (A) (A) (A) (A) (A)
                 (A) (A) (A) (A) (A) (A) (A) (A) (A) (A) (A) (A)
                 (A) (A) (A) (A) (A) (A) (A) (A) (A) (A) (A) (A)
                 (A) (A) (A) (A) (A) (A) (A) (A) (A) (A) (A) (A)
                 (A) (A) (A) (A) (A) (A) (A) (A) (A) (A) (A) (A)
                 (A) (A) (A) (A) (A) (A) (A) (A) (A) (A) (A) (A)
                 (A) (A) (A) (A) (A) (A) (A) (A) (A) (A) (A) (A)
                 (A) (A) (A) (A) (A) (A) (A) (A) (A) (A) (A) (A)
                 (A) (A) (A) (A) (A) (A) (A) (A) (A) (A) (A) (A)
                 (A) (A) (A) (A) (A)
 Beta  Orbitals:
       Occupied  (A) (A) (A) (A) (A) (A) (A) (A) (A) (A) (A) (A)
                 (A) (A) (A) (A) (A) (A) (A) (A) (A) (A) (A) (A)
                 (A) (A) (A) (A) (A) (A) (A) (A) (A) (A) (A) (A)
                 (A) (A) (A) (A) (A) (A) (A) (A) (A) (A) (A) (A)
                 (A) (A) (A) (A) (A) (A) (A) (A) (A) (A) (A) (A)
                 (A) (A) (A) (A) (A) (A) (A) (A) (A) (A) (A) (A)
                 (A) (A) (A) (A) (A) (A) (A) (A) (A) (A) (A) (A)
                 (A) (A) (A) (A) (A) (A) (A) (A) (A) (A) (A) (A)
                 (A) (A) (A) (A) (A) (A) (A) (A) (A) (A) (A) (A)
                 (A) (A) (A) (A) (A) (A) (A) (A) (A) (A) (A) (A)
                 (A) (A) (A) (A) (A) (A) (A) (A) (A) (A) (A) (A)
                 (A) (A) (A) (A) (A) (A) (A) (A) (A) (A) (A) (A)
                 (A) (A) (A) (A)
       Virtual   (A) (A) (A) (A) (A) (A) (A) (A) (A) (A) (A) (A)
                 (A) (A) (A) (A) (A) (A) (A) (A) (A) (A) (A) (A)
                 (A) (A) (A) (A) (A) (A) (A) (A) (A) (A) (A) (A)
                 (A) (A) (A) (A) (A) (A) (A) (A) (A) (A) (A) (A)
                 (A) (A) (A) (A) (A) (A) (A) (A) (A) (A) (A) (A)
                 (A) (A) (A) (A) (A) (A) (A) (A) (A) (A) (A) (A)
                 (A) (A) (A) (A) (A) (A) (A) (A) (A) (A) (A) (A)
                 (A) (A) (A) (A) (A) (A) (A) (A) (A) (A) (A) (A)
                 (A) (A) (A) (A) (A) (A) (A) (A) (A) (A) (A) (A)
                 (A) (A) (A) (A) (A) (A) (A) (A) (A) (A) (A) (A)
                 (A) (A) (A) (A) (A) (A) (A) (A) (A) (A) (A) (A)
                 (A) (A) (A) (A) (A) (A) (A) (A) (A) (A) (A) (A)
                 (A) (A) (A) (A) (A) (A) (A) (A) (A) (A) (A) (A)
                 (A) (A) (A) (A) (A) (A) (A) (A) (A) (A) (A) (A)
                 (A) (A) (A) (A) (A) (A) (A) (A) (A) (A) (A) (A)
                 (A) (A) (A) (A) (A) (A) (A) (A) (A) (A) (A) (A)
                 (A) (A) (A) (A) (A) (A) (A) (A) (A) (A) (A) (A)
                 (A) (A) (A) (A) (A) (A) (A) (A) (A) (A) (A) (A)
                 (A) (A) (A) (A) (A) (A) (A) (A) (A) (A) (A) (A)
                 (A) (A) (A) (A) (A) (A) (A) (A) (A) (A) (A) (A)
                 (A) (A) (A) (A) (A) (A) (A) (A) (A) (A) (A) (A)
                 (A) (A) (A) (A) (A) (A) (A) (A) (A) (A) (A) (A)
                 (A) (A) (A) (A) (A) (A) (A) (A) (A) (A) (A) (A)
                 (A) (A) (A) (A) (A) (A) (A) (A) (A) (A) (A) (A)
                 (A) (A) (A) (A) (A) (A) (A) (A) (A) (A) (A) (A)
                 (A) (A) (A) (A) (A) (A) (A) (A) (A) (A) (A) (A)
                 (A) (A) (A) (A) (A) (A) (A) (A) (A) (A) (A) (A)
                 (A) (A) (A) (A) (A) (A) (A) (A) (A) (A) (A) (A)
                 (A) (A) (A) (A) (A) (A) (A) (A) (A) (A) (A) (A)
                 (A) (A) (A) (A) (A) (A) (A) (A) (A) (A) (A) (A)
                 (A) (A) (A) (A) (A) (A) (A) (A) (A) (A) (A) (A)
                 (A) (A) (A) (A) (A) (A) (A) (A) (A) (A) (A) (A)
                 (A) (A) (A) (A) (A) (A) (A) (A) (A) (A) (A) (A)
                 (A) (A) (A) (A) (A) (A) (A) (A) (A) (A) (A) (A)
                 (A) (A) (A) (A) (A) (A) (A) (A) (A) (A) (A) (A)
                 (A) (A) (A) (A) (A) (A) (A) (A) (A) (A) (A) (A)
                 (A) (A) (A) (A) (A) (A) (A) (A) (A) (A) (A) (A)
                 (A) (A) (A) (A) (A) (A) (A) (A) (A) (A) (A) (A)
                 (A) (A) (A) (A) (A) (A) (A) (A) (A) (A) (A) (A)
                 (A) (A) (A) (A) (A) (A) (A) (A) (A) (A) (A) (A)
                 (A) (A) (A) (A) (A) (A) (A) (A) (A) (A) (A) (A)
                 (A) (A) (A) (A) (A) (A) (A) (A) (A) (A) (A) (A)
                 (A) (A) (A) (A) (A) (A) (A) (A) (A) (A) (A) (A)
                 (A) (A) (A) (A) (A) (A) (A) (A) (A) (A) (A) (A)
                 (A) (A) (A) (A) (A) (A) (A) (A) (A) (A) (A) (A)
                 (A) (A) (A) (A) (A) (A) (A) (A) (A) (A) (A) (A)
                 (A) (A) (A) (A) (A) (A) (A) (A) (A) (A) (A) (A)
                 (A) (A) (A) (A) (A) (A) (A) (A) (A) (A) (A) (A)
                 (A) (A) (A) (A) (A) (A) (A) (A) (A) (A) (A) (A)
                 (A) (A) (A) (A) (A) (A) (A) (A) (A) (A) (A) (A)
                 (A) (A) (A) (A) (A) (A) (A) (A) (A) (A) (A) (A)
                 (A) (A) (A) (A) (A) (A) (A) (A) (A) (A) (A) (A)
                 (A) (A) (A) (A) (A) (A) (A) (A) (A) (A) (A) (A)
                 (A) (A) (A) (A) (A) (A) (A) (A) (A) (A) (A) (A)
                 (A) (A) (A) (A) (A) (A) (A) (A) (A) (A) (A) (A)
                 (A) (A) (A) (A) (A) (A) (A) (A) (A) (A) (A) (A)
                 (A) (A) (A) (A) (A) (A) (A) (A) (A) (A) (A) (A)
                 (A) (A) (A) (A) (A) (A) (A) (A) (A) (A) (A) (A)
                 (A) (A) (A) (A) (A) (A) (A) (A) (A) (A) (A) (A)
                 (A) (A) (A) (A) (A) (A) (A) (A) (A) (A) (A) (A)
                 (A) (A) (A) (A) (A) (A) (A) (A) (A) (A) (A) (A)
                 (A) (A) (A) (A) (A) (A) (A) (A) (A) (A) (A) (A)
                 (A) (A) (A) (A) (A) (A) (A) (A) (A) (A) (A) (A)
                 (A) (A) (A) (A) (A) (A) (A) (A) (A) (A) (A) (A)
                 (A) (A) (A) (A) (A) (A) (A) (A) (A) (A) (A) (A)
                 (A) (A) (A) (A) (A) (A) (A) (A) (A) (A) (A) (A)
                 (A) (A) (A) (A) (A) (A) (A) (A) (A) (A) (A) (A)
                 (A) (A) (A) (A) (A) (A) (A) (A) (A) (A) (A) (A)
                 (A) (A) (A) (A) (A) (A) (A) (A) (A) (A) (A) (A)
                 (A) (A) (A) (A) (A) (A) (A) (A) (A) (A) (A) (A)
                 (A) (A) (A) (A) (A) (A) (A) (A) (A) (A) (A) (A)
                 (A) (A) (A) (A) (A) (A) (A) (A) (A) (A) (A) (A)
                 (A) (A) (A) (A) (A) (A) (A) (A) (A) (A) (A) (A)
                 (A) (A) (A) (A) (A) (A) (A) (A) (A) (A) (A) (A)
                 (A) (A) (A) (A) (A) (A) (A) (A) (A) (A) (A) (A)
                 (A) (A) (A) (A) (A) (A) (A) (A) (A) (A) (A) (A)
                 (A) (A) (A) (A) (A) (A) (A) (A) (A) (A) (A) (A)
                 (A) (A) (A) (A) (A) (A) (A) (A) (A) (A) (A) (A)
                 (A) (A) (A) (A) (A) (A) (A) (A) (A) (A) (A) (A)
                 (A) (A) (A) (A) (A) (A) (A) (A) (A) (A) (A) (A)
                 (A) (A) (A) (A) (A) (A) (A) (A) (A) (A) (A) (A)
                 (A) (A) (A) (A) (A) (A) (A) (A) (A) (A) (A) (A)
                 (A) (A) (A) (A) (A) (A) (A) (A) (A) (A) (A) (A)
                 (A) (A) (A) (A) (A) (A) (A) (A) (A) (A) (A) (A)
                 (A) (A) (A) (A) (A) (A) (A) (A) (A) (A) (A) (A)
                 (A) (A) (A) (A) (A) (A) (A) (A) (A) (A) (A) (A)
                 (A) (A) (A) (A) (A) (A) (A) (A) (A) (A) (A) (A)
                 (A) (A) (A) (A) (A) (A) (A) (A) (A) (A) (A) (A)
                 (A) (A) (A) (A) (A) (A) (A) (A) (A) (A) (A) (A)
                 (A) (A) (A) (A) (A) (A) (A) (A) (A) (A) (A) (A)
                 (A) (A) (A) (A) (A) (A) (A) (A) (A) (A) (A) (A)
                 (A) (A) (A) (A) (A) (A) (A) (A) (A) (A) (A) (A)
                 (A) (A) (A) (A) (A) (A) (A) (A) (A) (A) (A) (A)
                 (A) (A) (A) (A) (A) (A) (A) (A) (A) (A) (A) (A)
                 (A) (A) (A) (A) (A) (A) (A) (A) (A) (A) (A) (A)
                 (A) (A) (A) (A) (A) (A) (A) (A) (A) (A) (A) (A)
                 (A) (A) (A) (A) (A) (A) (A) (A) (A) (A) (A) (A)
                 (A) (A) (A) (A) (A) (A) (A) (A) (A) (A) (A) (A)
                 (A) (A) (A) (A) (A) (A) (A) (A) (A) (A) (A) (A)
                 (A) (A) (A) (A) (A) (A) (A) (A) (A) (A) (A) (A)
                 (A) (A) (A) (A) (A) (A) (A) (A) (A) (A) (A) (A)
                 (A) (A) (A) (A) (A) (A) (A) (A) (A) (A) (A) (A)
                 (A) (A) (A) (A) (A) (A) (A) (A) (A) (A) (A) (A)
                 (A) (A) (A) (A) (A) (A) (A) (A) (A) (A) (A) (A)
                 (A) (A) (A) (A) (A) (A)
 The electronic state is 2-A.
 Alpha  occ. eigenvalues -- -256.39837 -89.11100 -30.26548 -26.11089 -26.10990
 Alpha  occ. eigenvalues --  -26.08478 -19.30588 -14.47520 -14.47088 -14.46631
 Alpha  occ. eigenvalues --  -14.46525 -10.34408 -10.33909 -10.33748 -10.33464
 Alpha  occ. eigenvalues --  -10.33458 -10.33437 -10.33365 -10.33273 -10.33253
 Alpha  occ. eigenvalues --  -10.30950 -10.30631 -10.30622 -10.30479 -10.30427
 Alpha  occ. eigenvalues --  -10.30348 -10.30337 -10.30291 -10.30271 -10.30139
 Alpha  occ. eigenvalues --  -10.30059 -10.29953 -10.29622 -10.29093 -10.28551
 Alpha  occ. eigenvalues --  -10.28450 -10.28435 -10.28373 -10.28369 -10.28325
 Alpha  occ. eigenvalues --  -10.28135 -10.27792  -8.13804  -6.08311  -6.08060
 Alpha  occ. eigenvalues --   -6.07662  -3.65222  -2.43389  -2.42933  -2.37541
 Alpha  occ. eigenvalues --   -1.18212  -1.09980  -1.09152  -1.08666  -1.07882
 Alpha  occ. eigenvalues --   -0.94439  -0.93935  -0.93144  -0.92595  -0.92196
 Alpha  occ. eigenvalues --   -0.91821  -0.91546  -0.91501  -0.87536  -0.86295
 Alpha  occ. eigenvalues --   -0.86101  -0.85020  -0.83585  -0.82027  -0.80981
 Alpha  occ. eigenvalues --   -0.79496  -0.79185  -0.79057  -0.78760  -0.75993
 Alpha  occ. eigenvalues --   -0.75928  -0.73683  -0.71566  -0.70761  -0.69678
 Alpha  occ. eigenvalues --   -0.69109  -0.65986  -0.65267  -0.64462  -0.64264
 Alpha  occ. eigenvalues --   -0.62789  -0.62641  -0.62299  -0.60172  -0.59759
 Alpha  occ. eigenvalues --   -0.59086  -0.58911  -0.57863  -0.57019  -0.56328
 Alpha  occ. eigenvalues --   -0.55660  -0.55436  -0.54880  -0.54743  -0.54472
 Alpha  occ. eigenvalues --   -0.54263  -0.54085  -0.53933  -0.53488  -0.53195
 Alpha  occ. eigenvalues --   -0.52772  -0.52703  -0.51746  -0.51416  -0.51275
 Alpha  occ. eigenvalues --   -0.51117  -0.51018  -0.50924  -0.50901  -0.50522
 Alpha  occ. eigenvalues --   -0.50312  -0.49944  -0.49592  -0.49325  -0.49040
 Alpha  occ. eigenvalues --   -0.48798  -0.48707  -0.48326  -0.48244  -0.47478
 Alpha  occ. eigenvalues --   -0.47240  -0.47162  -0.46865  -0.46275  -0.45638
 Alpha  occ. eigenvalues --   -0.45211  -0.44375  -0.44172  -0.43718  -0.43231
 Alpha  occ. eigenvalues --   -0.42613  -0.42229  -0.41635  -0.41148  -0.40403
 Alpha  occ. eigenvalues --   -0.39959  -0.38390  -0.38077  -0.34817  -0.34245
 Alpha  occ. eigenvalues --   -0.33563  -0.32736  -0.30805  -0.29825
 Alpha virt. eigenvalues --   -0.21824  -0.18714  -0.18625  -0.16010  -0.12973
 Alpha virt. eigenvalues --   -0.11164  -0.09751  -0.08594  -0.08293  -0.06764
 Alpha virt. eigenvalues --   -0.06480  -0.04912  -0.04465  -0.03554  -0.03166
 Alpha virt. eigenvalues --   -0.02944  -0.02797  -0.02310  -0.01899  -0.01227
 Alpha virt. eigenvalues --   -0.01094  -0.00494  -0.00119   0.00258   0.00658
 Alpha virt. eigenvalues --    0.01074   0.01322   0.01696   0.01846   0.01989
 Alpha virt. eigenvalues --    0.02207   0.02433   0.02575   0.02808   0.02910
 Alpha virt. eigenvalues --    0.03298   0.03413   0.04007   0.04154   0.04239
 Alpha virt. eigenvalues --    0.04629   0.04644   0.04905   0.05152   0.05296
 Alpha virt. eigenvalues --    0.05720   0.06192   0.06642   0.06825   0.06827
 Alpha virt. eigenvalues --    0.06990   0.07265   0.07449   0.07569   0.07882
 Alpha virt. eigenvalues --    0.08127   0.08252   0.08522   0.08643   0.08965
 Alpha virt. eigenvalues --    0.09561   0.10018   0.10124   0.10235   0.10713
 Alpha virt. eigenvalues --    0.10758   0.11034   0.11282   0.11683   0.11978
 Alpha virt. eigenvalues --    0.12180   0.12341   0.12524   0.12949   0.13327
 Alpha virt. eigenvalues --    0.13393   0.13951   0.14122   0.14505   0.14842
 Alpha virt. eigenvalues --    0.15077   0.15658   0.15899   0.16428   0.16737
 Alpha virt. eigenvalues --    0.16819   0.16960   0.17147   0.17301   0.17595
 Alpha virt. eigenvalues --    0.17954   0.18077   0.18790   0.18877   0.19075
 Alpha virt. eigenvalues --    0.19427   0.19711   0.19851   0.20205   0.20347
 Alpha virt. eigenvalues --    0.20655   0.20948   0.21064   0.21510   0.21868
 Alpha virt. eigenvalues --    0.22152   0.22458   0.22652   0.22727   0.23442
 Alpha virt. eigenvalues --    0.23553   0.23712   0.24081   0.24342   0.24754
 Alpha virt. eigenvalues --    0.25021   0.25502   0.25730   0.26162   0.26684
 Alpha virt. eigenvalues --    0.26985   0.27270   0.27676   0.27804   0.28184
 Alpha virt. eigenvalues --    0.28568   0.28727   0.28949   0.29131   0.29219
 Alpha virt. eigenvalues --    0.29664   0.29902   0.29912   0.30031   0.30341
 Alpha virt. eigenvalues --    0.30664   0.30842   0.31232   0.31471   0.31689
 Alpha virt. eigenvalues --    0.32016   0.32087   0.32339   0.32664   0.33184
 Alpha virt. eigenvalues --    0.33330   0.33460   0.33745   0.33993   0.34110
 Alpha virt. eigenvalues --    0.34518   0.34783   0.35249   0.35384   0.35499
 Alpha virt. eigenvalues --    0.35935   0.35989   0.36338   0.36544   0.36811
 Alpha virt. eigenvalues --    0.37120   0.37487   0.37734   0.37925   0.37954
 Alpha virt. eigenvalues --    0.38242   0.38435   0.38541   0.39046   0.39212
 Alpha virt. eigenvalues --    0.39527   0.39723   0.40361   0.40458   0.40517
 Alpha virt. eigenvalues --    0.40823   0.41016   0.41324   0.41467   0.41662
 Alpha virt. eigenvalues --    0.41797   0.42054   0.42416   0.42617   0.42700
 Alpha virt. eigenvalues --    0.43116   0.43253   0.43328   0.43560   0.43813
 Alpha virt. eigenvalues --    0.44331   0.44459   0.44585   0.44767   0.45173
 Alpha virt. eigenvalues --    0.45393   0.45856   0.45984   0.46268   0.46521
 Alpha virt. eigenvalues --    0.46821   0.47045   0.47245   0.47411   0.47650
 Alpha virt. eigenvalues --    0.48408   0.48585   0.48796   0.49180   0.49854
 Alpha virt. eigenvalues --    0.49928   0.50264   0.50747   0.50986   0.51633
 Alpha virt. eigenvalues --    0.51781   0.52180   0.52447   0.52565   0.52971
 Alpha virt. eigenvalues --    0.53043   0.53530   0.53808   0.54090   0.54739
 Alpha virt. eigenvalues --    0.55107   0.55198   0.55481   0.55774   0.56226
 Alpha virt. eigenvalues --    0.56497   0.56904   0.57145   0.57568   0.57637
 Alpha virt. eigenvalues --    0.57926   0.58226   0.58950   0.59039   0.59429
 Alpha virt. eigenvalues --    0.59793   0.59997   0.60602   0.60881   0.61070
 Alpha virt. eigenvalues --    0.61328   0.62021   0.62188   0.62470   0.62554
 Alpha virt. eigenvalues --    0.62838   0.62980   0.63349   0.63722   0.64458
 Alpha virt. eigenvalues --    0.64749   0.64943   0.65534   0.65645   0.65927
 Alpha virt. eigenvalues --    0.66183   0.66529   0.66980   0.67171   0.68064
 Alpha virt. eigenvalues --    0.68315   0.68433   0.68805   0.68890   0.69491
 Alpha virt. eigenvalues --    0.69519   0.70242   0.70496   0.70807   0.71225
 Alpha virt. eigenvalues --    0.71593   0.71975   0.72571   0.73509   0.73779
 Alpha virt. eigenvalues --    0.74267   0.74727   0.75404   0.75756   0.75995
 Alpha virt. eigenvalues --    0.76158   0.76632   0.77396   0.78016   0.78276
 Alpha virt. eigenvalues --    0.78584   0.79171   0.79604   0.79755   0.80322
 Alpha virt. eigenvalues --    0.80694   0.81044   0.81364   0.81745   0.81881
 Alpha virt. eigenvalues --    0.82959   0.83077   0.83323   0.83525   0.84134
 Alpha virt. eigenvalues --    0.84591   0.85321   0.85653   0.85916   0.86358
 Alpha virt. eigenvalues --    0.86381   0.87192   0.87596   0.87864   0.88307
 Alpha virt. eigenvalues --    0.88818   0.88988   0.89323   0.89482   0.89825
 Alpha virt. eigenvalues --    0.90100   0.90786   0.91182   0.91322   0.91636
 Alpha virt. eigenvalues --    0.91942   0.91962   0.92276   0.92501   0.92860
 Alpha virt. eigenvalues --    0.92924   0.93538   0.94089   0.94339   0.94514
 Alpha virt. eigenvalues --    0.95120   0.95651   0.95712   0.95991   0.96430
 Alpha virt. eigenvalues --    0.96870   0.97451   0.97501   0.98279   0.98579
 Alpha virt. eigenvalues --    0.99110   0.99636   1.00497   1.01232   1.01344
 Alpha virt. eigenvalues --    1.02232   1.02490   1.03298   1.03735   1.04510
 Alpha virt. eigenvalues --    1.05211   1.05486   1.05839   1.06483   1.06738
 Alpha virt. eigenvalues --    1.07219   1.07566   1.08078   1.08850   1.09048
 Alpha virt. eigenvalues --    1.09525   1.09892   1.10085   1.10297   1.10714
 Alpha virt. eigenvalues --    1.11125   1.11409   1.11785   1.12455   1.12782
 Alpha virt. eigenvalues --    1.13733   1.14311   1.15008   1.15665   1.15743
 Alpha virt. eigenvalues --    1.15841   1.16420   1.16601   1.16875   1.17310
 Alpha virt. eigenvalues --    1.17750   1.17866   1.18131   1.18957   1.19113
 Alpha virt. eigenvalues --    1.19505   1.19914   1.21058   1.21274   1.21929
 Alpha virt. eigenvalues --    1.22157   1.23028   1.23718   1.24631   1.25654
 Alpha virt. eigenvalues --    1.25931   1.26404   1.26903   1.27650   1.29010
 Alpha virt. eigenvalues --    1.29501   1.29912   1.30188   1.30355   1.30900
 Alpha virt. eigenvalues --    1.31683   1.31986   1.32636   1.33430   1.34060
 Alpha virt. eigenvalues --    1.34275   1.34595   1.35015   1.35523   1.35790
 Alpha virt. eigenvalues --    1.36182   1.36345   1.37199   1.37266   1.37829
 Alpha virt. eigenvalues --    1.38342   1.38635   1.39074   1.39419   1.39855
 Alpha virt. eigenvalues --    1.40364   1.40541   1.40827   1.41260   1.41380
 Alpha virt. eigenvalues --    1.41719   1.42192   1.42459   1.42745   1.43266
 Alpha virt. eigenvalues --    1.43654   1.44093   1.44254   1.44886   1.45151
 Alpha virt. eigenvalues --    1.45503   1.45703   1.45876   1.46027   1.46481
 Alpha virt. eigenvalues --    1.46556   1.46924   1.47179   1.47385   1.47662
 Alpha virt. eigenvalues --    1.47890   1.48272   1.48541   1.48671   1.49049
 Alpha virt. eigenvalues --    1.49417   1.49698   1.49855   1.49929   1.50919
 Alpha virt. eigenvalues --    1.51312   1.51360   1.51578   1.51936   1.52093
 Alpha virt. eigenvalues --    1.52397   1.53123   1.53598   1.53948   1.54132
 Alpha virt. eigenvalues --    1.54417   1.54811   1.55165   1.55318   1.55582
 Alpha virt. eigenvalues --    1.55742   1.56186   1.56730   1.57093   1.57259
 Alpha virt. eigenvalues --    1.57516   1.57752   1.58366   1.58497   1.58831
 Alpha virt. eigenvalues --    1.59323   1.59455   1.59865   1.60321   1.60716
 Alpha virt. eigenvalues --    1.60859   1.61159   1.61989   1.62104   1.62441
 Alpha virt. eigenvalues --    1.62753   1.63447   1.63777   1.63900   1.65084
 Alpha virt. eigenvalues --    1.65469   1.65830   1.66406   1.66662   1.67921
 Alpha virt. eigenvalues --    1.68164   1.69070   1.69892   1.70244   1.70346
 Alpha virt. eigenvalues --    1.71185   1.71660   1.72127   1.72675   1.73211
 Alpha virt. eigenvalues --    1.73636   1.74119   1.74505   1.74813   1.75072
 Alpha virt. eigenvalues --    1.75622   1.75801   1.76242   1.76947   1.77464
 Alpha virt. eigenvalues --    1.77700   1.78135   1.78531   1.79050   1.79269
 Alpha virt. eigenvalues --    1.79665   1.80532   1.80607   1.80874   1.82116
 Alpha virt. eigenvalues --    1.82564   1.83004   1.83239   1.84036   1.84584
 Alpha virt. eigenvalues --    1.85300   1.85727   1.86100   1.86390   1.86950
 Alpha virt. eigenvalues --    1.87540   1.88271   1.88633   1.89340   1.89413
 Alpha virt. eigenvalues --    1.89982   1.90184   1.90544   1.90634   1.91466
 Alpha virt. eigenvalues --    1.91594   1.91880   1.92655   1.93354   1.94096
 Alpha virt. eigenvalues --    1.95212   1.95404   1.95959   1.96597   1.97030
 Alpha virt. eigenvalues --    1.98012   1.98133   1.98359   1.98672   1.99092
 Alpha virt. eigenvalues --    1.99354   1.99680   2.00553   2.01329   2.01779
 Alpha virt. eigenvalues --    2.02163   2.02448   2.02997   2.03471   2.04103
 Alpha virt. eigenvalues --    2.04239   2.04659   2.05532   2.05903   2.06707
 Alpha virt. eigenvalues --    2.07478   2.07630   2.08487   2.08837   2.09270
 Alpha virt. eigenvalues --    2.09808   2.09931   2.10744   2.11471   2.12049
 Alpha virt. eigenvalues --    2.12485   2.12990   2.14223   2.14241   2.14782
 Alpha virt. eigenvalues --    2.15239   2.15357   2.16244   2.16602   2.16982
 Alpha virt. eigenvalues --    2.17197   2.17916   2.18294   2.18550   2.18943
 Alpha virt. eigenvalues --    2.19736   2.20009   2.20187   2.20802   2.21266
 Alpha virt. eigenvalues --    2.22018   2.22786   2.23231   2.23519   2.24297
 Alpha virt. eigenvalues --    2.24714   2.25282   2.25538   2.25699   2.26524
 Alpha virt. eigenvalues --    2.26935   2.27143   2.27673   2.27913   2.27982
 Alpha virt. eigenvalues --    2.28658   2.28968   2.29159   2.29903   2.30363
 Alpha virt. eigenvalues --    2.30554   2.30885   2.31374   2.31794   2.32404
 Alpha virt. eigenvalues --    2.33255   2.33582   2.34384   2.34787   2.34995
 Alpha virt. eigenvalues --    2.35392   2.35759   2.36419   2.36865   2.36983
 Alpha virt. eigenvalues --    2.37806   2.38030   2.38299   2.38540   2.40003
 Alpha virt. eigenvalues --    2.40507   2.41126   2.42160   2.42320   2.43104
 Alpha virt. eigenvalues --    2.43346   2.43412   2.43781   2.44365   2.44652
 Alpha virt. eigenvalues --    2.45300   2.45488   2.45805   2.46661   2.46889
 Alpha virt. eigenvalues --    2.47063   2.47517   2.47907   2.48172   2.48472
 Alpha virt. eigenvalues --    2.48864   2.49266   2.49601   2.49892   2.50342
 Alpha virt. eigenvalues --    2.50611   2.51046   2.51695   2.51885   2.52214
 Alpha virt. eigenvalues --    2.52300   2.53650   2.54226   2.54372   2.54924
 Alpha virt. eigenvalues --    2.55241   2.55507   2.55665   2.56045   2.56303
 Alpha virt. eigenvalues --    2.56847   2.57543   2.58040   2.58238   2.58871
 Alpha virt. eigenvalues --    2.59241   2.59449   2.59894   2.60099   2.60416
 Alpha virt. eigenvalues --    2.60969   2.61462   2.61748   2.61852   2.62857
 Alpha virt. eigenvalues --    2.63655   2.64169   2.64257   2.65033   2.65667
 Alpha virt. eigenvalues --    2.65859   2.66612   2.66905   2.67161   2.67794
 Alpha virt. eigenvalues --    2.68179   2.68385   2.69042   2.69630   2.70105
 Alpha virt. eigenvalues --    2.70945   2.71180   2.71598   2.72012   2.72219
 Alpha virt. eigenvalues --    2.72674   2.73149   2.73980   2.74242   2.74425
 Alpha virt. eigenvalues --    2.74995   2.75222   2.75492   2.76404   2.77143
 Alpha virt. eigenvalues --    2.77600   2.77717   2.78390   2.78565   2.79054
 Alpha virt. eigenvalues --    2.79185   2.79825   2.80154   2.80839   2.80856
 Alpha virt. eigenvalues --    2.81233   2.81734   2.82205   2.82743   2.83117
 Alpha virt. eigenvalues --    2.83686   2.83867   2.84511   2.84924   2.85486
 Alpha virt. eigenvalues --    2.86306   2.86481   2.86613   2.87248   2.87358
 Alpha virt. eigenvalues --    2.87647   2.88179   2.88434   2.89468   2.89736
 Alpha virt. eigenvalues --    2.89840   2.90648   2.91269   2.92084   2.92410
 Alpha virt. eigenvalues --    2.92898   2.93112   2.93465   2.94312   2.94456
 Alpha virt. eigenvalues --    2.94735   2.95200   2.95524   2.96634   2.96844
 Alpha virt. eigenvalues --    2.97394   2.97591   2.97861   2.98331   2.98526
 Alpha virt. eigenvalues --    2.98858   2.99216   3.00050   3.00485   3.00578
 Alpha virt. eigenvalues --    3.00779   3.01258   3.01442   3.01914   3.02176
 Alpha virt. eigenvalues --    3.02501   3.02970   3.03241   3.03746   3.04416
 Alpha virt. eigenvalues --    3.04578   3.04736   3.05099   3.05507   3.05851
 Alpha virt. eigenvalues --    3.06726   3.06947   3.07269   3.07368   3.08043
 Alpha virt. eigenvalues --    3.08710   3.08818   3.09290   3.09720   3.10013
 Alpha virt. eigenvalues --    3.10190   3.10306   3.10596   3.10835   3.11283
 Alpha virt. eigenvalues --    3.11570   3.12331   3.12805   3.12970   3.13733
 Alpha virt. eigenvalues --    3.13820   3.13984   3.14660   3.14927   3.14984
 Alpha virt. eigenvalues --    3.15275   3.15365   3.15852   3.16031   3.16278
 Alpha virt. eigenvalues --    3.16541   3.17005   3.17211   3.17429   3.18134
 Alpha virt. eigenvalues --    3.18650   3.18757   3.19008   3.19316   3.19798
 Alpha virt. eigenvalues --    3.20500   3.20727   3.20965   3.21111   3.21567
 Alpha virt. eigenvalues --    3.21803   3.22096   3.22540   3.22868   3.23052
 Alpha virt. eigenvalues --    3.23329   3.23488   3.23914   3.24008   3.24423
 Alpha virt. eigenvalues --    3.24652   3.24848   3.25186   3.25521   3.25974
 Alpha virt. eigenvalues --    3.26405   3.26651   3.26778   3.27243   3.27457
 Alpha virt. eigenvalues --    3.27653   3.27976   3.28121   3.28203   3.28784
 Alpha virt. eigenvalues --    3.29135   3.29634   3.30022   3.30393   3.30509
 Alpha virt. eigenvalues --    3.30855   3.31499   3.31885   3.32199   3.32708
 Alpha virt. eigenvalues --    3.32868   3.33266   3.33969   3.34152   3.34450
 Alpha virt. eigenvalues --    3.35271   3.35565   3.35959   3.36008   3.37079
 Alpha virt. eigenvalues --    3.37464   3.38089   3.38504   3.38520   3.38785
 Alpha virt. eigenvalues --    3.40306   3.40391   3.40860   3.41504   3.41874
 Alpha virt. eigenvalues --    3.42844   3.43100   3.44196   3.45186   3.45362
 Alpha virt. eigenvalues --    3.45764   3.46444   3.46637   3.46904   3.47507
 Alpha virt. eigenvalues --    3.47827   3.48530   3.48790   3.49296   3.49729
 Alpha virt. eigenvalues --    3.49862   3.50252   3.50818   3.50943   3.51635
 Alpha virt. eigenvalues --    3.52370   3.52730   3.54393   3.54618   3.55035
 Alpha virt. eigenvalues --    3.55299   3.55796   3.56613   3.57457   3.57864
 Alpha virt. eigenvalues --    3.58102   3.58766   3.59922   3.60016   3.60435
 Alpha virt. eigenvalues --    3.60898   3.61251   3.61599   3.61778   3.62410
 Alpha virt. eigenvalues --    3.62676   3.63195   3.63552   3.63969   3.64137
 Alpha virt. eigenvalues --    3.64481   3.64720   3.65409   3.66251   3.67201
 Alpha virt. eigenvalues --    3.67730   3.68025   3.68917   3.69784   3.70150
 Alpha virt. eigenvalues --    3.70511   3.71302   3.71707   3.72227   3.73411
 Alpha virt. eigenvalues --    3.73803   3.74239   3.74673   3.75744   3.76015
 Alpha virt. eigenvalues --    3.76603   3.77184   3.77767   3.77891   3.79317
 Alpha virt. eigenvalues --    3.79908   3.81009   3.81387   3.81744   3.82000
 Alpha virt. eigenvalues --    3.82868   3.85236   3.85417   3.86237   3.86869
 Alpha virt. eigenvalues --    3.87886   3.88254   3.88598   3.89000   3.89301
 Alpha virt. eigenvalues --    3.89598   3.90294   3.90921   3.91738   3.91884
 Alpha virt. eigenvalues --    3.93017   3.93436   3.94080   3.94156   3.94948
 Alpha virt. eigenvalues --    3.95971   3.96279   3.97702   3.97901   3.98258
 Alpha virt. eigenvalues --    3.99509   3.99814   4.00093   4.01154   4.01767
 Alpha virt. eigenvalues --    4.01853   4.03174   4.03909   4.04257   4.05097
 Alpha virt. eigenvalues --    4.05313   4.05748   4.06232   4.07130   4.07509
 Alpha virt. eigenvalues --    4.07723   4.08616   4.09607   4.10310   4.10835
 Alpha virt. eigenvalues --    4.11334   4.11507   4.12840   4.13577   4.13644
 Alpha virt. eigenvalues --    4.14131   4.14764   4.15008   4.16868   4.16955
 Alpha virt. eigenvalues --    4.17490   4.18390   4.18959   4.19920   4.20406
 Alpha virt. eigenvalues --    4.21019   4.21660   4.22178   4.22706   4.22839
 Alpha virt. eigenvalues --    4.23384   4.24258   4.24660   4.25112   4.26343
 Alpha virt. eigenvalues --    4.27279   4.28035   4.28559   4.29319   4.30354
 Alpha virt. eigenvalues --    4.30841   4.31189   4.31400   4.32281   4.32861
 Alpha virt. eigenvalues --    4.32996   4.34094   4.34470   4.35026   4.35688
 Alpha virt. eigenvalues --    4.35995   4.36707   4.37658   4.38583   4.40168
 Alpha virt. eigenvalues --    4.40364   4.41683   4.41775   4.42758   4.43608
 Alpha virt. eigenvalues --    4.44246   4.45558   4.46019   4.46788   4.47336
 Alpha virt. eigenvalues --    4.48340   4.51124   4.51884   4.52648   4.53762
 Alpha virt. eigenvalues --    4.54894   4.56437   4.56941   4.57231   4.57638
 Alpha virt. eigenvalues --    4.58031   4.59899   4.60803   4.63061   4.63353
 Alpha virt. eigenvalues --    4.64561   4.65258   4.66857   4.68441   4.69042
 Alpha virt. eigenvalues --    4.69718   4.71424   4.71545   4.72370   4.73045
 Alpha virt. eigenvalues --    4.73171   4.73746   4.74280   4.75920   4.76975
 Alpha virt. eigenvalues --    4.77338   4.78278   4.79341   4.80462   4.81682
 Alpha virt. eigenvalues --    4.82681   4.83995   4.84771   4.85626   4.87606
 Alpha virt. eigenvalues --    4.88643   4.89355   4.90323   4.91066   4.92106
 Alpha virt. eigenvalues --    4.92408   4.92991   4.93684   4.95436   4.96364
 Alpha virt. eigenvalues --    4.97537   4.98084   5.01233   5.02092   5.03590
 Alpha virt. eigenvalues --    5.04176   5.05763   5.07609   5.08538   5.09112
 Alpha virt. eigenvalues --    5.10278   5.11631   5.12872   5.13746   5.14249
 Alpha virt. eigenvalues --    5.15176   5.15860   5.17501   5.23517   5.24677
 Alpha virt. eigenvalues --    5.25200   5.25504   5.25780   5.26879   5.26992
 Alpha virt. eigenvalues --    5.27212   5.27988   5.30991   5.35725   5.36124
 Alpha virt. eigenvalues --    5.37835   5.38114   5.38627   5.39910   5.40052
 Alpha virt. eigenvalues --    5.43371   5.46403   5.48410   5.49004   5.49381
 Alpha virt. eigenvalues --    5.50132   5.51269   5.54502   5.55516   5.56309
 Alpha virt. eigenvalues --    5.61144   5.62542   5.63797   5.65443   5.66293
 Alpha virt. eigenvalues --    5.74984   5.75306   5.77414   5.79151   5.88083
 Alpha virt. eigenvalues --    5.88325   5.89530   5.97067   5.98872   5.99639
 Alpha virt. eigenvalues --    6.00219   6.06305   6.10786   6.13227   6.20658
 Alpha virt. eigenvalues --    6.21504   6.28604   6.35009   6.37329   6.39396
 Alpha virt. eigenvalues --    6.53175   6.83223   7.14591   8.93698   9.09260
 Alpha virt. eigenvalues --    9.26325  19.48036  22.21425  22.25894  22.26667
 Alpha virt. eigenvalues --   22.36286  22.37054  22.43024  22.43788  22.52412
 Alpha virt. eigenvalues --   22.52700  22.73358  22.76663  22.80001  22.82319
 Alpha virt. eigenvalues --   22.83136  22.84479  22.85396  22.91788  22.92241
 Alpha virt. eigenvalues --   23.02895  23.15286  23.19014  23.19805  23.28682
 Alpha virt. eigenvalues --   23.30423  23.38990  23.39536  23.44062  23.63059
 Alpha virt. eigenvalues --   23.67385  23.67999  23.76952  32.75298  32.77557
 Alpha virt. eigenvalues --   32.79235  32.90646  43.80308
  Beta  occ. eigenvalues -- -256.39801 -89.11133 -30.24298 -26.08610 -26.08524
  Beta  occ. eigenvalues --  -26.07794 -19.30588 -14.47555 -14.47128 -14.46703
  Beta  occ. eigenvalues --  -14.46599 -10.34411 -10.33900 -10.33747 -10.33465
  Beta  occ. eigenvalues --  -10.33439 -10.33423 -10.33356 -10.33275 -10.33253
  Beta  occ. eigenvalues --  -10.30928 -10.30637 -10.30616 -10.30483 -10.30405
  Beta  occ. eigenvalues --  -10.30337 -10.30330 -10.30294 -10.30288 -10.30146
  Beta  occ. eigenvalues --  -10.30064 -10.29955 -10.29628 -10.29094 -10.28553
  Beta  occ. eigenvalues --  -10.28452 -10.28435 -10.28374 -10.28369 -10.28314
  Beta  occ. eigenvalues --  -10.28135 -10.27789  -8.13836  -6.08331  -6.08103
  Beta  occ. eigenvalues --   -6.07743  -3.59757  -2.36024  -2.35407  -2.34964
  Beta  occ. eigenvalues --   -1.18215  -1.09993  -1.09136  -1.08731  -1.07915
  Beta  occ. eigenvalues --   -0.94441  -0.94046  -0.93129  -0.92608  -0.92175
  Beta  occ. eigenvalues --   -0.91826  -0.91571  -0.91507  -0.87529  -0.86292
  Beta  occ. eigenvalues --   -0.86122  -0.85019  -0.83584  -0.82024  -0.80987
  Beta  occ. eigenvalues --   -0.79533  -0.79202  -0.79074  -0.78779  -0.75989
  Beta  occ. eigenvalues --   -0.75929  -0.73658  -0.71560  -0.70764  -0.69672
  Beta  occ. eigenvalues --   -0.69087  -0.65986  -0.65274  -0.64459  -0.64256
  Beta  occ. eigenvalues --   -0.62801  -0.62665  -0.62311  -0.60153  -0.59725
  Beta  occ. eigenvalues --   -0.59088  -0.58915  -0.57857  -0.56990  -0.56148
  Beta  occ. eigenvalues --   -0.55649  -0.55385  -0.54863  -0.54618  -0.54473
  Beta  occ. eigenvalues --   -0.54212  -0.54036  -0.53927  -0.53507  -0.53190
  Beta  occ. eigenvalues --   -0.52768  -0.52689  -0.51370  -0.51268  -0.51233
  Beta  occ. eigenvalues --   -0.51094  -0.51021  -0.50876  -0.50776  -0.50499
  Beta  occ. eigenvalues --   -0.50225  -0.49879  -0.49545  -0.49223  -0.49028
  Beta  occ. eigenvalues --   -0.48626  -0.48537  -0.48197  -0.48056  -0.47453
  Beta  occ. eigenvalues --   -0.47158  -0.47029  -0.46461  -0.45637  -0.45128
  Beta  occ. eigenvalues --   -0.44378  -0.44018  -0.43592  -0.43054  -0.42720
  Beta  occ. eigenvalues --   -0.42334  -0.40904  -0.40348  -0.39847  -0.39021
  Beta  occ. eigenvalues --   -0.38326  -0.37750  -0.34844  -0.34184  -0.33705
  Beta  occ. eigenvalues --   -0.32672  -0.30784  -0.29749
  Beta virt. eigenvalues --   -0.21835  -0.19141  -0.18652  -0.17736  -0.13170
  Beta virt. eigenvalues --   -0.12873  -0.11157  -0.09671  -0.08542  -0.08292
  Beta virt. eigenvalues --   -0.06694  -0.06464  -0.04899  -0.04458  -0.03437
  Beta virt. eigenvalues --   -0.03087  -0.02939  -0.02686  -0.02296  -0.01872
  Beta virt. eigenvalues --   -0.01218  -0.01067  -0.00475  -0.00105   0.00277
  Beta virt. eigenvalues --    0.00670   0.01080   0.01337   0.01731   0.01852
  Beta virt. eigenvalues --    0.02008   0.02220   0.02454   0.02605   0.02822
  Beta virt. eigenvalues --    0.02944   0.03316   0.03420   0.04018   0.04166
  Beta virt. eigenvalues --    0.04252   0.04627   0.04677   0.04912   0.05159
  Beta virt. eigenvalues --    0.05311   0.05723   0.06210   0.06644   0.06837
  Beta virt. eigenvalues --    0.06850   0.07095   0.07302   0.07459   0.07582
  Beta virt. eigenvalues --    0.07909   0.08134   0.08273   0.08543   0.08690
  Beta virt. eigenvalues --    0.08969   0.09579   0.10020   0.10144   0.10266
  Beta virt. eigenvalues --    0.10743   0.10769   0.11056   0.11289   0.11701
  Beta virt. eigenvalues --    0.12008   0.12184   0.12347   0.12545   0.12952
  Beta virt. eigenvalues --    0.13329   0.13400   0.13968   0.14138   0.14591
  Beta virt. eigenvalues --    0.14944   0.15242   0.15768   0.15908   0.16458
  Beta virt. eigenvalues --    0.16758   0.16833   0.16991   0.17161   0.17340
  Beta virt. eigenvalues --    0.17614   0.18031   0.18157   0.18805   0.18881
  Beta virt. eigenvalues --    0.19117   0.19455   0.19741   0.19863   0.20214
  Beta virt. eigenvalues --    0.20365   0.20680   0.20961   0.21098   0.21522
  Beta virt. eigenvalues --    0.21874   0.22171   0.22540   0.22682   0.22755
  Beta virt. eigenvalues --    0.23458   0.23568   0.23813   0.24128   0.24351
  Beta virt. eigenvalues --    0.24965   0.25095   0.25547   0.25742   0.26178
  Beta virt. eigenvalues --    0.26698   0.27007   0.27304   0.27711   0.27821
  Beta virt. eigenvalues --    0.28217   0.28602   0.28775   0.29000   0.29168
  Beta virt. eigenvalues --    0.29228   0.29679   0.29920   0.29930   0.30057
  Beta virt. eigenvalues --    0.30366   0.30683   0.30866   0.31242   0.31490
  Beta virt. eigenvalues --    0.31700   0.32034   0.32099   0.32356   0.32732
  Beta virt. eigenvalues --    0.33240   0.33332   0.33478   0.33755   0.34019
  Beta virt. eigenvalues --    0.34118   0.34531   0.34785   0.35260   0.35406
  Beta virt. eigenvalues --    0.35509   0.35958   0.36019   0.36352   0.36555
  Beta virt. eigenvalues --    0.36823   0.37146   0.37495   0.37756   0.37932
  Beta virt. eigenvalues --    0.37972   0.38253   0.38446   0.38564   0.39055
  Beta virt. eigenvalues --    0.39221   0.39546   0.39794   0.40368   0.40470
  Beta virt. eigenvalues --    0.40536   0.40847   0.41062   0.41327   0.41485
  Beta virt. eigenvalues --    0.41664   0.41812   0.42061   0.42431   0.42634
  Beta virt. eigenvalues --    0.42711   0.43120   0.43263   0.43360   0.43568
  Beta virt. eigenvalues --    0.43830   0.44364   0.44466   0.44599   0.44787
  Beta virt. eigenvalues --    0.45196   0.45397   0.45879   0.46014   0.46293
  Beta virt. eigenvalues --    0.46565   0.46875   0.47105   0.47262   0.47417
  Beta virt. eigenvalues --    0.47677   0.48421   0.48605   0.48818   0.49206
  Beta virt. eigenvalues --    0.49856   0.49932   0.50277   0.50745   0.51006
  Beta virt. eigenvalues --    0.51635   0.51801   0.52210   0.52454   0.52595
  Beta virt. eigenvalues --    0.52970   0.53049   0.53557   0.53828   0.54105
  Beta virt. eigenvalues --    0.54794   0.55145   0.55213   0.55496   0.55797
  Beta virt. eigenvalues --    0.56235   0.56557   0.56931   0.57158   0.57582
  Beta virt. eigenvalues --    0.57669   0.57938   0.58262   0.58962   0.59078
  Beta virt. eigenvalues --    0.59464   0.59834   0.60047   0.60628   0.60914
  Beta virt. eigenvalues --    0.61078   0.61374   0.62077   0.62259   0.62507
  Beta virt. eigenvalues --    0.62589   0.62894   0.63011   0.63365   0.63757
  Beta virt. eigenvalues --    0.64496   0.64784   0.64984   0.65585   0.65660
  Beta virt. eigenvalues --    0.65986   0.66186   0.66568   0.66995   0.67195
  Beta virt. eigenvalues --    0.68101   0.68331   0.68484   0.68816   0.68893
  Beta virt. eigenvalues --    0.69520   0.69548   0.70293   0.70515   0.70836
  Beta virt. eigenvalues --    0.71269   0.71611   0.71998   0.72590   0.73544
  Beta virt. eigenvalues --    0.73821   0.74300   0.74836   0.75438   0.75766
  Beta virt. eigenvalues --    0.76025   0.76177   0.76719   0.77428   0.78051
  Beta virt. eigenvalues --    0.78303   0.78616   0.79188   0.79692   0.79777
  Beta virt. eigenvalues --    0.80345   0.80713   0.81071   0.81423   0.81761
  Beta virt. eigenvalues --    0.81931   0.82967   0.83129   0.83364   0.83554
  Beta virt. eigenvalues --    0.84198   0.84609   0.85373   0.85660   0.85928
  Beta virt. eigenvalues --    0.86376   0.86421   0.87230   0.87604   0.87908
  Beta virt. eigenvalues --    0.88409   0.88823   0.89083   0.89345   0.89506
  Beta virt. eigenvalues --    0.89853   0.90116   0.90829   0.91240   0.91346
  Beta virt. eigenvalues --    0.91649   0.91986   0.92189   0.92347   0.92560
  Beta virt. eigenvalues --    0.92921   0.93050   0.93558   0.94129   0.94367
  Beta virt. eigenvalues --    0.94515   0.95169   0.95701   0.95841   0.96049
  Beta virt. eigenvalues --    0.96457   0.96891   0.97475   0.97616   0.98419
  Beta virt. eigenvalues --    0.98677   0.99145   0.99675   1.00534   1.01367
  Beta virt. eigenvalues --    1.01385   1.02313   1.02495   1.03373   1.03783
  Beta virt. eigenvalues --    1.04585   1.05290   1.05537   1.05882   1.06504
  Beta virt. eigenvalues --    1.06767   1.07265   1.07660   1.08118   1.08906
  Beta virt. eigenvalues --    1.09083   1.09624   1.09924   1.10117   1.10353
  Beta virt. eigenvalues --    1.10760   1.11152   1.11446   1.11798   1.12506
  Beta virt. eigenvalues --    1.12797   1.13844   1.14362   1.15044   1.15700
  Beta virt. eigenvalues --    1.15797   1.15889   1.16604   1.16613   1.16932
  Beta virt. eigenvalues --    1.17358   1.17777   1.17948   1.18170   1.19013
  Beta virt. eigenvalues --    1.19160   1.19534   1.19952   1.21070   1.21334
  Beta virt. eigenvalues --    1.21957   1.22216   1.23064   1.23767   1.24654
  Beta virt. eigenvalues --    1.25730   1.25977   1.26447   1.26940   1.27665
  Beta virt. eigenvalues --    1.29028   1.29528   1.30010   1.30216   1.30385
  Beta virt. eigenvalues --    1.30935   1.31698   1.32004   1.32657   1.33471
  Beta virt. eigenvalues --    1.34100   1.34321   1.34604   1.35085   1.35575
  Beta virt. eigenvalues --    1.35805   1.36218   1.36389   1.37214   1.37288
  Beta virt. eigenvalues --    1.37884   1.38346   1.38691   1.39086   1.39431
  Beta virt. eigenvalues --    1.39909   1.40426   1.40606   1.40852   1.41318
  Beta virt. eigenvalues --    1.41465   1.41804   1.42211   1.42487   1.42797
  Beta virt. eigenvalues --    1.43311   1.43668   1.44108   1.44281   1.44887
  Beta virt. eigenvalues --    1.45152   1.45525   1.45714   1.45884   1.46045
  Beta virt. eigenvalues --    1.46501   1.46565   1.46937   1.47185   1.47397
  Beta virt. eigenvalues --    1.47673   1.47909   1.48281   1.48548   1.48688
  Beta virt. eigenvalues --    1.49073   1.49446   1.49691   1.49853   1.49936
  Beta virt. eigenvalues --    1.50960   1.51318   1.51362   1.51583   1.51939
  Beta virt. eigenvalues --    1.52112   1.52401   1.53134   1.53606   1.53957
  Beta virt. eigenvalues --    1.54130   1.54418   1.54819   1.55174   1.55323
  Beta virt. eigenvalues --    1.55573   1.55744   1.56214   1.56725   1.57117
  Beta virt. eigenvalues --    1.57246   1.57518   1.57763   1.58360   1.58493
  Beta virt. eigenvalues --    1.58847   1.59338   1.59471   1.59868   1.60326
  Beta virt. eigenvalues --    1.60706   1.60861   1.61164   1.61986   1.62113
  Beta virt. eigenvalues --    1.62441   1.62783   1.63447   1.63784   1.63895
  Beta virt. eigenvalues --    1.65106   1.65442   1.65836   1.66422   1.66673
  Beta virt. eigenvalues --    1.67921   1.68182   1.69094   1.69900   1.70282
  Beta virt. eigenvalues --    1.70345   1.71181   1.71669   1.72131   1.72692
  Beta virt. eigenvalues --    1.73243   1.73685   1.74149   1.74505   1.74817
  Beta virt. eigenvalues --    1.75074   1.75660   1.75818   1.76285   1.76959
  Beta virt. eigenvalues --    1.77489   1.77710   1.78186   1.78577   1.79071
  Beta virt. eigenvalues --    1.79265   1.79678   1.80559   1.80637   1.80907
  Beta virt. eigenvalues --    1.82134   1.82624   1.83030   1.83274   1.84086
  Beta virt. eigenvalues --    1.84616   1.85339   1.85738   1.86143   1.86455
  Beta virt. eigenvalues --    1.86969   1.87555   1.88276   1.88673   1.89360
  Beta virt. eigenvalues --    1.89438   1.89980   1.90195   1.90551   1.90635
  Beta virt. eigenvalues --    1.91471   1.91611   1.91946   1.92682   1.93391
  Beta virt. eigenvalues --    1.94145   1.95234   1.95417   1.96005   1.96661
  Beta virt. eigenvalues --    1.97105   1.98036   1.98163   1.98406   1.98702
  Beta virt. eigenvalues --    1.99125   1.99405   1.99736   2.00577   2.01346
  Beta virt. eigenvalues --    2.01821   2.02176   2.02471   2.03032   2.03516
  Beta virt. eigenvalues --    2.04127   2.04249   2.04710   2.05596   2.05928
  Beta virt. eigenvalues --    2.06730   2.07493   2.07644   2.08505   2.08881
  Beta virt. eigenvalues --    2.09332   2.09847   2.10014   2.10773   2.11489
  Beta virt. eigenvalues --    2.12060   2.12503   2.13013   2.14234   2.14290
  Beta virt. eigenvalues --    2.14795   2.15259   2.15388   2.16298   2.16606
  Beta virt. eigenvalues --    2.17003   2.17291   2.17949   2.18308   2.18591
  Beta virt. eigenvalues --    2.18993   2.19843   2.20054   2.20345   2.20832
  Beta virt. eigenvalues --    2.21305   2.22044   2.22812   2.23279   2.23540
  Beta virt. eigenvalues --    2.24341   2.24954   2.25341   2.25610   2.25729
  Beta virt. eigenvalues --    2.26558   2.26958   2.27190   2.27716   2.27938
  Beta virt. eigenvalues --    2.28033   2.28770   2.29036   2.29172   2.29935
  Beta virt. eigenvalues --    2.30424   2.30579   2.30931   2.31525   2.31835
  Beta virt. eigenvalues --    2.32495   2.33342   2.33685   2.34422   2.34852
  Beta virt. eigenvalues --    2.35056   2.35500   2.35781   2.36450   2.36879
  Beta virt. eigenvalues --    2.37156   2.37839   2.38059   2.38326   2.38572
  Beta virt. eigenvalues --    2.40063   2.40563   2.41160   2.42182   2.42357
  Beta virt. eigenvalues --    2.43203   2.43361   2.43426   2.43806   2.44380
  Beta virt. eigenvalues --    2.44680   2.45335   2.45503   2.45832   2.46689
  Beta virt. eigenvalues --    2.46922   2.47071   2.47531   2.47923   2.48189
  Beta virt. eigenvalues --    2.48478   2.48921   2.49270   2.49640   2.49902
  Beta virt. eigenvalues --    2.50368   2.50653   2.51055   2.51702   2.51894
  Beta virt. eigenvalues --    2.52273   2.52339   2.53702   2.54264   2.54396
  Beta virt. eigenvalues --    2.54942   2.55276   2.55539   2.55682   2.56061
  Beta virt. eigenvalues --    2.56312   2.56868   2.57585   2.58062   2.58255
  Beta virt. eigenvalues --    2.58897   2.59256   2.59495   2.59933   2.60121
  Beta virt. eigenvalues --    2.60448   2.61037   2.61480   2.61773   2.61902
  Beta virt. eigenvalues --    2.62872   2.63692   2.64214   2.64279   2.65067
  Beta virt. eigenvalues --    2.65679   2.65908   2.66633   2.66940   2.67185
  Beta virt. eigenvalues --    2.67926   2.68210   2.68399   2.69073   2.69656
  Beta virt. eigenvalues --    2.70199   2.70976   2.71222   2.71632   2.72081
  Beta virt. eigenvalues --    2.72266   2.72680   2.73172   2.74021   2.74258
  Beta virt. eigenvalues --    2.74447   2.75015   2.75293   2.75526   2.76435
  Beta virt. eigenvalues --    2.77175   2.77633   2.77747   2.78485   2.78585
  Beta virt. eigenvalues --    2.79082   2.79215   2.79865   2.80166   2.80881
  Beta virt. eigenvalues --    2.81021   2.81252   2.81792   2.82230   2.82827
  Beta virt. eigenvalues --    2.83184   2.83707   2.83944   2.84524   2.84977
  Beta virt. eigenvalues --    2.85525   2.86319   2.86541   2.86635   2.87311
  Beta virt. eigenvalues --    2.87408   2.87728   2.88198   2.88475   2.89487
  Beta virt. eigenvalues --    2.89763   2.89851   2.90674   2.91290   2.92111
  Beta virt. eigenvalues --    2.92412   2.92905   2.93138   2.93501   2.94338
  Beta virt. eigenvalues --    2.94476   2.94776   2.95229   2.95553   2.96653
  Beta virt. eigenvalues --    2.96875   2.97413   2.97611   2.97897   2.98361
  Beta virt. eigenvalues --    2.98552   2.98887   2.99230   3.00081   3.00527
  Beta virt. eigenvalues --    3.00600   3.00809   3.01265   3.01463   3.01963
  Beta virt. eigenvalues --    3.02201   3.02524   3.02991   3.03251   3.03761
  Beta virt. eigenvalues --    3.04431   3.04612   3.04768   3.05122   3.05537
  Beta virt. eigenvalues --    3.05877   3.06745   3.06966   3.07290   3.07394
  Beta virt. eigenvalues --    3.08073   3.08736   3.08839   3.09312   3.09764
  Beta virt. eigenvalues --    3.10043   3.10209   3.10318   3.10617   3.10857
  Beta virt. eigenvalues --    3.11306   3.11607   3.12380   3.12824   3.12998
  Beta virt. eigenvalues --    3.13755   3.13841   3.14001   3.14675   3.14977
  Beta virt. eigenvalues --    3.15015   3.15286   3.15379   3.15867   3.16047
  Beta virt. eigenvalues --    3.16299   3.16578   3.17026   3.17235   3.17461
  Beta virt. eigenvalues --    3.18162   3.18671   3.18779   3.19017   3.19331
  Beta virt. eigenvalues --    3.19806   3.20511   3.20750   3.20972   3.21128
  Beta virt. eigenvalues --    3.21585   3.21824   3.22108   3.22554   3.22887
  Beta virt. eigenvalues --    3.23081   3.23353   3.23511   3.23943   3.24028
  Beta virt. eigenvalues --    3.24445   3.24671   3.24862   3.25198   3.25555
  Beta virt. eigenvalues --    3.25996   3.26418   3.26673   3.26796   3.27274
  Beta virt. eigenvalues --    3.27472   3.27672   3.27997   3.28135   3.28237
  Beta virt. eigenvalues --    3.28807   3.29180   3.29653   3.30039   3.30407
  Beta virt. eigenvalues --    3.30565   3.30889   3.31525   3.31904   3.32209
  Beta virt. eigenvalues --    3.32723   3.32887   3.33297   3.33980   3.34191
  Beta virt. eigenvalues --    3.34470   3.35291   3.35606   3.35979   3.36045
  Beta virt. eigenvalues --    3.37103   3.37484   3.38136   3.38523   3.38550
  Beta virt. eigenvalues --    3.38856   3.40329   3.40451   3.40882   3.41599
  Beta virt. eigenvalues --    3.41939   3.42908   3.43131   3.44230   3.45238
  Beta virt. eigenvalues --    3.45388   3.45794   3.46485   3.46671   3.46964
  Beta virt. eigenvalues --    3.47524   3.47847   3.48571   3.48834   3.49332
  Beta virt. eigenvalues --    3.49799   3.49979   3.50297   3.50823   3.51006
  Beta virt. eigenvalues --    3.51676   3.52497   3.52768   3.54446   3.54679
  Beta virt. eigenvalues --    3.55059   3.55324   3.55877   3.56657   3.57537
  Beta virt. eigenvalues --    3.57909   3.58150   3.58800   3.59966   3.60062
  Beta virt. eigenvalues --    3.60537   3.60922   3.61333   3.61784   3.61843
  Beta virt. eigenvalues --    3.62446   3.62899   3.63294   3.63670   3.64006
  Beta virt. eigenvalues --    3.64303   3.64531   3.64797   3.65532   3.66312
  Beta virt. eigenvalues --    3.67410   3.67968   3.68165   3.69020   3.69859
  Beta virt. eigenvalues --    3.70266   3.70873   3.71594   3.71932   3.72659
  Beta virt. eigenvalues --    3.73545   3.73868   3.74276   3.75431   3.76021
  Beta virt. eigenvalues --    3.76192   3.76896   3.77517   3.77882   3.78099
  Beta virt. eigenvalues --    3.79383   3.80593   3.81305   3.81650   3.81945
  Beta virt. eigenvalues --    3.82448   3.83380   3.85306   3.85473   3.86292
  Beta virt. eigenvalues --    3.87096   3.87989   3.88424   3.88938   3.89072
  Beta virt. eigenvalues --    3.89454   3.89797   3.90584   3.91102   3.91970
  Beta virt. eigenvalues --    3.92478   3.93248   3.93978   3.94244   3.94709
  Beta virt. eigenvalues --    3.96017   3.96491   3.96984   3.97926   3.98484
  Beta virt. eigenvalues --    3.99047   4.00109   4.01117   4.01236   4.01447
  Beta virt. eigenvalues --    4.02429   4.02913   4.03414   4.04269   4.04363
  Beta virt. eigenvalues --    4.05393   4.05653   4.06127   4.06360   4.07435
  Beta virt. eigenvalues --    4.07925   4.08054   4.08958   4.09726   4.10683
  Beta virt. eigenvalues --    4.11129   4.11645   4.12083   4.13144   4.13729
  Beta virt. eigenvalues --    4.13919   4.14620   4.15504   4.16318   4.17263
  Beta virt. eigenvalues --    4.17507   4.17773   4.18636   4.19190   4.20274
  Beta virt. eigenvalues --    4.20758   4.21286   4.21904   4.22407   4.22922
  Beta virt. eigenvalues --    4.23304   4.24002   4.24375   4.24924   4.25342
  Beta virt. eigenvalues --    4.26560   4.27519   4.28549   4.28718   4.29936
  Beta virt. eigenvalues --    4.30587   4.30897   4.31259   4.31701   4.32391
  Beta virt. eigenvalues --    4.32975   4.33230   4.34209   4.34539   4.35073
  Beta virt. eigenvalues --    4.35800   4.36058   4.36769   4.37729   4.38611
  Beta virt. eigenvalues --    4.40204   4.40408   4.41752   4.41820   4.42791
  Beta virt. eigenvalues --    4.43657   4.44266   4.45588   4.46053   4.46849
  Beta virt. eigenvalues --    4.47367   4.48363   4.51139   4.51948   4.52746
  Beta virt. eigenvalues --    4.53820   4.55039   4.56461   4.56954   4.57238
  Beta virt. eigenvalues --    4.57665   4.58068   4.60092   4.60829   4.63094
  Beta virt. eigenvalues --    4.63412   4.64575   4.65267   4.66866   4.68489
  Beta virt. eigenvalues --    4.69107   4.69763   4.71502   4.71559   4.72383
  Beta virt. eigenvalues --    4.73060   4.73186   4.73776   4.74290   4.75937
  Beta virt. eigenvalues --    4.76965   4.77347   4.78290   4.79342   4.80446
  Beta virt. eigenvalues --    4.81666   4.82679   4.83965   4.84767   4.85634
  Beta virt. eigenvalues --    4.87634   4.88668   4.89345   4.90327   4.91042
  Beta virt. eigenvalues --    4.92096   4.92415   4.93005   4.93728   4.95445
  Beta virt. eigenvalues --    4.96362   4.97540   4.98102   5.01236   5.02102
  Beta virt. eigenvalues --    5.03600   5.04191   5.05761   5.07611   5.08552
  Beta virt. eigenvalues --    5.09127   5.10276   5.11704   5.12914   5.13778
  Beta virt. eigenvalues --    5.14200   5.15187   5.15848   5.17495   5.23504
  Beta virt. eigenvalues --    5.24663   5.25180   5.25482   5.25769   5.26854
  Beta virt. eigenvalues --    5.26941   5.27176   5.27965   5.31004   5.35731
  Beta virt. eigenvalues --    5.36125   5.37778   5.38066   5.38588   5.39859
  Beta virt. eigenvalues --    5.40051   5.43363   5.46378   5.48383   5.48999
  Beta virt. eigenvalues --    5.49378   5.50119   5.51262   5.54478   5.55535
  Beta virt. eigenvalues --    5.56312   5.61108   5.62510   5.63773   5.65420
  Beta virt. eigenvalues --    5.66271   5.74968   5.75320   5.77411   5.79120
  Beta virt. eigenvalues --    5.88017   5.88254   5.89458   5.97056   5.98818
  Beta virt. eigenvalues --    5.99626   6.00224   6.06254   6.10781   6.13176
  Beta virt. eigenvalues --    6.20613   6.21461   6.28563   6.35015   6.37352
  Beta virt. eigenvalues --    6.39400   6.53209   6.83235   7.14590   8.93668
  Beta virt. eigenvalues --    9.09128   9.26275  19.47979  22.21420  22.25898
  Beta virt. eigenvalues --   22.26671  22.36285  22.37054  22.43024  22.43788
  Beta virt. eigenvalues --   22.52411  22.52700  22.73357  22.76661  22.80002
  Beta virt. eigenvalues --   22.82328  22.83140  22.84475  22.85403  22.91782
  Beta virt. eigenvalues --   22.92232  23.02886  23.15294  23.19025  23.19809
  Beta virt. eigenvalues --   23.28688  23.30430  23.39005  23.39537  23.44071
  Beta virt. eigenvalues --   23.63067  23.67397  23.68001  23.76960  32.75236
  Beta virt. eigenvalues --   32.77504  32.79176  32.90591  43.80310
          Condensed to atoms (all electrons):
          Atomic-Atomic Spin Densities.
[...]
  1255. RY*(  18) C  67                  0.00001     2.24467   
  1256. RY*(  19) C  67                  0.00000     2.92910   
  1257. RY*(  20) C  67                  0.00000     3.24113   
  1258. RY*(  21) C  67                  0.00000     3.09702   
  1259. RY*(  22) C  67                  0.00000     3.43104   
  1260. RY*(  23) C  67                  0.00000     3.02390   
  1261. RY*(  24) C  67                  0.00000     3.30943   
  1262. RY*(  25) C  67                  0.00000     3.16701   
  1263. RY*(  26) C  67                  0.00000     3.16259   
  1264. RY*(   1) H  68                  0.00023     1.31946   
  1265. RY*(   2) H  68                  0.00005     1.05407   
  1266. RY*(   3) H  68                  0.00003     2.04535   
  1267. RY*(   4) H  68                  0.00004     2.03659   
  1268. RY*(   5) H  68                  0.00000     2.80822   
  1269. RY*(   1) H  69                  0.00025     1.49423   
  1270. RY*(   2) H  69                  0.00009     1.75928   
  1271. RY*(   3) H  69                  0.00003     2.11704   
  1272. RY*(   4) H  69                  0.00002     2.82244   
  1273. RY*(   5) H  69                  0.00002     1.46888   
  1274. RY*(   1) H  70                  0.00034     1.40996   
  1275. RY*(   2) H  70                  0.00010     1.94142   
  1276. RY*(   3) H  70                  0.00004     2.19504   
  1277. RY*(   4) H  70                  0.00002     2.64697   
  1278. RY*(   5) H  70                  0.00001     1.88666   
  1279. RY*(   1) S  71                  0.00214     0.53356   
  1280. RY*(   2) S  71                  0.00164     0.57695   
  1281. RY*(   3) S  71                  0.00109     0.55731   
  1282. RY*(   4) S  71                  0.00067     0.80759   
  1283. RY*(   5) S  71                  0.00046     1.17062   
  1284. RY*(   6) S  71                  0.00030     1.00914   
  1285. RY*(   7) S  71                  0.00020     0.98633   
  1286. RY*(   8) S  71                  0.00010     2.35628   
  1287. RY*(   9) S  71                  0.00007     1.11413   
  1288. RY*(  10) S  71                  0.00006     2.19405   
  1289. RY*(  11) S  71                  0.00003     1.56618   
  1290. RY*(  12) S  71                  0.00003     1.55694   
  1291. RY*(  13) S  71                  0.00001     2.48845   
  1292. RY*(  14) S  71                  0.00001     2.19756   
  1293. RY*(  15) S  71                  0.00001     2.35196   
  1294. RY*(  16) S  71                  0.00000    17.55243   
  1295. RY*(  17) S  71                  0.00001     1.44973   
  1296. RY*(  18) S  71                  0.00000     8.07627   
  1297. RY*(  19) S  71                  0.00001     1.69308   
  1298. RY*(  20) S  71                  0.00000     8.26924   
  1299. RY*(  21) S  71                  0.00000     8.45411   
  1300. RY*(  22) S  71                  0.00001     2.11333   
  1301. RY*(  23) S  71                  0.00000     1.97002   
  1302. RY*(  24) S  71                  0.00000     1.97067   
  1303. RY*(  25) S  71                  0.00000     1.92849   
  1304. RY*(  26) S  71                  0.00000     1.74713   
  1305. RY*(  27) S  71                  0.00000     1.86080   
  1306. RY*(  28) S  71                  0.00000     2.11839   
  1307. RY*(   1) H  72                  0.00085     0.95597   
  1308. RY*(   2) H  72                  0.00013     1.73068   
  1309. RY*(   3) H  72                  0.00011     2.03159   
  1310. RY*(   4) H  72                  0.00005     1.85407   
  1311. RY*(   5) H  72                  0.00001     2.52670   
  1312. BD*(   1)Fe   1 - N   2          0.03294     0.24568   
  1313. BD*(   1)Fe   1 - N   3          0.03622     0.23790   
  1314. BD*(   1)Fe   1 - N   4          0.03216     0.26035   
  1315. BD*(   1)Fe   1 - N   5          0.03901     0.24420   
  1316. BD*(   1)Fe   1 - S  71          0.02745     0.11472   
  1317. BD*(   1) N   2 - C   6          0.01359     0.39229   
  1318. BD*(   2) N   2 - C   6          0.32050    -0.10992  1363(v),1336(v),1331(v)
                                                    284(g),178(g),146(v),698(v)
                                                    286(g),182(g)
  1319. BD*(   1) N   2 - C   9          0.01371     0.39105   
  1320. BD*(   1) N   3 - C  10          0.01466     0.38026   
  1321. BD*(   1) N   3 - C  13          0.01368     0.38303   
  1322. BD*(   1) N   4 - C  14          0.01405     0.38598   
  1323. BD*(   2) N   4 - C  14          0.33351    -0.11567  1345(v),1349(v),1354(v)
                                                    492(g),146(v),230(g),491(g)
  1324. BD*(   1) N   4 - C  17          0.01336     0.39518   
  1325. BD*(   1) N   5 - C  18          0.01441     0.38742   
  1326. BD*(   2) N   5 - C  18          0.33038    -0.11103  1354(v),1358(v),1363(v)
                                                    596(g),145(v),146(v),258(g)
                                                    791(v)
  1327. BD*(   1) N   5 - C  21          0.01366     0.38897   
  1328. BD*(   1) C   6 - C   7          0.01759     0.37730   
  1329. BD*(   1) C   6 - C  22          0.01032     0.46081   
  1330. BD*(   1) C   7 - C   8          0.01156     0.50038   
  1331. BD*(   2) C   7 - C   8          0.11782    -0.03863  1336(v),1318(v),1372(v)
                                                    1370(v),1369(v),1371(v)
  1332. BD*(   1) C   7 - C  34          0.00811     0.31520   
  1333. BD*(   1) C   8 - C   9          0.01755     0.37794   
  1334. BD*(   1) C   8 - C  30          0.00813     0.31445   
  1335. BD*(   1) C   9 - C  24          0.01034     0.46237   
  1336. BD*(   2) C   9 - C  24          0.19935    -0.06742  11(v),1331(v),1318(v)
                                                    1363(r),729(g),1345(r)
                                                    364(g)
  1337. BD*(   1) C  10 - C  11          0.01682     0.38272   
  1338. BD*(   1) C  10 - C  24          0.01050     0.45262   
  1339. BD*(   1) C  11 - C  12          0.01276     0.47826   
  1340. BD*(   2) C  11 - C  12          0.14285    -0.04714  1379(v),1345(v),11(v)
                                                    1374(v),1375(v)
  1341. BD*(   1) C  11 - C  38          0.00770     0.31234   
  1342. BD*(   1) C  12 - C  13          0.01679     0.37167   
  1343. BD*(   1) C  12 - C  42          0.01333     0.39113   
  1344. BD*(   1) C  13 - C  26          0.01024     0.45681   
  1345. BD*(   2) C  13 - C  26          0.20100    -0.07181  1323(v),1340(v),11(v),760(g)
                                                    1336(r),468(g),1354(r)
  1346. BD*(   1) C  14 - C  15          0.01729     0.38631   
  1347. BD*(   1) C  14 - C  26          0.01061     0.45568   
  1348. BD*(   1) C  15 - C  16          0.01267     0.48501   
  1349. BD*(   2) C  15 - C  16          0.13505    -0.04113  1387(v),1354(v),1323(v)
                                                    1383(v)
  1350. BD*(   1) C  15 - C  47          0.00772     0.31703   
  1351. BD*(   1) C  16 - C  17          0.01686     0.37613   
  1352. BD*(   1) C  16 - C  51          0.01326     0.39687   
  1353. BD*(   1) C  17 - C  28          0.01019     0.46188   
  1354. BD*(   2) C  17 - C  28          0.19667    -0.06548  1326(v),1349(v),1323(v)
                                                    791(g),1363(r),572(g)
                                                    1345(r)
  1355. BD*(   1) C  18 - C  19          0.01720     0.37661   
  1356. BD*(   1) C  18 - C  28          0.01022     0.46260   
  1357. BD*(   1) C  19 - C  20          0.01154     0.49931   
  1358. BD*(   2) C  19 - C  20          0.11944    -0.03879  1363(v),1326(v),1390(v)
                                                    1393(v),1395(v),1391(v)
  1359. BD*(   1) C  19 - C  56          0.00801     0.31429   
  1360. BD*(   1) C  20 - C  21          0.01733     0.37517   
  1361. BD*(   1) C  20 - C  60          0.00805     0.31359   
  1362. BD*(   1) C  21 - C  22          0.01021     0.46056   
  1363. BD*(   2) C  21 - C  22          0.19959    -0.06813  1318(v),1358(v),1326(v)
                                                    1336(r),698(g),1354(r)
                                                    676(g)
  1364. BD*(   1) C  22 - H  23          0.00625     0.32545   
  1365. BD*(   1) C  24 - H  25          0.00625     0.32585   
  1366. BD*(   1) C  26 - H  27          0.00643     0.32581   
  1367. BD*(   1) C  28 - H  29          0.00635     0.32602   
  1368. BD*(   1) C  30 - H  31          0.00299     0.30098   
  1369. BD*(   1) C  30 - H  32          0.00469     0.28800   
  1370. BD*(   1) C  30 - H  33          0.00464     0.28652   
  1371. BD*(   1) C  34 - H  35          0.00437     0.28873   
  1372. BD*(   1) C  34 - H  36          0.00491     0.28779   
  1373. BD*(   1) C  34 - H  37          0.00299     0.30094   
  1374. BD*(   1) C  38 - H  39          0.00525     0.28282   
  1375. BD*(   1) C  38 - H  40          0.00422     0.29091   
  1376. BD*(   1) C  38 - H  41          0.00364     0.29904   
  1377. BD*(   1) C  42 - H  43          0.01016     0.32653   
  1378. BD*(   1) C  42 - C  44          0.00364     0.53616   
  1379. BD*(   2) C  42 - C  44          0.02849    -0.03701   
  1380. BD*(   1) C  44 - H  45          0.00512     0.34228   
  1381. BD*(   1) C  44 - H  46          0.00381     0.34782   
  1382. BD*(   1) C  47 - H  48          0.00435     0.29392   
  1383. BD*(   1) C  47 - H  49          0.00553     0.28794   
  1384. BD*(   1) C  47 - H  50          0.00368     0.30301   
  1385. BD*(   1) C  51 - H  52          0.01024     0.33167   
  1386. BD*(   1) C  51 - C  53          0.00365     0.54252   
  1387. BD*(   2) C  51 - C  53          0.02934    -0.03320   
  1388. BD*(   1) C  53 - H  54          0.00511     0.34779   
  1389. BD*(   1) C  53 - H  55          0.00384     0.35228   
  1390. BD*(   1) C  56 - H  57          0.00466     0.28805   
  1391. BD*(   1) C  56 - H  58          0.00413     0.28992   
  1392. BD*(   1) C  56 - H  59          0.00296     0.30090   
  1393. BD*(   1) C  60 - H  61          0.00448     0.28748   
  1394. BD*(   1) C  60 - H  62          0.00297     0.30063   
  1395. BD*(   1) C  60 - H  63          0.00428     0.28814   
  1398. BD*(   1) C  67 - H  68          0.00427     0.25031   
  1399. BD*(   1) C  67 - H  69          0.00358     0.25005   
  1400. BD*(   1) C  67 - H  70          0.00568     0.25974   
  1401. BD*(   1) C  67 - S  71          0.00559     0.00846   
  1402. BD*(   1) S  71 - H  72          0.00797     0.05665   
       -------------------------------
              Total Lewis  139.23516  ( 97.2973%)
        Valence non-Lewis    3.59694  (  2.5135%)
        Rydberg non-Lewis    0.27065  (  0.1891%)
       -------------------------------
            Total unit  1  143.10276  (100.0000%)
           Charge unit  1    0.89724
 
 Molecular unit  2  (H2O)
    87. BD (   1) O  64 - H  65          0.99535    -0.94014  146(r),145(r),1234(v),152(r)
                                                    1316(r),155(r),259(r),154(r)
                                                    159(r),1284(r),257(r),179(r)
                                                    261(r),208(r),231(r)
    88. BD (   1) O  64 - H  66          0.99682    -1.00220  146(r),152(r),1230(v)
                                                    1316(r),208(r),155(r),207(r)
                                                    231(r),154(r),159(r),205(r)
                                                    179(r),206(r),235(r)
   137. CR (   1) O  64                  0.99990   -19.09933  146(r),1234(v),1230(v)
                                                    1316(r),145(r),1315(r)
                                                    159(r),155(r),154(r)
   148. LP (   1) O  64                  0.99507    -0.46351  1233(v),1312(r),1229(v)
                                                    1314(r),145(r),1315(r)
                                                    1313(r),157(r),1323(r)
                                                    1282(r),183(r),1318(r)
                                                    235(r)
   149. LP (   2) O  64                  0.90305    -0.63124  146(r),145(r),1316(r)
                                                    1234(v),1396(g),1397(g)
                                                    1228(v),1230(v),156(r)
                                                    159(r),158(r),230(r),157(r)
                                                    180(r),259(r),181(r),155(r)
                                                    178(r),232(r),207(r),205(r)
                                                    233(r),206(r),257(r),1322(r)
                                                    1321(r),258(r),1317(r)
                                                    1287(r),1319(r),1327(r)
  1202. RY*(   1) O  64                  0.00164     0.50944   
  1203. RY*(   2) O  64                  0.00056     1.01959   
  1204. RY*(   3) O  64                  0.00022     1.31037   
  1205. RY*(   4) O  64                  0.00009     0.80017   
  1206. RY*(   5) O  64                  0.00004     2.41440   
  1207. RY*(   6) O  64                  0.00002     2.02991   
  1208. RY*(   7) O  64                  0.00001     5.06297   
  1209. RY*(   8) O  64                  0.00000     2.65624   
  1210. RY*(   9) O  64                  0.00001     3.05472   
  1211. RY*(  10) O  64                  0.00001     2.31833   
  1212. RY*(  11) O  64                  0.00000     6.16761   
  1213. RY*(  12) O  64                  0.00000    41.52928   
  1214. RY*(  13) O  64                  0.00000     6.29669   
  1215. RY*(  14) O  64                  0.00000     3.42277   
  1216. RY*(  15) O  64                  0.00000     6.44716   
  1217. RY*(  16) O  64                  0.00000     2.43381   
  1218. RY*(  17) O  64                  0.00000     6.19495   
  1219. RY*(  18) O  64                  0.00000     2.55847   
  1220. RY*(  19) O  64                  0.00000     6.36787   
  1221. RY*(  20) O  64                  0.00000     5.30775   
  1222. RY*(  21) O  64                  0.00000     5.01560   
  1223. RY*(  22) O  64                  0.00000     5.32927   
  1224. RY*(  23) O  64                  0.00000     5.51892   
  1225. RY*(  24) O  64                  0.00000     5.40429   
  1226. RY*(  25) O  64                  0.00000     5.44933   
  1227. RY*(  26) O  64                  0.00000     5.31119   
  1228. RY*(   1) H  65                  0.00042     1.07468   
  1229. RY*(   2) H  65                  0.00038     1.60132   
  1230. RY*(   3) H  65                  0.00022     1.96076   
  1231. RY*(   4) H  65                  0.00008     2.00431   
  1232. RY*(   5) H  65                  0.00000     2.75471   
  1233. RY*(   1) H  66                  0.00045     1.90648   
  1234. RY*(   2) H  66                  0.00035     1.96283   
  1235. RY*(   3) H  66                  0.00017     1.90685   
  1236. RY*(   4) H  66                  0.00008     1.21118   
  1237. RY*(   5) H  66                  0.00000     2.88640   
  1396. BD*(   1) O  64 - H  65          0.00122     0.30554   
  1397. BD*(   1) O  64 - H  66          0.00098     0.48047   
       -------------------------------
              Total Lewis    4.89019  ( 99.8577%)
        Valence non-Lewis    0.00220  (  0.0448%)
        Rydberg non-Lewis    0.00477  (  0.0974%)
       -------------------------------
            Total unit  2    4.89716  (100.0000%)
           Charge unit  2    0.10284
 Unable to Open any file for archive entry.
 1\1\GINC-BGN1027\SP\UAPFD\def2TZVP\C31H34Fe1N4O1S1(1+,2)\BECSLEIP\15-N
 ov-2024\0\\# apfd/def2TZVP guess=read scf=maxcycle=999 geom=check pop=
 nbo\\6tet_III_D\\1,2\Fe,0,-6.1719228152,24.7192117278,7.5657788801\N,0
 ,-4.4457397533,23.7261777825,7.3128407848\N,0,-5.813695667,24.80577208
 01,9.5348378351\N,0,-7.935367965,25.6038078422,7.8473060304\N,0,-6.578
 4018778,24.4843629234,5.6355559567\C,0,-3.8806566683,23.3768065937,6.1
 279538575\C,0,-2.5573355878,22.8296689697,6.3332361662\C,0,-2.34683411
 53,22.834246723,7.6762839244\C,0,-3.5343078576,23.4086738978,8.2700682
 284\C,0,-4.7584090736,24.2709323232,10.2103548941\C,0,-4.8349484376,24
 .5887317735,11.6118391579\C,0,-5.9535351302,25.3649454012,11.771804692
 1\C,0,-6.5423632322,25.4952752678,10.45473731\C,0,-8.3146270942,26.300
 7077903,8.9541146994\C,0,-9.5096069266,27.0612372345,8.6991072649\C,0,
 -9.8536240399,26.8068877723,7.3976159538\C,0,-8.8428992165,25.90358309
 45,6.8848810459\C,0,-7.7801137774,24.6990313775,5.0370922957\C,0,-7.78
 34931361,24.183628437,3.6860464313\C,0,-6.5519376453,23.6460241149,3.4
 827752777\C,0,-5.8242419536,23.8218842954,4.7207103934\C,0,-4.51088434
 52,23.4314244631,4.8998665009\H,0,-3.9792744425,23.0433410801,4.045080
 0041\C,0,-3.7039898396,23.5861086723,9.6284471479\H,0,-2.9151811116,23
 .2406679833,10.278392574\C,0,-7.6895664845,26.2195622925,10.1869816665
 \H,0,-8.1294008599,26.7705457686,11.0038798201\C,0,-8.8285511043,25.40
 41359108,5.5954405625\H,0,-9.6858483411,25.6019671381,4.9708081949\C,0
 ,-1.1605014339,22.3706485424,8.449278556\H,0,-0.392711548,21.984768034
 6,7.7834273465\H,0,-1.4414703701,21.5780033357,9.1430625417\H,0,-0.733
 7861135,23.1905786543,9.0277062941\C,0,-1.6643797112,22.3598229532,5.2
 372619546\H,0,-1.5097158814,23.1510429911,4.5038627382\H,0,-2.10545091
 15,21.5048828652,4.7237630073\H,0,-0.695628113,22.0598169305,5.6291965
 766\C,0,-3.8964808516,24.0884010149,12.6533809625\H,0,-3.0020000046,24
 .7117054367,12.7055973272\H,0,-3.5843936634,23.0688333431,12.432309722
 \H,0,-4.3801742447,24.1020130581,13.6280311728\C,0,-6.5002585012,25.94
 44663868,12.9789727107\H,0,-7.5807839512,26.0217773465,13.0120892311\C
 ,0,-5.7910111068,26.3806041055,14.0146914605\H,0,-4.7150592283,26.3721
 028704,14.0181282835\H,0,-6.2672611147,26.7886742262,14.8905765828\C,0
 ,-10.1596296905,27.9836845578,9.6697742104\H,0,-9.4137422257,28.488061
 9127,10.2822920718\H,0,-10.8310494956,27.4384652894,10.3353714683\H,0,
 -10.7404948781,28.7345002688,9.137979417\C,0,-10.9581938925,27.3286201
 333,6.6232662671\H,0,-10.7618542697,27.4678729435,5.5668347821\C,0,-12
 .1600459468,27.631406641,7.1028210718\H,0,-12.4238145655,27.4695255287
 ,8.1333292292\H,0,-12.9350688433,28.0295469213,6.4691997142\C,0,-8.945
 1540362,24.269056425,2.7574714749\H,0,-9.1657160474,25.3096720737,2.51
 77907886\H,0,-9.833635085,23.8316504498,3.2124388115\H,0,-8.7380834427
 ,23.7419122014,1.8294337694\C,0,-5.9988041316,22.9785239166,2.27106130
 41\H,0,-5.1414709346,23.5326775264,1.8881414423\H,0,-6.7477245319,22.9
 229985336,1.4850045489\H,0,-5.6694691319,21.9662505116,2.5059318021\O,
 0,-7.174,22.773,7.977\H,0,-7.408,22.741,8.905\H,0,-7.324,22.137,7.374\
 C,0,-3.5074791123,26.7972652378,7.9192279839\H,0,-3.1477649985,27.8162
 448962,8.0225248477\H,0,-2.8851869247,26.2490841421,7.2199240786\H,0,-
 3.5249884895,26.2849708202,8.8747787045\S,0,-5.1911253136,26.826736706
 4,7.2070588927\H,0,-5.7442866349,27.471696646,8.2416926287\\Version=ES
 64L-G16RevC.02\State=2-A\HF=-3156.9900875\S2=0.840214\S2-1=0.\S2A=0.75
 1619\RMSD=2.670e-09\Dipole=0.6445302,-0.1296808,0.0493344\Quadrupole=6
 .056728,-15.7873952,9.7306671,-10.250962,4.7870455,10.3669578\PG=C01 [
 X(C31H34Fe1N4O1S1)]\\@
 The archive entry for this job was punched.


 THE GREAT THING ABOUT BEING IMPERFECT IS THE JOY IT BRINGS OTHERS.
   -- SIGN OUTSIDE LAKE AGASSIZ JR. HIGH SCHOOL, FARGO, N.D.
 Job cpu time:       2 days 15 hours 41 minutes  7.8 seconds.
 Elapsed time:       0 days  0 hours 58 minutes  8.2 seconds.
 File lengths (MBytes):  RWF=   1815 Int=      0 D2E=      0 Chk=    164 Scr=      1
 Normal termination of Gaussian 16 at Fri Nov 15 03:07:21 2024.
