 Entering Gaussian System, Link 0=g16
 Input=6tet16re.com
 Output=6tet16re.log
 Initial command:
 /sw/chem/gaussian/g16_C02/a100/g16/l1.exe "/local/becsleip_8082025/Gau-1704134.inp" -scrdir="/local/becsleip_8082025/"
 Entering Link 1 = /sw/chem/gaussian/g16_C02/a100/g16/l1.exe PID=   1704135.
  
 Copyright (c) 1988-2021, Gaussian, Inc.  All Rights Reserved.
  
 This is part of the Gaussian(R) 16 program.  It is based on
 the Gaussian(R) 09 system (copyright 2009, Gaussian, Inc.),
 the Gaussian(R) 03 system (copyright 2003, Gaussian, Inc.),
 the Gaussian(R) 98 system (copyright 1998, Gaussian, Inc.),
 the Gaussian(R) 94 system (copyright 1995, Gaussian, Inc.),
 the Gaussian 92(TM) system (copyright 1992, Gaussian, Inc.),
 the Gaussian 90(TM) system (copyright 1990, Gaussian, Inc.),
 the Gaussian 88(TM) system (copyright 1988, Gaussian, Inc.),
 the Gaussian 86(TM) system (copyright 1986, Carnegie Mellon
 University), and the Gaussian 82(TM) system (copyright 1983,
 Carnegie Mellon University). Gaussian is a federally registered
 trademark of Gaussian, Inc.
  
 This software contains proprietary and confidential information,
 including trade secrets, belonging to Gaussian, Inc.
  
 This software is provided under written license and may be
 used, copied, transmitted, or stored only in accord with that
 written license.
  
 The following legend is applicable only to US Government
 contracts under FAR:
  
                    RESTRICTED RIGHTS LEGEND
  
 Use, reproduction and disclosure by the US Government is
 subject to restrictions as set forth in subparagraphs (a)
 and (c) of the Commercial Computer Software - Restricted
 Rights clause in FAR 52.227-19.
  
 Gaussian, Inc.
 340 Quinnipiac St., Bldg. 40, Wallingford CT 06492
  
  
 ---------------------------------------------------------------
 Warning -- This program may not be used in any manner that
 competes with the business of Gaussian, Inc. or will provide
 assistance to any competitor of Gaussian, Inc.  The licensee
 of this program is prohibited from giving any competitor of
 Gaussian, Inc. access to this program.  By using this program,
 the user acknowledges that Gaussian, Inc. is engaged in the
 business of creating and licensing software in the field of
 computational chemistry and represents and warrants to the
 licensee that it is not a competitor of Gaussian, Inc. and that
 it will not use this program in any manner prohibited above.
 ---------------------------------------------------------------
  

 Cite this work as:
 Gaussian 16, Revision C.02,
 M. J. Frisch, G. W. Trucks, H. B. Schlegel, G. E. Scuseria, 
 M. A. Robb, J. R. Cheeseman, G. Scalmani, V. Barone, 
 G. A. Petersson, H. Nakatsuji, X. Li, M. Caricato, A. V. Marenich, 
 J. Bloino, B. G. Janesko, R. Gomperts, B. Mennucci, H. P. Hratchian, 
 J. V. Ortiz, A. F. Izmaylov, J. L. Sonnenberg, D. Williams-Young, 
 F. Ding, F. Lipparini, F. Egidi, J. Goings, B. Peng, A. Petrone, 
 T. Henderson, D. Ranasinghe, V. G. Zakrzewski, J. Gao, N. Rega, 
 G. Zheng, W. Liang, M. Hada, M. Ehara, K. Toyota, R. Fukuda, 
 J. Hasegawa, M. Ishida, T. Nakajima, Y. Honda, O. Kitao, H. Nakai, 
 T. Vreven, K. Throssell, J. A. Montgomery, Jr., J. E. Peralta, 
 F. Ogliaro, M. J. Bearpark, J. J. Heyd, E. N. Brothers, K. N. Kudin, 
 V. N. Staroverov, T. A. Keith, R. Kobayashi, J. Normand, 
 K. Raghavachari, A. P. Rendell, J. C. Burant, S. S. Iyengar, 
 J. Tomasi, M. Cossi, J. M. Millam, M. Klene, C. Adamo, R. Cammi, 
 J. W. Ochterski, R. L. Martin, K. Morokuma, O. Farkas, 
 J. B. Foresman, and D. J. Fox, Gaussian, Inc., Wallingford CT, 2019.
 
 ******************************************
 Gaussian 16:  ES64L-G16RevC.02  7-Dec-2021
                15-Nov-2024 
 ******************************************
 %mem=16GB
 %CPU=0-71
 SetSPE:  set environment variable "OMP_PROC_BIND" = "true"
 SetSPE:  set environment variable "OMP_PLACES" = "{0},{1},{2},{3},{4},{5},{6},{7},{8},{9},{10},{11},{12},{13},{14},{15},{16},{17},{18},{19},{20},{21},{22},{23},{24},{25},{26},{27},{28},{29},{30},{31},{32},{33},{34},{35},{36},{37},{38},{39},{40},{41},{42},{43},{44},{45},{46},{47},{48},{49},{50},{51},{52},{53},{54},{55},{56},{57},{58},{59},{60},{61},{62},{63},{64},{65},{66},{67},{68},{69},{70},{71}"
 Will use up to   72 processors via shared memory.
 %gpucpu=0,1,2,3=0,1,2,3
 Will use    4 GPUs:
 Thread  CPU   GPU
      0    0     0
      1    1     1
      2    2     2
      3    3     3
      4    4    -1
      5    5    -1
      6    6    -1
      7    7    -1
      8    8    -1
      9    9    -1
     10   10    -1
     11   11    -1
     12   12    -1
     13   13    -1
     14   14    -1
     15   15    -1
     16   16    -1
     17   17    -1
     18   18    -1
     19   19    -1
     20   20    -1
     21   21    -1
     22   22    -1
     23   23    -1
     24   24    -1
     25   25    -1
     26   26    -1
     27   27    -1
     28   28    -1
     29   29    -1
     30   30    -1
     31   31    -1
     32   32    -1
     33   33    -1
     34   34    -1
     35   35    -1
     36   36    -1
     37   37    -1
     38   38    -1
     39   39    -1
     40   40    -1
     41   41    -1
     42   42    -1
     43   43    -1
     44   44    -1
     45   45    -1
     46   46    -1
     47   47    -1
     48   48    -1
     49   49    -1
     50   50    -1
     51   51    -1
     52   52    -1
     53   53    -1
     54   54    -1
     55   55    -1
     56   56    -1
     57   57    -1
     58   58    -1
     59   59    -1
     60   60    -1
     61   61    -1
     62   62    -1
     63   63    -1
     64   64    -1
     65   65    -1
     66   66    -1
     67   67    -1
     68   68    -1
     69   69    -1
     70   70    -1
     71   71    -1
 SetGPE:  set environment variable "OMP_PROC_BIND" = "true"
 SetGPE:  set environment variable "OMP_PLACES" = "{0},{1},{2},{3},{4},{5},{6},{7},{8},{9},{10},{11},{12},{13},{14},{15},{16},{17},{18},{19},{20},{21},{22},{23},{24},{25},{26},{27},{28},{29},{30},{31},{32},{33},{34},{35},{36},{37},{38},{39},{40},{41},{42},{43},{44},{45},{46},{47},{48},{49},{50},{51},{52},{53},{54},{55},{56},{57},{58},{59},{60},{61},{62},{63},{64},{65},{66},{67},{68},{69},{70},{71}"
 %oldchk=6tet_III_D.chk
 %chk=6tet_III_Dre.chk
 Properties for Device   0
 Minimum vector length:                              32
 Maximum vector length:                            1024
 Number of SMPs:                                    108
 Maximum number of threads per SMP:                2048
 Number of ASync Engines:                             5
 Memory:                                           9207742464
 Properties for Device   1
 Minimum vector length:                              32
 Maximum vector length:                            1024
 Number of SMPs:                                    108
 Maximum number of threads per SMP:                2048
 Number of ASync Engines:                             5
 Memory:                                           9207742464
 Properties for Device   2
 Minimum vector length:                              32
 Maximum vector length:                            1024
 Number of SMPs:                                    108
 Maximum number of threads per SMP:                2048
 Number of ASync Engines:                             5
 Memory:                                           9207742464
 Properties for Device   3
 Minimum vector length:                              32
 Maximum vector length:                            1024
 Number of SMPs:                                    108
 Maximum number of threads per SMP:                2048
 Number of ASync Engines:                             5
 Memory:                                           9207742464
   8286968217 words of memory will be used on each GPU.
 Copying data from "6tet_III_D.chk" to current chk file "6tet_III_Dre.chk"
 IOpt=  2 FromEx=T IUOpen= 4 IOptOp= 5 NList=   0 IFRang= 0 IUIn= 4 IUOut= 2.
 --------------------------------------
 # apfd/gen scf=maxcycle=999 geom=check
 --------------------------------------
 1/29=2,38=1,172=1/1;
 2/12=2,40=1/2;
 3/5=7,11=2,14=-4,25=1,30=1,74=-44/1,2,3;
 4//1;
 5/5=2,7=999,38=5/2;
 6/7=2,8=2,9=2,10=2,28=1/1;
 99/5=1,9=1/99;
 ----------
 6tet_III_H
 ----------
 Structure from the checkpoint file:  "6tet_III_Dre.chk"
 Charge =  1 Multiplicity = 6
 Z-Matrix found in chk file.
 Fe,0,-6.1719228152,24.7192117278,7.5657788801
 N,0,-4.4457397533,23.7261777825,7.3128407848
 N,0,-5.813695667,24.8057720801,9.5348378351
 N,0,-7.935367965,25.6038078422,7.8473060304
 N,0,-6.5784018778,24.4843629234,5.6355559567
 C,0,-3.8806566683,23.3768065937,6.1279538575
 C,0,-2.5573355878,22.8296689697,6.3332361662
 C,0,-2.3468341153,22.834246723,7.6762839244
 C,0,-3.5343078576,23.4086738978,8.2700682284
 C,0,-4.7584090736,24.2709323232,10.2103548941
 C,0,-4.8349484376,24.5887317735,11.6118391579
 C,0,-5.9535351302,25.3649454012,11.7718046921
 C,0,-6.5423632322,25.4952752678,10.45473731
 C,0,-8.3146270942,26.3007077903,8.9541146994
 C,0,-9.5096069266,27.0612372345,8.6991072649
 C,0,-9.8536240399,26.8068877723,7.3976159538
 C,0,-8.8428992165,25.9035830945,6.8848810459
 C,0,-7.7801137774,24.6990313775,5.0370922957
 C,0,-7.7834931361,24.183628437,3.6860464313
 C,0,-6.5519376453,23.6460241149,3.4827752777
 C,0,-5.8242419536,23.8218842954,4.7207103934
 C,0,-4.5108843452,23.4314244631,4.8998665009
 H,0,-3.9792744425,23.0433410801,4.0450800041
 C,0,-3.7039898396,23.5861086723,9.6284471479
 H,0,-2.9151811116,23.2406679833,10.278392574
 C,0,-7.6895664845,26.2195622925,10.1869816665
 H,0,-8.1294008599,26.7705457686,11.0038798201
 C,0,-8.8285511043,25.4041359108,5.5954405625
 H,0,-9.6858483411,25.6019671381,4.9708081949
 C,0,-1.1605014339,22.3706485424,8.449278556
 H,0,-0.392711548,21.9847680346,7.7834273465
 H,0,-1.4414703701,21.5780033357,9.1430625417
 H,0,-0.7337861135,23.1905786543,9.0277062941
 C,0,-1.6643797112,22.3598229532,5.2372619546
 H,0,-1.5097158814,23.1510429911,4.5038627382
 H,0,-2.1054509115,21.5048828652,4.7237630073
 H,0,-0.695628113,22.0598169305,5.6291965766
 C,0,-3.8964808516,24.0884010149,12.6533809625
 H,0,-3.0020000046,24.7117054367,12.7055973272
 H,0,-3.5843936634,23.0688333431,12.432309722
 H,0,-4.3801742447,24.1020130581,13.6280311728
 C,0,-6.5002585012,25.9444663868,12.9789727107
 H,0,-7.5807839512,26.0217773465,13.0120892311
 C,0,-5.7910111068,26.3806041055,14.0146914605
 H,0,-4.7150592283,26.3721028704,14.0181282835
 H,0,-6.2672611147,26.7886742262,14.8905765828
 C,0,-10.1596296905,27.9836845578,9.6697742104
 H,0,-9.4137422257,28.4880619127,10.2822920718
 H,0,-10.8310494956,27.4384652894,10.3353714683
 H,0,-10.7404948781,28.7345002688,9.137979417
 C,0,-10.9581938925,27.3286201333,6.6232662671
 H,0,-10.7618542697,27.4678729435,5.5668347821
 C,0,-12.1600459468,27.631406641,7.1028210718
 H,0,-12.4238145655,27.4695255287,8.1333292292
 H,0,-12.9350688433,28.0295469213,6.4691997142
 C,0,-8.9451540362,24.269056425,2.7574714749
 H,0,-9.1657160474,25.3096720737,2.5177907886
 H,0,-9.833635085,23.8316504498,3.2124388115
 H,0,-8.7380834427,23.7419122014,1.8294337694
 C,0,-5.9988041316,22.9785239166,2.2710613041
 H,0,-5.1414709346,23.5326775264,1.8881414423
 H,0,-6.7477245319,22.9229985336,1.4850045489
 H,0,-5.6694691319,21.9662505116,2.5059318021
 O,0,-7.174,22.773,7.977
 H,0,-7.408,22.741,8.905
 H,0,-7.324,22.137,7.374
 C,0,-3.5074791123,26.7972652378,7.9192279839
 H,0,-3.1477649985,27.8162448962,8.0225248477
 H,0,-2.8851869247,26.2490841421,7.2199240786
 H,0,-3.5249884895,26.2849708202,8.8747787045
 S,0,-5.1911253136,26.8267367064,7.2070588927
 H,0,-5.7442866349,27.471696646,8.2416926287
 Recover connectivity data from disk.
 Stoichiometry    C31H34FeN4OS(1+,6)
 Framework group  C1[X(C31H34FeN4OS)]
 Deg. of freedom   210
 Full point group                 C1      NOp   1
 Largest Abelian subgroup         C1      NOp   1
 Largest concise Abelian subgroup C1      NOp   1
                         Standard orientation:                         
 ---------------------------------------------------------------------
 Center     Atomic      Atomic             Coordinates (Angstroms)
 Number     Number       Type             X           Y           Z
 ---------------------------------------------------------------------
      1         26           0        0.018973   -0.202286   -0.106879
      2          7           0       -1.519418   -1.491210   -0.149677
      3          7           0       -1.269078    1.315786   -0.329128
      4          7           0        1.543110    1.079508   -0.181173
      5          7           0        1.285476   -1.731368   -0.043502
      6          6           0       -1.457937   -2.830356    0.069965
      7          6           0       -2.785904   -3.400881    0.130663
      8          6           0       -3.651913   -2.374989   -0.083078
      9          6           0       -2.841075   -1.187986   -0.244962
     10          6           0       -2.620483    1.241127   -0.484493
     11          6           0       -3.198734    2.556393   -0.566426
     12          6           0       -2.163555    3.443559   -0.422646
     13          6           0       -0.967689    2.641521   -0.264492
     14          6           0        1.466488    2.426962    0.000564
     15          6           0        2.774546    2.995610    0.193006
     16          6           0        3.658959    1.951750    0.121655
     17          6           0        2.859462    0.763127   -0.098348
     18          6           0        2.628106   -1.669732   -0.248194
     19          6           0        3.190978   -2.994707   -0.384543
     20          6           0        2.151899   -3.862034   -0.261560
     21          6           0        0.968193   -3.051572   -0.074635
     22          6           0       -0.295367   -3.574612    0.123638
     23          1           0       -0.388583   -4.645201    0.218657
     24          6           0       -3.359835    0.069489   -0.479725
     25          1           0       -4.430372    0.155627   -0.582229
     26          6           0        0.298380    3.166124   -0.079503
     27          1           0        0.381383    4.237736    0.015976
     28          6           0        3.380371   -0.511368   -0.227287
     29          1           0        4.452956   -0.611535   -0.288853
     30          6           0       -5.140597   -2.390506   -0.141454
     31          1           0       -5.522563   -3.396055    0.015824
     32          1           0       -5.489325   -2.040266   -1.113198
     33          1           0       -5.562469   -1.738663    0.624101
     34          6           0       -3.069068   -4.843793    0.369638
     35          1           0       -2.597854   -5.178361    1.293675
     36          1           0       -2.678808   -5.451193   -0.447620
     37          1           0       -4.139131   -5.020756    0.445433
     38          6           0       -4.635956    2.842549   -0.827901
     39          1           0       -5.217495    2.798543    0.094708
     40          1           0       -5.052512    2.115981   -1.523868
     41          1           0       -4.745993    3.837580   -1.254388
     42          6           0       -2.188622    4.889618   -0.439689
     43          1           0       -1.309317    5.367104   -0.856149
     44          6           0       -3.181409    5.648979    0.011650
     45          1           0       -4.057181    5.231955    0.477342
     46          1           0       -3.138529    6.723822   -0.046526
     47          6           0        3.049494    4.429540    0.482632
     48          1           0        2.265198    4.854763    1.107122
     49          1           0        3.099269    5.010517   -0.439906
     50          1           0        4.000969    4.528711    1.001085
     51          6           0        5.097981    1.958682    0.266787
     52          1           0        5.524981    1.071073    0.718238
     53          6           0        5.905550    2.944303   -0.110685
     54          1           0        5.540446    3.827259   -0.605472
     55          1           0        6.970842    2.888175    0.039836
     56          6           0        4.637120   -3.274003   -0.607418
     57          1           0        5.224296   -2.953336    0.253612
     58          1           0        5.001452   -2.737584   -1.483337
     59          1           0        4.806852   -4.337119   -0.759039
     60          6           0        2.150108   -5.350890   -0.316968
     61          1           0        1.805514   -5.767422    0.629864
     62          1           0        3.149451   -5.731181   -0.513289
     63          1           0        1.485045   -5.705821   -1.104393
     64          8           0        0.086028   -0.285155   -2.331657
     65          1           0       -0.214550    0.555903   -2.676964
     66          1           0        0.346695   -0.987830   -2.810098
     67          6           0       -1.755508   -0.078442    2.787663
     68          1           0       -1.822267    0.291002    3.806210
     69          1           0       -2.046565   -1.122699    2.747793
     70          1           0       -2.376916    0.501860    2.114661
     71         16           0       -0.014030   -0.000909    2.236338
     72          1           0        0.073492    1.332836    2.313108
 ---------------------------------------------------------------------
 Rotational constants (GHZ):           0.1092376           0.1074172           0.0599108
 General basis read from cards:  (5D, 7F)
 Warning:  center  64 has no basis functions!
 There are   648 symmetry adapted cartesian basis functions of A   symmetry.
 There are   609 symmetry adapted basis functions of A   symmetry.
   609 basis functions,  1254 primitive gaussians,   648 cartesian basis functions
   151 alpha electrons      146 beta electrons
       nuclear repulsion energy      5420.5355666502 Hartrees.



 Warning!  O  atom   64 has  8 valence electrons but only   0 basis functions.
 This is less than a minimal basis set!



 NAtoms=   72 NActive=   72 NUniq=   72 SFac= 1.00D+00 NAtFMM=   60 NAOKFM=T Big=T
 Integral buffers will be    131072 words long.
 Raffenetti 2 integral format.
 Two-electron integral symmetry is turned on.
 R6APFD:  NTU= -4 IXU= 1 FactS= 1.050
 Nuclear repulsion after empirical dispersion term =     5420.3824238532 Hartrees.
 One-electron integrals computed using PRISM.
 NBasis=   609 RedAO= T EigKep=  2.62D-04  NBF=   609
 NBsUse=   609 1.00D-06 EigRej= -1.00D+00 NBFU=   609
 ExpMin= 4.20D-02 ExpMax= 3.01D+05 ExpMxC= 3.30D+03 IAcc=3 IRadAn=         5 AccDes= 0.00D+00
 Harris functional with IExCor= 3731 and IRadAn=       5 diagonalized for initial guess.
 HarFok:  IExCor= 3731 AccDes= 0.00D+00 IRadAn=         5 IDoV= 1 UseB2=F ITyADJ=14
 ICtDFT=  3500011 ScaDFX=  1.000000  1.000000  1.000000  1.000000
 FoFCou: FMM=F IPFlag=           0 FMFlag=      100000 FMFlg1=        2001
         NFxFlg=           0 DoJE=T BraDBF=F KetDBF=T FulRan=T
         wScrn=  0.000000 ICntrl=       500 IOpCl=  0 I1Cent=   200000004 NGrid=           0
         NMat0=    1 NMatS0=      1 NMatT0=    0 NMatD0=    1 NMtDS0=    0 NMtDT0=    0
 Petite list used in FoFCou.
 Initial guess <Sx>= 0.0000 <Sy>= 0.0000 <Sz>= 2.5000 <S**2>= 8.7500 S= 2.5000
 Requested convergence on RMS density matrix=1.00D-08 within 999 cycles.
 Requested convergence on MAX density matrix=1.00D-06.
 Requested convergence on             energy=1.00D-06.
 No special actions if energy rises.
 EnCoef did   100 forward-backward iterations
 EnCoef did   100 forward-backward iterations
 EnCoef did     3 forward-backward iterations
 EnCoef did   100 forward-backward iterations
 EnCoef did     3 forward-backward iterations
 EnCoef did     1 forward-backward iterations
 EnCoef did     6 forward-backward iterations
 Restarting incremental Fock formation.
 Restarting incremental Fock formation.
 SCF Done:  E(UAPFD) =  -3095.10984127     A.U. after   59 cycles
            NFock= 59  Conv=0.50D-08     -V/T= 2.0052
 <Sx>= 0.0000 <Sy>= 0.0000 <Sz>= 2.5000 <S**2>= 8.8393 S= 2.5148
 <L.S>=  0.00000000000    
 Annihilation of the first spin contaminant:
 S**2 before annihilation     8.8393,   after     8.7516

 **********************************************************************

            Population analysis using the SCF Density.

 **********************************************************************

 Orbital symmetries:
 Alpha Orbitals:
       Occupied  (A) (A) (A) (A) (A) (A) (A) (A) (A) (A) (A) (A)
                 (A) (A) (A) (A) (A) (A) (A) (A) (A) (A) (A) (A)
                 (A) (A) (A) (A) (A) (A) (A) (A) (A) (A) (A) (A)
                 (A) (A) (A) (A) (A) (A) (A) (A) (A) (A) (A) (A)
                 (A) (A) (A) (A) (A) (A) (A) (A) (A) (A) (A) (A)
                 (A) (A) (A) (A) (A) (A) (A) (A) (A) (A) (A) (A)
                 (A) (A) (A) (A) (A) (A) (A) (A) (A) (A) (A) (A)
                 (A) (A) (A) (A) (A) (A) (A) (A) (A) (A) (A) (A)
                 (A) (A) (A) (A) (A) (A) (A) (A) (A) (A) (A) (A)
                 (A) (A) (A) (A) (A) (A) (A) (A) (A) (A) (A) (A)
                 (A) (A) (A) (A) (A) (A) (A) (A) (A) (A) (A) (A)
                 (A) (A) (A) (A) (A) (A) (A) (A) (A) (A) (A) (A)
                 (A) (A) (A) (A) (A) (A) (A)
       Virtual   (A) (A) (A) (A) (A) (A) (A) (A) (A) (A) (A) (A)
                 (A) (A) (A) (A) (A) (A) (A) (A) (A) (A) (A) (A)
                 (A) (A) (A) (A) (A) (A) (A) (A) (A) (A) (A) (A)
                 (A) (A) (A) (A) (A) (A) (A) (A) (A) (A) (A) (A)
                 (A) (A) (A) (A) (A) (A) (A) (A) (A) (A) (A) (A)
                 (A) (A) (A) (A) (A) (A) (A) (A) (A) (A) (A) (A)
                 (A) (A) (A) (A) (A) (A) (A) (A) (A) (A) (A) (A)
                 (A) (A) (A) (A) (A) (A) (A) (A) (A) (A) (A) (A)
                 (A) (A) (A) (A) (A) (A) (A) (A) (A) (A) (A) (A)
                 (A) (A) (A) (A) (A) (A) (A) (A) (A) (A) (A) (A)
                 (A) (A) (A) (A) (A) (A) (A) (A) (A) (A) (A) (A)
                 (A) (A) (A) (A) (A) (A) (A) (A) (A) (A) (A) (A)
                 (A) (A) (A) (A) (A) (A) (A) (A) (A) (A) (A) (A)
                 (A) (A) (A) (A) (A) (A) (A) (A) (A) (A) (A) (A)
                 (A) (A) (A) (A) (A) (A) (A) (A) (A) (A) (A) (A)
                 (A) (A) (A) (A) (A) (A) (A) (A) (A) (A) (A) (A)
                 (A) (A) (A) (A) (A) (A) (A) (A) (A) (A) (A) (A)
                 (A) (A) (A) (A) (A) (A) (A) (A) (A) (A) (A) (A)
                 (A) (A) (A) (A) (A) (A) (A) (A) (A) (A) (A) (A)
                 (A) (A) (A) (A) (A) (A) (A) (A) (A) (A) (A) (A)
                 (A) (A) (A) (A) (A) (A) (A) (A) (A) (A) (A) (A)
                 (A) (A) (A) (A) (A) (A) (A) (A) (A) (A) (A) (A)
                 (A) (A) (A) (A) (A) (A) (A) (A) (A) (A) (A) (A)
                 (A) (A) (A) (A) (A) (A) (A) (A) (A) (A) (A) (A)
                 (A) (A) (A) (A) (A) (A) (A) (A) (A) (A) (A) (A)
                 (A) (A) (A) (A) (A) (A) (A) (A) (A) (A) (A) (A)
                 (A) (A) (A) (A) (A) (A) (A) (A) (A) (A) (A) (A)
                 (A) (A) (A) (A) (A) (A) (A) (A) (A) (A) (A) (A)
                 (A) (A) (A) (A) (A) (A) (A) (A) (A) (A) (A) (A)
                 (A) (A) (A) (A) (A) (A) (A) (A) (A) (A) (A) (A)
                 (A) (A) (A) (A) (A) (A) (A) (A) (A) (A) (A) (A)
                 (A) (A) (A) (A) (A) (A) (A) (A) (A) (A) (A) (A)
                 (A) (A) (A) (A) (A) (A) (A) (A) (A) (A) (A) (A)
                 (A) (A) (A) (A) (A) (A) (A) (A) (A) (A) (A) (A)
                 (A) (A) (A) (A) (A) (A) (A) (A) (A) (A) (A) (A)
                 (A) (A) (A) (A) (A) (A) (A) (A) (A) (A) (A) (A)
                 (A) (A) (A) (A) (A) (A) (A) (A) (A) (A) (A) (A)
                 (A) (A) (A) (A) (A) (A) (A) (A) (A) (A) (A) (A)
                 (A) (A)
 Beta  Orbitals:
       Occupied  (A) (A) (A) (A) (A) (A) (A) (A) (A) (A) (A) (A)
                 (A) (A) (A) (A) (A) (A) (A) (A) (A) (A) (A) (A)
                 (A) (A) (A) (A) (A) (A) (A) (A) (A) (A) (A) (A)
                 (A) (A) (A) (A) (A) (A) (A) (A) (A) (A) (A) (A)
                 (A) (A) (A) (A) (A) (A) (A) (A) (A) (A) (A) (A)
                 (A) (A) (A) (A) (A) (A) (A) (A) (A) (A) (A) (A)
                 (A) (A) (A) (A) (A) (A) (A) (A) (A) (A) (A) (A)
                 (A) (A) (A) (A) (A) (A) (A) (A) (A) (A) (A) (A)
                 (A) (A) (A) (A) (A) (A) (A) (A) (A) (A) (A) (A)
                 (A) (A) (A) (A) (A) (A) (A) (A) (A) (A) (A) (A)
                 (A) (A) (A) (A) (A) (A) (A) (A) (A) (A) (A) (A)
                 (A) (A) (A) (A) (A) (A) (A) (A) (A) (A) (A) (A)
                 (A) (A)
       Virtual   (A) (A) (A) (A) (A) (A) (A) (A) (A) (A) (A) (A)
                 (A) (A) (A) (A) (A) (A) (A) (A) (A) (A) (A) (A)
                 (A) (A) (A) (A) (A) (A) (A) (A) (A) (A) (A) (A)
                 (A) (A) (A) (A) (A) (A) (A) (A) (A) (A) (A) (A)
                 (A) (A) (A) (A) (A) (A) (A) (A) (A) (A) (A) (A)
                 (A) (A) (A) (A) (A) (A) (A) (A) (A) (A) (A) (A)
                 (A) (A) (A) (A) (A) (A) (A) (A) (A) (A) (A) (A)
                 (A) (A) (A) (A) (A) (A) (A) (A) (A) (A) (A) (A)
                 (A) (A) (A) (A) (A) (A) (A) (A) (A) (A) (A) (A)
                 (A) (A) (A) (A) (A) (A) (A) (A) (A) (A) (A) (A)
                 (A) (A) (A) (A) (A) (A) (A) (A) (A) (A) (A) (A)
                 (A) (A) (A) (A) (A) (A) (A) (A) (A) (A) (A) (A)
                 (A) (A) (A) (A) (A) (A) (A) (A) (A) (A) (A) (A)
                 (A) (A) (A) (A) (A) (A) (A) (A) (A) (A) (A) (A)
                 (A) (A) (A) (A) (A) (A) (A) (A) (A) (A) (A) (A)
                 (A) (A) (A) (A) (A) (A) (A) (A) (A) (A) (A) (A)
                 (A) (A) (A) (A) (A) (A) (A) (A) (A) (A) (A) (A)
                 (A) (A) (A) (A) (A) (A) (A) (A) (A) (A) (A) (A)
                 (A) (A) (A) (A) (A) (A) (A) (A) (A) (A) (A) (A)
                 (A) (A) (A) (A) (A) (A) (A) (A) (A) (A) (A) (A)
                 (A) (A) (A) (A) (A) (A) (A) (A) (A) (A) (A) (A)
                 (A) (A) (A) (A) (A) (A) (A) (A) (A) (A) (A) (A)
                 (A) (A) (A) (A) (A) (A) (A) (A) (A) (A) (A) (A)
                 (A) (A) (A) (A) (A) (A) (A) (A) (A) (A) (A) (A)
                 (A) (A) (A) (A) (A) (A) (A) (A) (A) (A) (A) (A)
                 (A) (A) (A) (A) (A) (A) (A) (A) (A) (A) (A) (A)
                 (A) (A) (A) (A) (A) (A) (A) (A) (A) (A) (A) (A)
                 (A) (A) (A) (A) (A) (A) (A) (A) (A) (A) (A) (A)
                 (A) (A) (A) (A) (A) (A) (A) (A) (A) (A) (A) (A)
                 (A) (A) (A) (A) (A) (A) (A) (A) (A) (A) (A) (A)
                 (A) (A) (A) (A) (A) (A) (A) (A) (A) (A) (A) (A)
                 (A) (A) (A) (A) (A) (A) (A) (A) (A) (A) (A) (A)
                 (A) (A) (A) (A) (A) (A) (A) (A) (A) (A) (A) (A)
                 (A) (A) (A) (A) (A) (A) (A) (A) (A) (A) (A) (A)
                 (A) (A) (A) (A) (A) (A) (A) (A) (A) (A) (A) (A)
                 (A) (A) (A) (A) (A) (A) (A) (A) (A) (A) (A) (A)
                 (A) (A) (A) (A) (A) (A) (A) (A) (A) (A) (A) (A)
                 (A) (A) (A) (A) (A) (A) (A) (A) (A) (A) (A) (A)
                 (A) (A) (A) (A) (A) (A) (A)
 The electronic state is 6-A.
 Alpha  occ. eigenvalues -- -256.28474 -89.04033 -30.16297 -26.00218 -26.00015
 Alpha  occ. eigenvalues --  -25.98880 -14.45737 -14.45352 -14.45163 -14.44953
 Alpha  occ. eigenvalues --  -10.31928 -10.31419 -10.31411 -10.31234 -10.31228
 Alpha  occ. eigenvalues --  -10.31208 -10.30907 -10.30582 -10.29962 -10.27985
 Alpha  occ. eigenvalues --  -10.27953 -10.27947 -10.27777 -10.27693 -10.27666
 Alpha  occ. eigenvalues --  -10.27639 -10.27597 -10.27521 -10.27447 -10.27430
 Alpha  occ. eigenvalues --  -10.27391 -10.27338 -10.27332 -10.27028 -10.26843
 Alpha  occ. eigenvalues --  -10.26840 -10.26794 -10.26665 -10.26643 -10.26391
 Alpha  occ. eigenvalues --  -10.26139  -8.07194  -6.01789  -6.01485  -6.00934
 Alpha  occ. eigenvalues --   -3.59161  -2.36890  -2.36711  -2.35740  -2.32676
 Alpha  occ. eigenvalues --   -1.54668  -1.07947  -1.06656  -1.06585  -1.05558
 Alpha  occ. eigenvalues --   -0.98202  -0.91936  -0.90422  -0.90033  -0.89506
 Alpha  occ. eigenvalues --   -0.89275  -0.89070  -0.88921  -0.88375  -0.85033
 Alpha  occ. eigenvalues --   -0.83844  -0.83375  -0.82676  -0.81323  -0.79584
 Alpha  occ. eigenvalues --   -0.78577  -0.76890  -0.76788  -0.76500  -0.74285
 Alpha  occ. eigenvalues --   -0.73332  -0.73265  -0.69138  -0.68426  -0.66676
 Alpha  occ. eigenvalues --   -0.66490  -0.63367  -0.62804  -0.61931  -0.61375
 Alpha  occ. eigenvalues --   -0.60110  -0.59998  -0.59748  -0.57777  -0.56608
 Alpha  occ. eigenvalues --   -0.56332  -0.55339  -0.55235  -0.54317  -0.53748
 Alpha  occ. eigenvalues --   -0.53383  -0.52943  -0.52455  -0.52160  -0.51783
 Alpha  occ. eigenvalues --   -0.51653  -0.51376  -0.50990  -0.50509  -0.50226
 Alpha  occ. eigenvalues --   -0.49523  -0.49404  -0.49171  -0.49086  -0.48928
 Alpha  occ. eigenvalues --   -0.48904  -0.48605  -0.48355  -0.48087  -0.47771
 Alpha  occ. eigenvalues --   -0.47559  -0.47270  -0.46990  -0.46809  -0.46414
 Alpha  occ. eigenvalues --   -0.45970  -0.45602  -0.44976  -0.44641  -0.44406
 Alpha  occ. eigenvalues --   -0.44162  -0.43408  -0.43147  -0.42503  -0.42183
 Alpha  occ. eigenvalues --   -0.41620  -0.41423  -0.41201  -0.39343  -0.38990
 Alpha  occ. eigenvalues --   -0.38359  -0.38139  -0.37956  -0.36499  -0.36352
 Alpha  occ. eigenvalues --   -0.35819  -0.32699  -0.32077  -0.31208  -0.30664
 Alpha  occ. eigenvalues --   -0.30255  -0.29033  -0.28668  -0.24599  -0.19929
 Alpha  occ. eigenvalues --   -0.19788
 Alpha virt. eigenvalues --   -0.13388  -0.11638  -0.08939  -0.07292  -0.06803
 Alpha virt. eigenvalues --   -0.05914  -0.04622  -0.04453  -0.01269  -0.00514
 Alpha virt. eigenvalues --    0.01356   0.02082   0.02554   0.03185   0.03201
 Alpha virt. eigenvalues --    0.04312   0.04417   0.04852   0.05174   0.05449
 Alpha virt. eigenvalues --    0.05800   0.06065   0.06749   0.07015   0.07518
 Alpha virt. eigenvalues --    0.07810   0.08120   0.08630   0.08807   0.09138
 Alpha virt. eigenvalues --    0.09303   0.09597   0.09827   0.09927   0.10560
 Alpha virt. eigenvalues --    0.10836   0.10997   0.11363   0.11595   0.12090
 Alpha virt. eigenvalues --    0.12539   0.12926   0.13552   0.13881   0.14062
 Alpha virt. eigenvalues --    0.14660   0.14780   0.15191   0.16023   0.16598
 Alpha virt. eigenvalues --    0.17071   0.17434   0.17785   0.18264   0.18771
 Alpha virt. eigenvalues --    0.19238   0.19594   0.20156   0.20926   0.21142
 Alpha virt. eigenvalues --    0.21920   0.22653   0.23233   0.24743   0.25697
 Alpha virt. eigenvalues --    0.26321   0.26343   0.26764   0.27315   0.27877
 Alpha virt. eigenvalues --    0.28286   0.28882   0.29452   0.30416   0.31462
 Alpha virt. eigenvalues --    0.33060   0.34055   0.34455   0.34691   0.35417
 Alpha virt. eigenvalues --    0.36063   0.36766   0.37138   0.37921   0.39406
 Alpha virt. eigenvalues --    0.39751   0.40004   0.40441   0.41184   0.41874
 Alpha virt. eigenvalues --    0.42561   0.42842   0.43438   0.43916   0.44308
 Alpha virt. eigenvalues --    0.44715   0.45045   0.45614   0.46242   0.46553
 Alpha virt. eigenvalues --    0.46895   0.47609   0.47720   0.48450   0.48795
 Alpha virt. eigenvalues --    0.49364   0.49938   0.50657   0.51026   0.51486
 Alpha virt. eigenvalues --    0.51679   0.52188   0.52632   0.52881   0.53630
 Alpha virt. eigenvalues --    0.53917   0.54219   0.54372   0.54662   0.55501
 Alpha virt. eigenvalues --    0.55873   0.56536   0.56621   0.57112   0.57294
 Alpha virt. eigenvalues --    0.57558   0.58331   0.58905   0.59242   0.59289
 Alpha virt. eigenvalues --    0.59603   0.60452   0.60797   0.61238   0.62499
 Alpha virt. eigenvalues --    0.62807   0.63500   0.63832   0.64094   0.64476
 Alpha virt. eigenvalues --    0.65078   0.66077   0.66285   0.66722   0.67360
 Alpha virt. eigenvalues --    0.67720   0.68316   0.68766   0.69156   0.69353
 Alpha virt. eigenvalues --    0.69660   0.70080   0.70631   0.70702   0.71501
 Alpha virt. eigenvalues --    0.72096   0.72651   0.72753   0.73279   0.73435
 Alpha virt. eigenvalues --    0.74000   0.74211   0.74481   0.75108   0.76272
 Alpha virt. eigenvalues --    0.77084   0.77617   0.77899   0.79131   0.79487
 Alpha virt. eigenvalues --    0.79701   0.79936   0.80559   0.81050   0.81429
 Alpha virt. eigenvalues --    0.82043   0.82413   0.82883   0.83612   0.83884
 Alpha virt. eigenvalues --    0.84161   0.84274   0.84331   0.84917   0.85166
 Alpha virt. eigenvalues --    0.85324   0.85890   0.86570   0.86893   0.87120
 Alpha virt. eigenvalues --    0.87528   0.88298   0.88519   0.89556   0.89870
 Alpha virt. eigenvalues --    0.90233   0.90794   0.91336   0.91817   0.91915
 Alpha virt. eigenvalues --    0.92042   0.92752   0.92990   0.93305   0.93564
 Alpha virt. eigenvalues --    0.93779   0.94901   0.95269   0.95746   0.95822
 Alpha virt. eigenvalues --    0.97290   0.98449   0.98688   0.99033   0.99610
 Alpha virt. eigenvalues --    1.00110   1.01648   1.02062   1.02805   1.06051
 Alpha virt. eigenvalues --    1.06163   1.07253   1.07549   1.08347   1.08599
 Alpha virt. eigenvalues --    1.08954   1.09280   1.09617   1.10142   1.11001
 Alpha virt. eigenvalues --    1.11424   1.11761   1.12339   1.13141   1.13328
 Alpha virt. eigenvalues --    1.14176   1.14381   1.15684   1.16156   1.16384
 Alpha virt. eigenvalues --    1.17393   1.18075   1.18342   1.19455   1.20329
 Alpha virt. eigenvalues --    1.21664   1.22810   1.23788   1.25326   1.26533
 Alpha virt. eigenvalues --    1.27304   1.27564   1.28049   1.28404   1.28708
 Alpha virt. eigenvalues --    1.29434   1.29763   1.29981   1.30354   1.30427
 Alpha virt. eigenvalues --    1.32293   1.34546   1.35350   1.36308   1.37146
 Alpha virt. eigenvalues --    1.38252   1.38578   1.38963   1.40196   1.40486
 Alpha virt. eigenvalues --    1.41297   1.41562   1.44313   1.45018   1.45639
 Alpha virt. eigenvalues --    1.45967   1.47179   1.48179   1.49173   1.49993
 Alpha virt. eigenvalues --    1.51565   1.51773   1.52852   1.54040   1.54652
 Alpha virt. eigenvalues --    1.56318   1.56966   1.57855   1.60647   1.60980
 Alpha virt. eigenvalues --    1.61801   1.62678   1.63528   1.64787   1.65548
 Alpha virt. eigenvalues --    1.66523   1.66756   1.67942   1.69458   1.70305
 Alpha virt. eigenvalues --    1.71012   1.71192   1.71783   1.72867   1.73231
 Alpha virt. eigenvalues --    1.73455   1.74114   1.74740   1.75453   1.76442
 Alpha virt. eigenvalues --    1.77194   1.78476   1.78634   1.79106   1.79698
 Alpha virt. eigenvalues --    1.80401   1.81971   1.82775   1.83177   1.83497
 Alpha virt. eigenvalues --    1.83847   1.84359   1.85760   1.86234   1.86309
 Alpha virt. eigenvalues --    1.86982   1.87584   1.91692   1.91956   1.92166
 Alpha virt. eigenvalues --    1.92267   1.92826   1.93257   1.93560   1.95139
 Alpha virt. eigenvalues --    1.95509   1.96092   1.96692   1.97611   1.98623
 Alpha virt. eigenvalues --    1.98954   1.99331   2.00314   2.01051   2.03732
 Alpha virt. eigenvalues --    2.05054   2.05494   2.06694   2.07190   2.07419
 Alpha virt. eigenvalues --    2.09043   2.09829   2.10249   2.10981   2.11078
 Alpha virt. eigenvalues --    2.12451   2.12987   2.13587   2.14714   2.15204
 Alpha virt. eigenvalues --    2.15587   2.16779   2.17299   2.18278   2.18290
 Alpha virt. eigenvalues --    2.18766   2.18931   2.19366   2.19992   2.21223
 Alpha virt. eigenvalues --    2.21598   2.21702   2.22131   2.22645   2.23301
 Alpha virt. eigenvalues --    2.24055   2.24356   2.25886   2.26554   2.27412
 Alpha virt. eigenvalues --    2.27777   2.28297   2.29109   2.29248   2.30420
 Alpha virt. eigenvalues --    2.32042   2.32569   2.33320   2.34058   2.34432
 Alpha virt. eigenvalues --    2.35149   2.35589   2.36026   2.36996   2.37605
 Alpha virt. eigenvalues --    2.39277   2.40662   2.41698   2.44116   2.44318
 Alpha virt. eigenvalues --    2.44563   2.45040   2.45220   2.46818   2.47541
 Alpha virt. eigenvalues --    2.48428   2.48860   2.50491   2.52184   2.52715
 Alpha virt. eigenvalues --    2.54038   2.56248   2.57124   2.57974   2.59490
 Alpha virt. eigenvalues --    2.60114   2.61857   2.63114   2.63660   2.67621
 Alpha virt. eigenvalues --    2.69142   2.69745   2.71738   2.72297   2.72656
 Alpha virt. eigenvalues --    2.78593   2.78839   2.80503   2.81787   2.82654
 Alpha virt. eigenvalues --    2.83764   2.87266   2.87412   2.88494   2.88636
 Alpha virt. eigenvalues --    2.90498   2.91003   2.91618   2.96186   2.97404
 Alpha virt. eigenvalues --    3.04225   3.05945   3.12472   3.15237   3.16505
 Alpha virt. eigenvalues --    3.21712   3.21983   3.27790   3.30668   3.32233
 Alpha virt. eigenvalues --    3.33792   3.37350   3.37444   3.41852   3.42482
 Alpha virt. eigenvalues --    3.77055   3.89500   4.10697
  Beta  occ. eigenvalues -- -256.28398 -89.04036 -30.11440 -25.96702 -25.95375
  Beta  occ. eigenvalues --  -25.94868 -14.45545 -14.45100 -14.44851 -14.44652
  Beta  occ. eigenvalues --  -10.31596 -10.31115 -10.31100 -10.31066 -10.31006
  Beta  occ. eigenvalues --  -10.30974 -10.30747 -10.30354 -10.29968 -10.28028
  Beta  occ. eigenvalues --  -10.27796 -10.27779 -10.27719 -10.27669 -10.27649
  Beta  occ. eigenvalues --  -10.27434 -10.27433 -10.27364 -10.27360 -10.27265
  Beta  occ. eigenvalues --  -10.27083 -10.27056 -10.27039 -10.27020 -10.26847
  Beta  occ. eigenvalues --  -10.26842 -10.26796 -10.26671 -10.26503 -10.26264
  Beta  occ. eigenvalues --  -10.26143  -8.07196  -6.01788  -6.01486  -6.00948
  Beta  occ. eigenvalues --   -3.47708  -2.35244  -2.27260  -2.22041  -2.21060
  Beta  occ. eigenvalues --   -1.55142  -1.07289  -1.05975  -1.05860  -1.04849
  Beta  occ. eigenvalues --   -0.98482  -0.90996  -0.90103  -0.89685  -0.89158
  Beta  occ. eigenvalues --   -0.88865  -0.88405  -0.88255  -0.88062  -0.84677
  Beta  occ. eigenvalues --   -0.83594  -0.82454  -0.82327  -0.81139  -0.79166
  Beta  occ. eigenvalues --   -0.78227  -0.76551  -0.76380  -0.76210  -0.74288
  Beta  occ. eigenvalues --   -0.72626  -0.72522  -0.68823  -0.68128  -0.66085
  Beta  occ. eigenvalues --   -0.65765  -0.62933  -0.62475  -0.61585  -0.61021
  Beta  occ. eigenvalues --   -0.59692  -0.59574  -0.59354  -0.57071  -0.56190
  Beta  occ. eigenvalues --   -0.55762  -0.54761  -0.54046  -0.53340  -0.53039
  Beta  occ. eigenvalues --   -0.52763  -0.52413  -0.51905  -0.51571  -0.51373
  Beta  occ. eigenvalues --   -0.51335  -0.51039  -0.50693  -0.50235  -0.49945
  Beta  occ. eigenvalues --   -0.49180  -0.49007  -0.48964  -0.48729  -0.48502
  Beta  occ. eigenvalues --   -0.48432  -0.48200  -0.48046  -0.47686  -0.47377
  Beta  occ. eigenvalues --   -0.47004  -0.46783  -0.46556  -0.46031  -0.45730
  Beta  occ. eigenvalues --   -0.45330  -0.44743  -0.44492  -0.44342  -0.43789
  Beta  occ. eigenvalues --   -0.43388  -0.42777  -0.42457  -0.41810  -0.40792
  Beta  occ. eigenvalues --   -0.40685  -0.39771  -0.39581  -0.37716  -0.37396
  Beta  occ. eigenvalues --   -0.36453  -0.35038  -0.34565  -0.33594  -0.33341
  Beta  occ. eigenvalues --   -0.31379  -0.30576  -0.29301  -0.28049  -0.27800
  Beta  occ. eigenvalues --   -0.26247
  Beta virt. eigenvalues --   -0.22553  -0.13940  -0.13772  -0.11457  -0.08925
  Beta virt. eigenvalues --   -0.08750  -0.07151  -0.06392  -0.05854  -0.04479
  Beta virt. eigenvalues --   -0.04350  -0.02963  -0.01514   0.00451   0.00987
  Beta virt. eigenvalues --    0.01631   0.02749   0.03278   0.03340   0.03990
  Beta virt. eigenvalues --    0.04492   0.04654   0.05664   0.06316   0.06534
  Beta virt. eigenvalues --    0.06846   0.07096   0.07376   0.07680   0.08026
  Beta virt. eigenvalues --    0.08255   0.08407   0.08846   0.09101   0.09464
  Beta virt. eigenvalues --    0.09607   0.09766   0.10015   0.10319   0.10745
  Beta virt. eigenvalues --    0.11105   0.11333   0.11618   0.11839   0.12361
  Beta virt. eigenvalues --    0.12760   0.13175   0.13846   0.14132   0.14338
  Beta virt. eigenvalues --    0.14903   0.15109   0.15618   0.16462   0.16889
  Beta virt. eigenvalues --    0.17522   0.18016   0.18180   0.18563   0.19509
  Beta virt. eigenvalues --    0.19586   0.19855   0.20610   0.21480   0.22092
  Beta virt. eigenvalues --    0.22463   0.23147   0.24026   0.25270   0.26142
  Beta virt. eigenvalues --    0.26702   0.26916   0.27333   0.27780   0.28257
  Beta virt. eigenvalues --    0.28904   0.29168   0.29745   0.30738   0.31830
  Beta virt. eigenvalues --    0.33404   0.34620   0.35042   0.35249   0.35747
  Beta virt. eigenvalues --    0.36677   0.37215   0.37691   0.38362   0.40076
  Beta virt. eigenvalues --    0.40301   0.40382   0.40868   0.41572   0.42300
  Beta virt. eigenvalues --    0.42893   0.43608   0.43913   0.44566   0.44938
  Beta virt. eigenvalues --    0.45135   0.45373   0.46076   0.46727   0.46992
  Beta virt. eigenvalues --    0.47383   0.48033   0.48229   0.48943   0.49644
  Beta virt. eigenvalues --    0.49841   0.50520   0.51252   0.51703   0.52009
  Beta virt. eigenvalues --    0.52402   0.52719   0.53313   0.53625   0.54347
  Beta virt. eigenvalues --    0.54636   0.54854   0.55221   0.55319   0.56019
  Beta virt. eigenvalues --    0.56386   0.57052   0.57111   0.57716   0.57951
  Beta virt. eigenvalues --    0.58004   0.58848   0.59163   0.59655   0.59880
  Beta virt. eigenvalues --    0.60195   0.60894   0.61463   0.61794   0.63096
  Beta virt. eigenvalues --    0.63378   0.63920   0.64371   0.64407   0.65032
  Beta virt. eigenvalues --    0.65739   0.66626   0.66908   0.67087   0.67955
  Beta virt. eigenvalues --    0.68239   0.68885   0.69277   0.69485   0.69804
  Beta virt. eigenvalues --    0.70027   0.70474   0.71048   0.71197   0.71937
  Beta virt. eigenvalues --    0.72572   0.73005   0.73128   0.73616   0.74089
  Beta virt. eigenvalues --    0.74631   0.74725   0.75338   0.75682   0.76776
  Beta virt. eigenvalues --    0.77752   0.78142   0.78525   0.79365   0.79696
  Beta virt. eigenvalues --    0.79909   0.80202   0.80883   0.81290   0.81782
  Beta virt. eigenvalues --    0.82217   0.82606   0.83104   0.83785   0.84174
  Beta virt. eigenvalues --    0.84507   0.84572   0.84730   0.85211   0.85393
  Beta virt. eigenvalues --    0.85550   0.86146   0.86872   0.87176   0.87505
  Beta virt. eigenvalues --    0.87808   0.88691   0.88905   0.89929   0.90166
  Beta virt. eigenvalues --    0.90616   0.91005   0.91720   0.92033   0.92228
  Beta virt. eigenvalues --    0.92424   0.93031   0.93283   0.93594   0.93751
  Beta virt. eigenvalues --    0.94033   0.95319   0.95587   0.96114   0.96127
  Beta virt. eigenvalues --    0.97468   0.98801   0.99041   0.99609   1.00132
  Beta virt. eigenvalues --    1.00940   1.02059   1.02473   1.03854   1.06424
  Beta virt. eigenvalues --    1.06549   1.07723   1.07980   1.08810   1.09153
  Beta virt. eigenvalues --    1.09400   1.09685   1.10321   1.10739   1.11529
  Beta virt. eigenvalues --    1.11821   1.12074   1.12759   1.13639   1.13720
  Beta virt. eigenvalues --    1.14694   1.15400   1.16240   1.16845   1.17774
  Beta virt. eigenvalues --    1.18345   1.18790   1.19137   1.20250   1.20924
  Beta virt. eigenvalues --    1.22149   1.23237   1.24502   1.25972   1.27031
  Beta virt. eigenvalues --    1.27845   1.27984   1.28720   1.29095   1.29411
  Beta virt. eigenvalues --    1.30165   1.30498   1.30677   1.30983   1.31101
  Beta virt. eigenvalues --    1.32934   1.35254   1.36373   1.37056   1.37806
  Beta virt. eigenvalues --    1.38934   1.39050   1.39617   1.40956   1.41145
  Beta virt. eigenvalues --    1.42186   1.42508   1.44892   1.45546   1.46293
  Beta virt. eigenvalues --    1.46471   1.47853   1.48671   1.49686   1.50652
  Beta virt. eigenvalues --    1.52199   1.52299   1.53583   1.54531   1.55159
  Beta virt. eigenvalues --    1.56734   1.57669   1.58349   1.61289   1.61588
  Beta virt. eigenvalues --    1.62321   1.63189   1.63771   1.65008   1.66030
  Beta virt. eigenvalues --    1.66958   1.67552   1.68607   1.70113   1.70878
  Beta virt. eigenvalues --    1.71566   1.71617   1.72218   1.73464   1.73737
  Beta virt. eigenvalues --    1.73954   1.74447   1.75108   1.76001   1.76880
  Beta virt. eigenvalues --    1.77722   1.78949   1.79115   1.79701   1.80173
  Beta virt. eigenvalues --    1.80993   1.82317   1.83747   1.83921   1.84171
  Beta virt. eigenvalues --    1.84378   1.85161   1.86307   1.86839   1.86959
  Beta virt. eigenvalues --    1.87783   1.88260   1.92073   1.92324   1.92471
  Beta virt. eigenvalues --    1.92584   1.93410   1.93662   1.94173   1.95574
  Beta virt. eigenvalues --    1.96064   1.96734   1.97379   1.98073   1.99306
  Beta virt. eigenvalues --    1.99554   2.00106   2.00839   2.02169   2.04107
  Beta virt. eigenvalues --    2.05487   2.05873   2.07278   2.07694   2.07870
  Beta virt. eigenvalues --    2.09368   2.10073   2.10675   2.11515   2.11848
  Beta virt. eigenvalues --    2.13332   2.14209   2.14378   2.15660   2.16484
  Beta virt. eigenvalues --    2.16793   2.17877   2.18173   2.18592   2.18814
  Beta virt. eigenvalues --    2.19398   2.19770   2.20249   2.20555   2.22034
  Beta virt. eigenvalues --    2.22122   2.22198   2.22611   2.23224   2.23962
  Beta virt. eigenvalues --    2.24765   2.25235   2.26624   2.27355   2.28021
  Beta virt. eigenvalues --    2.28352   2.28817   2.29677   2.29945   2.31002
  Beta virt. eigenvalues --    2.32476   2.33091   2.33929   2.34482   2.35068
  Beta virt. eigenvalues --    2.35621   2.36117   2.36608   2.37617   2.38144
  Beta virt. eigenvalues --    2.40206   2.41306   2.42462   2.44867   2.44963
  Beta virt. eigenvalues --    2.45289   2.45488   2.45601   2.47267   2.47968
  Beta virt. eigenvalues --    2.49207   2.49521   2.51243   2.52989   2.53436
  Beta virt. eigenvalues --    2.54680   2.56792   2.58118   2.58785   2.60570
  Beta virt. eigenvalues --    2.61172   2.62783   2.63803   2.64532   2.68010
  Beta virt. eigenvalues --    2.69588   2.70466   2.71972   2.72688   2.72906
  Beta virt. eigenvalues --    2.79111   2.79547   2.81055   2.82435   2.83291
  Beta virt. eigenvalues --    2.84545   2.87569   2.88075   2.88897   2.89483
  Beta virt. eigenvalues --    2.90808   2.91280   2.92163   2.96483   2.97756
  Beta virt. eigenvalues --    3.04596   3.06334   3.12696   3.15551   3.17051
  Beta virt. eigenvalues --    3.21935   3.22208   3.28619   3.30931   3.33028
  Beta virt. eigenvalues --    3.36208   3.37716   3.37821   3.46194   3.46930
  Beta virt. eigenvalues --    3.86063   3.97078   4.18888
          Condensed to atoms (all electrons):
          Atomic-Atomic Spin Densities.
 Mulliken charges and spin densities:
               1          2
     1  Fe  -3.244310   2.073699
     2  N   -0.424651   0.107090
     3  N   -0.433513   0.063416
     4  N   -0.449123   0.089173
     5  N   -0.386107   0.116849
     6  C    0.253183   0.224544
     7  C    0.029148   0.014465
     8  C    0.039295   0.101642
     9  C    0.201963   0.116947
    10  C    0.160036   0.210875
    11  C    0.026514   0.004961
    12  C    0.014367   0.151735
    13  C    0.233929   0.070160
    14  C    0.247746   0.185406
    15  C    0.032595   0.028527
    16  C    0.010291   0.132733
    17  C    0.218556   0.083548
    18  C    0.141888   0.155821
    19  C    0.033342   0.048961
    20  C    0.042401   0.052431
    21  C    0.209854   0.138657
    22  C   -0.276118   0.194183
    23  H    0.176214  -0.010539
    24  C   -0.340617   0.212493
    25  H    0.175965  -0.011435
    26  C   -0.321076   0.258382
    27  H    0.177734  -0.013458
    28  C   -0.297145   0.247093
    29  H    0.176772  -0.012612
    30  C   -0.605151  -0.009274
    31  H    0.197742   0.000224
    32  H    0.178784   0.005598
    33  H    0.202947   0.005882
    34  C   -0.606881  -0.001825
    35  H    0.203444   0.002043
    36  H    0.184716   0.002730
    37  H    0.196497  -0.000072
    38  C   -0.607676  -0.001430
    39  H    0.202343   0.002789
    40  H    0.170635   0.001285
    41  H    0.201371  -0.000378
    42  C   -0.154494  -0.056383
    43  H    0.164443   0.005706
    44  C   -0.394780   0.100980
    45  H    0.185291  -0.004966
    46  H    0.184892  -0.004994
    47  C   -0.610824  -0.003279
    48  H    0.193988   0.001734
    49  H    0.181991   0.003482
    50  H    0.208645   0.000301
    51  C   -0.152519  -0.050565
    52  H    0.178899   0.005429
    53  C   -0.402195   0.091904
    54  H    0.176948  -0.004531
    55  H    0.185435  -0.004579
    56  C   -0.604405  -0.004235
    57  H    0.207215   0.003872
    58  H    0.172253   0.003315
    59  H    0.196047   0.000001
    60  C   -0.607342  -0.005318
    61  H    0.206123   0.003494
    62  H    0.194631   0.000051
    63  H    0.178974   0.003593
    64  O    8.000000   0.000000
    65  H   -1.546171  -0.028071
    66  H   -2.045041  -0.071254
    67  C   -0.690145  -0.002310
    68  H    0.228362  -0.000825
    69  H    0.240075  -0.000090
    70  H    0.244899  -0.000903
    71  S    0.167335  -0.022589
    72  H    0.163565  -0.002290
 Sum of Mulliken charges =   1.00000   5.00000
 Mulliken charges and spin densities with hydrogens summed into heavy atoms:
               1          2
     1  Fe  -3.244310   2.073699
     2  N   -0.424651   0.107090
     3  N   -0.433513   0.063416
     4  N   -0.449123   0.089173
     5  N   -0.386107   0.116849
     6  C    0.253183   0.224544
     7  C    0.029148   0.014465
     8  C    0.039295   0.101642
     9  C    0.201963   0.116947
    10  C    0.160036   0.210875
    11  C    0.026514   0.004961
    12  C    0.014367   0.151735
    13  C    0.233929   0.070160
    14  C    0.247746   0.185406
    15  C    0.032595   0.028527
    16  C    0.010291   0.132733
    17  C    0.218556   0.083548
    18  C    0.141888   0.155821
    19  C    0.033342   0.048961
    20  C    0.042401   0.052431
    21  C    0.209854   0.138657
    22  C   -0.099904   0.183643
    24  C   -0.164653   0.201058
    26  C   -0.143342   0.244924
    28  C   -0.120373   0.234481
    30  C   -0.025677   0.002431
    34  C   -0.022223   0.002876
    38  C   -0.033326   0.002266
    42  C    0.009949  -0.050677
    44  C   -0.024597   0.091019
    47  C   -0.026200   0.002238
    51  C    0.026380  -0.045136
    53  C   -0.039812   0.082794
    56  C   -0.028890   0.002954
    60  C   -0.027614   0.001821
    64  O    4.408788  -0.099325
    67  C    0.023191  -0.004128
    71  S    0.330900  -0.024879
 Electronic spatial extent (au):  <R**2>=          18257.4833
 Charge=              1.0000 electrons
 Dipole moment (field-independent basis, Debye):
    X=             -1.2541    Y=             -0.9908    Z=            -17.0518  Tot=             17.1266
 Quadrupole moment (field-independent basis, Debye-Ang):
   XX=           -233.0612   YY=           -235.7551   ZZ=           -192.6203
   XY=              3.0946   XZ=             -6.8636   YZ=              4.2847
 Traceless Quadrupole moment (field-independent basis, Debye-Ang):
   XX=            -12.5823   YY=            -15.2762   ZZ=             27.8585
   XY=              3.0946   XZ=             -6.8636   YZ=              4.2847
 Octapole moment (field-independent basis, Debye-Ang**2):
  XXX=              4.3381  YYY=             10.7833  ZZZ=            -32.5720  XYY=             -7.8452
  XXY=              0.3203  XXZ=             57.9169  XZZ=            -20.6478  YZZ=             -3.3966
  YYZ=             64.3537  XYZ=             -6.9223
 Hexadecapole moment (field-independent basis, Debye-Ang**3):
 XXXX=         -11013.0938 YYYY=         -10757.0188 ZZZZ=          -1441.9359 XXXY=             59.1612
 XXXZ=              8.7718 YYYX=            -72.8602 YYYZ=            -85.8431 ZZZX=            -56.0480
 ZZZY=             -4.4532 XXYY=          -3565.3616 XXZZ=          -2363.7345 YYZZ=          -2381.1791
 XXYZ=              1.4811 YYXZ=            -57.8068 ZZXY=             37.3708
 N-N= 5.420382423853D+03 E-N=-1.809455304637D+04  KE= 3.079139323876D+03
                          Isotropic Fermi Contact Couplings
        Atom                 a.u.       MegaHertz       Gauss      10(-4) cm-1
     1  Fe(57)             0.21265       6.16849       2.20107       2.05759
     2  N(14)              0.10341       6.68247       2.38447       2.22903
     3  N(14)              0.05386       3.48054       1.24194       1.16098
     4  N(14)              0.08707       5.62678       2.00778       1.87689
     5  N(14)              0.08415       5.43786       1.94036       1.81387
     6  C(13)              0.02886       6.48959       2.31565       2.16469
     7  C(13)              0.00087       0.19550       0.06976       0.06521
     8  C(13)              0.01504       3.38265       1.20702       1.12833
     9  C(13)              0.01671       3.75703       1.34060       1.25321
    10  C(13)              0.02700       6.07170       2.16653       2.02530
    11  C(13)             -0.00129      -0.28902      -0.10313      -0.09641
    12  C(13)              0.02107       4.73818       1.69070       1.58049
    13  C(13)              0.00649       1.46015       0.52102       0.48705
    14  C(13)              0.02315       5.20393       1.85689       1.73584
    15  C(13)              0.00281       0.63192       0.22549       0.21079
    16  C(13)              0.01906       4.28641       1.52950       1.42979
    17  C(13)              0.01098       2.46797       0.88063       0.82323
    18  C(13)              0.01874       4.21452       1.50385       1.40581
    19  C(13)              0.00628       1.41253       0.50403       0.47117
    20  C(13)              0.00728       1.63741       0.58427       0.54618
    21  C(13)              0.01818       4.08833       1.45882       1.36372
    22  C(13)              0.01796       4.03844       1.44102       1.34708
    23  H(1)              -0.00351      -3.13647      -1.11917      -1.04621
    24  C(13)              0.02004       4.50632       1.60797       1.50315
    25  H(1)              -0.00383      -3.42002      -1.22035      -1.14079
    26  C(13)              0.02754       6.19240       2.20960       2.06556
    27  H(1)              -0.00442      -3.95114      -1.40987      -1.31796
    28  C(13)              0.02520       5.66686       2.02208       1.89026
    29  H(1)              -0.00409      -3.65261      -1.30334      -1.21838
    30  C(13)             -0.00354      -0.79483      -0.28362      -0.26513
    31  H(1)               0.00006       0.05010       0.01788       0.01671
    32  H(1)               0.00238       2.13014       0.76009       0.71054
    33  H(1)               0.00231       2.06624       0.73729       0.68922
    34  C(13)             -0.00108      -0.24349      -0.08688      -0.08122
    35  H(1)               0.00092       0.82278       0.29359       0.27445
    36  H(1)               0.00108       0.96910       0.34580       0.32326
    37  H(1)              -0.00005      -0.04659      -0.01663      -0.01554
    38  C(13)             -0.00080      -0.17986      -0.06418      -0.06000
    39  H(1)               0.00099       0.88630       0.31626       0.29564
    40  H(1)               0.00016       0.13908       0.04963       0.04639
    41  H(1)               0.00015       0.13379       0.04774       0.04463
    42  C(13)             -0.01140      -2.56309      -0.91457      -0.85495
    43  H(1)               0.00166       1.48247       0.52898       0.49450
    44  C(13)              0.01433       3.22204       1.14970       1.07476
    45  H(1)              -0.00153      -1.36730      -0.48789      -0.45608
    46  H(1)              -0.00153      -1.36388      -0.48667      -0.45494
    47  C(13)             -0.00108      -0.24348      -0.08688      -0.08121
    48  H(1)               0.00024       0.21229       0.07575       0.07081
    49  H(1)               0.00143       1.28154       0.45729       0.42748
    50  H(1)               0.00041       0.36987       0.13198       0.12338
    51  C(13)             -0.00973      -2.18742      -0.78052      -0.72964
    52  H(1)               0.00150       1.34321       0.47929       0.44805
    53  C(13)              0.01278       2.87429       1.02562       0.95876
    54  H(1)              -0.00138      -1.23756      -0.44159      -0.41281
    55  H(1)              -0.00139      -1.24530      -0.44436      -0.41539
    56  C(13)             -0.00200      -0.44887      -0.16017      -0.14973
    57  H(1)               0.00173       1.55014       0.55313       0.51707
    58  H(1)               0.00139       1.24003       0.44247       0.41363
    59  H(1)              -0.00002      -0.01344      -0.00480      -0.00448
    60  C(13)             -0.00220      -0.49484      -0.17657      -0.16506
    61  H(1)               0.00152       1.35740       0.48435       0.45278
    62  H(1)              -0.00001      -0.00462      -0.00165      -0.00154
    63  H(1)               0.00125       1.11578       0.39814       0.37218
    64  O(17)             -0.00006       0.00702       0.00250       0.00234
    65  H(1)              -0.03015     -26.95444      -9.61801      -8.99103
    66  H(1)              -0.06151     -54.99258     -19.62272     -18.34355
    67  C(13)             -0.00171      -0.38383      -0.13696      -0.12803
    68  H(1)              -0.00015      -0.13186      -0.04705      -0.04399
    69  H(1)               0.00004       0.03544       0.01265       0.01182
    70  H(1)              -0.00001      -0.00535      -0.00191      -0.00178
    71  S(33)              0.00749       0.51458       0.18361       0.17164
    72  H(1)              -0.00086      -0.76863      -0.27427      -0.25639
 --------------------------------------------------------
       Center         ----  Spin Dipole Couplings  ----
                      3XX-RR        3YY-RR        3ZZ-RR
 --------------------------------------------------------
     1   Atom        2.252661      2.266085     -4.518747
     2   Atom       -0.023252     -0.053613      0.076865
     3   Atom       -0.052884     -0.027992      0.080875
     4   Atom       -0.004194     -0.040802      0.044996
     5   Atom       -0.091952     -0.063348      0.155299
     6   Atom       -0.132900     -0.098664      0.231564
     7   Atom       -0.013350     -0.015178      0.028528
     8   Atom       -0.049386     -0.051495      0.100881
     9   Atom       -0.046577     -0.074611      0.121188
    10   Atom       -0.095842     -0.123632      0.219474
    11   Atom       -0.013596     -0.011561      0.025157
    12   Atom       -0.074413     -0.073520      0.147933
    13   Atom       -0.055140     -0.031381      0.086521
    14   Atom       -0.111230     -0.084185      0.195415
    15   Atom       -0.022031     -0.022966      0.044997
    16   Atom       -0.062595     -0.063006      0.125601
    17   Atom       -0.035538     -0.066248      0.101786
    18   Atom       -0.065908     -0.100526      0.166434
    19   Atom       -0.028194     -0.027754      0.055948
    20   Atom       -0.031224     -0.026280      0.057504
    21   Atom       -0.084315     -0.056153      0.140469
    22   Atom       -0.107365     -0.097148      0.204513
    23   Atom       -0.017313      0.027447     -0.010134
    24   Atom       -0.104289     -0.109281      0.213570
    25   Atom        0.027041     -0.017542     -0.009499
    26   Atom       -0.133136     -0.127798      0.260934
    27   Atom       -0.020117      0.030384     -0.010268
    28   Atom       -0.120452     -0.128796      0.249248
    29   Atom        0.029196     -0.019309     -0.009888
    30   Atom        0.007783     -0.003266     -0.004517
    31   Atom        0.004911     -0.000739     -0.004172
    32   Atom        0.007410     -0.002757     -0.004654
    33   Atom        0.008221     -0.003034     -0.005187
    34   Atom       -0.000592      0.004801     -0.004209
    35   Atom       -0.001350      0.005332     -0.003982
    36   Atom       -0.001175      0.006601     -0.005427
    37   Atom        0.001231      0.002756     -0.003987
    38   Atom        0.004678      0.000564     -0.005242
    39   Atom        0.005403     -0.000319     -0.005083
    40   Atom        0.006134     -0.001523     -0.004612
    41   Atom        0.002453      0.001548     -0.004000
    42   Atom        0.006719      0.027406     -0.034125
    43   Atom       -0.003258      0.009627     -0.006369
    44   Atom       -0.012662     -0.043276      0.055938
    45   Atom        0.004333     -0.001394     -0.002939
    46   Atom       -0.005683      0.009424     -0.003741
    47   Atom        0.000299      0.005030     -0.005330
    48   Atom       -0.001699      0.006577     -0.004879
    49   Atom       -0.000251      0.005438     -0.005188
    50   Atom        0.001545      0.002501     -0.004045
    51   Atom        0.025869      0.005628     -0.031497
    52   Atom        0.009646     -0.003383     -0.006263
    53   Atom       -0.038642     -0.012598      0.051241
    54   Atom       -0.001073      0.003784     -0.002710
    55   Atom        0.008715     -0.005337     -0.003378
    56   Atom        0.004240     -0.000561     -0.003679
    57   Atom        0.006281     -0.000945     -0.005337
    58   Atom        0.005237     -0.001237     -0.004000
    59   Atom        0.002421      0.001421     -0.003842
    60   Atom       -0.002605      0.007369     -0.004763
    61   Atom       -0.002537      0.007363     -0.004826
    62   Atom       -0.000704      0.004607     -0.003904
    63   Atom       -0.002807      0.007483     -0.004675
    64   Atom       -0.020630     -0.029769      0.050399
    65   Atom       -0.013375     -0.013152      0.026527
    66   Atom       -0.012324     -0.011351      0.023675
    67   Atom       -0.005571     -0.007529      0.013100
    68   Atom       -0.003237     -0.004634      0.007871
    69   Atom       -0.002956     -0.007237      0.010193
    70   Atom        0.000674     -0.008663      0.007989
    71   Atom        0.001345      0.000915     -0.002260
    72   Atom       -0.014246     -0.003780      0.018026
 --------------------------------------------------------
                        XY            XZ            YZ
 --------------------------------------------------------
     1   Atom        0.380663      0.171716     -0.313860
     2   Atom        0.113815      0.006593      0.046823
     3   Atom       -0.073381     -0.001831     -0.008402
     4   Atom        0.110609     -0.028935     -0.032396
     5   Atom       -0.088426      0.031168     -0.017988
     6   Atom        0.005469     -0.014010      0.045665
     7   Atom        0.008782     -0.006191      0.008392
     8   Atom        0.009235     -0.008223      0.031881
     9   Atom       -0.000798     -0.010810      0.039825
    10   Atom       -0.007108     -0.034114     -0.002075
    11   Atom       -0.007357     -0.007738     -0.006193
    12   Atom       -0.009578     -0.034165     -0.001033
    13   Atom       -0.003668     -0.020953      0.000951
    14   Atom        0.009504     -0.028603     -0.027082
    15   Atom        0.009294     -0.000426     -0.012174
    16   Atom        0.014124     -0.017769     -0.037828
    17   Atom        0.003018     -0.007796     -0.017597
    18   Atom       -0.007951      0.032528     -0.007272
    19   Atom       -0.009978      0.013315      0.000197
    20   Atom       -0.010516      0.016002     -0.001960
    21   Atom       -0.003973      0.041875     -0.006705
    22   Atom        0.002199      0.029053      0.031166
    23   Atom        0.000894      0.000619     -0.002299
    24   Atom       -0.004750     -0.032122      0.047802
    25   Atom       -0.001009      0.004630      0.000863
    26   Atom        0.001805     -0.054738     -0.024372
    27   Atom        0.001225     -0.001011      0.001429
    28   Atom        0.000061      0.005834     -0.031728
    29   Atom       -0.002131     -0.001153     -0.000422
    30   Atom        0.005274     -0.000102      0.000172
    31   Atom        0.004752     -0.000300     -0.000257
    32   Atom        0.003354      0.003479      0.000487
    33   Atom        0.002600     -0.002889     -0.000629
    34   Atom        0.007252     -0.000393     -0.001026
    35   Atom        0.005065     -0.001823     -0.004434
    36   Atom        0.005207      0.000549      0.001434
    37   Atom        0.004992     -0.000722     -0.001015
    38   Atom       -0.006128      0.001968     -0.001527
    39   Atom       -0.004781     -0.001043      0.000542
    40   Atom       -0.004764      0.004345     -0.001768
    41   Atom       -0.004189      0.002358     -0.001030
    42   Atom       -0.009065     -0.022159     -0.000279
    43   Atom       -0.004532      0.000493     -0.001565
    44   Atom       -0.005111      0.062919     -0.003579
    45   Atom        0.000396     -0.002332     -0.000951
    46   Atom       -0.001268      0.002483     -0.000687
    47   Atom        0.006467      0.001784      0.001962
    48   Atom        0.004808      0.001865      0.004444
    49   Atom        0.004971     -0.000505     -0.001145
    50   Atom        0.004381      0.001419      0.002513
    51   Atom        0.009973      0.004062     -0.019412
    52   Atom        0.004246      0.002469      0.000615
    53   Atom        0.000127     -0.004638      0.056522
    54   Atom        0.000191      0.000632     -0.002381
    55   Atom        0.000932      0.001483      0.002209
    56   Atom       -0.007108     -0.001134      0.000604
    57   Atom       -0.005310      0.001362     -0.000375
    58   Atom       -0.004782     -0.004593      0.001952
    59   Atom       -0.004993     -0.001210      0.001018
    60   Atom       -0.005132     -0.000266      0.000741
    61   Atom       -0.003455      0.000383     -0.002297
    62   Atom       -0.004231     -0.000531      0.000908
    63   Atom       -0.002801     -0.000913      0.003592
    64   Atom        0.003460     -0.000594     -0.001760
    65   Atom       -0.000466      0.002974     -0.010896
    66   Atom       -0.001056     -0.003756      0.008877
    67   Atom       -0.000616     -0.008289      0.001180
    68   Atom       -0.000518     -0.004924      0.001387
    69   Atom        0.001940     -0.009384     -0.003103
    70   Atom       -0.003399     -0.011786      0.003882
    71   Atom        0.002849      0.001866      0.023414
    72   Atom        0.000814     -0.000440      0.015575
 --------------------------------------------------------


 ---------------------------------------------------------------------------------
              Anisotropic Spin Dipole Couplings in Principal Axis System
 ---------------------------------------------------------------------------------

       Atom             a.u.   MegaHertz   Gauss  10(-4) cm-1        Axes

              Baa    -4.5385   -78.575   -28.037   -26.210 -0.0279  0.0476  0.9985
     1 Fe(57) Bbb     1.8969    32.841    11.718    10.954  0.7175 -0.6946  0.0532
              Bcc     2.6416    45.734    16.319    15.255  0.6960  0.7179 -0.0148
 
              Baa    -0.1574    -6.072    -2.166    -2.025 -0.6372  0.7590 -0.1337
     2 N(14)  Bbb     0.0432     1.664     0.594     0.555 -0.6184 -0.4000  0.6765
              Bcc     0.1143     4.407     1.573     1.470  0.4599  0.5138  0.7242
 
              Baa    -0.1151    -4.439    -1.584    -1.481  0.7627  0.6458  0.0348
     3 N(14)  Bbb     0.0334     1.289     0.460     0.430 -0.6453  0.7562  0.1090
              Bcc     0.0817     3.150     1.124     1.051  0.0441 -0.1056  0.9934
 
              Baa    -0.1348    -5.200    -1.855    -1.734 -0.6413  0.7665  0.0349
     4 N(14)  Bbb     0.0190     0.733     0.262     0.245  0.4182  0.3110  0.8535
              Bcc     0.1158     4.466     1.594     1.490  0.6433  0.5619 -0.5200
 
              Baa    -0.1677    -6.467    -2.308    -2.157  0.7656  0.6422 -0.0381
     5 N(14)  Bbb     0.0044     0.168     0.060     0.056 -0.6209  0.7530  0.2179
              Bcc     0.1633     6.299     2.248     2.101  0.1687 -0.1432  0.9752
 
              Baa    -0.1351   -18.133    -6.470    -6.048  0.9715 -0.2277  0.0655
     6 C(13)  Bbb    -0.1031   -13.835    -4.937    -4.615  0.2343  0.9645 -0.1218
              Bcc     0.2382    31.968    11.407    10.663 -0.0354  0.1337  0.9904
 
              Baa    -0.0251    -3.369    -1.202    -1.124 -0.6500  0.7358 -0.1902
     7 C(13)  Bbb    -0.0055    -0.733    -0.261    -0.244  0.7525  0.6581 -0.0254
              Bcc     0.0306     4.101     1.463     1.368 -0.1064  0.1596  0.9814
 
              Baa    -0.0652    -8.750    -3.122    -2.919 -0.5648  0.8048 -0.1825
     8 C(13)  Bbb    -0.0423    -5.680    -2.027    -1.895  0.8243  0.5608 -0.0775
              Bcc     0.1075    14.430     5.149     4.813 -0.0399  0.1942  0.9802
 
              Baa    -0.0824   -11.064    -3.948    -3.690 -0.0366  0.9804 -0.1937
     9 C(13)  Bbb    -0.0472    -6.332    -2.259    -2.112  0.9975  0.0476  0.0528
              Bcc     0.1296    17.396     6.207     5.803 -0.0610  0.1913  0.9796
 
              Baa    -0.1257   -16.863    -6.017    -5.625  0.2663  0.9633  0.0321
    10 C(13)  Bbb    -0.0975   -13.078    -4.667    -4.362  0.9580 -0.2682  0.1014
              Bcc     0.2231    29.942    10.684     9.987 -0.1063 -0.0038  0.9943
 
              Baa    -0.0221    -2.963    -1.057    -0.988  0.7412  0.6391  0.2052
    11 C(13)  Bbb    -0.0052    -0.692    -0.247    -0.231 -0.6512  0.7588 -0.0112
              Bcc     0.0272     3.655     1.304     1.219 -0.1629 -0.1253  0.9787
 
              Baa    -0.0866   -11.623    -4.147    -3.877  0.7970  0.5922  0.1187
    12 C(13)  Bbb    -0.0664    -8.917    -3.182    -2.974 -0.5854  0.8058 -0.0894
              Bcc     0.1531    20.540     7.329     6.851 -0.1486  0.0018  0.9889
 
              Baa    -0.0586    -7.867    -2.807    -2.624  0.9818  0.1273  0.1409
    13 C(13)  Bbb    -0.0310    -4.153    -1.482    -1.385 -0.1243  0.9918 -0.0302
              Bcc     0.0896    12.020     4.289     4.009 -0.1436  0.0121  0.9896
 
              Baa    -0.1156   -15.507    -5.533    -5.172  0.9697 -0.2344  0.0688
    14 C(13)  Bbb    -0.0852   -11.436    -4.081    -3.815  0.2256  0.9673  0.1163
              Bcc     0.2008    26.943     9.614     8.987 -0.0938 -0.0973  0.9908
 
              Baa    -0.0328    -4.400    -1.570    -1.468 -0.6469  0.7540  0.1145
    15 C(13)  Bbb    -0.0144    -1.930    -0.689    -0.644  0.7620  0.6333  0.1353
              Bcc     0.0472     6.330     2.259     2.111 -0.0295 -0.1747  0.9842
 
              Baa    -0.0783   -10.508    -3.749    -3.505 -0.6047  0.7909  0.0940
    16 C(13)  Bbb    -0.0567    -7.603    -2.713    -2.536  0.7899  0.5805  0.1975
              Bcc     0.1350    18.110     6.462     6.041 -0.1016 -0.1937  0.9758
 
              Baa    -0.0682    -9.155    -3.267    -3.054 -0.0679  0.9927  0.0996
    17 C(13)  Bbb    -0.0359    -4.811    -1.717    -1.605  0.9960  0.0617  0.0643
              Bcc     0.1041    13.966     4.983     4.658 -0.0577 -0.1036  0.9929
 
              Baa    -0.1023   -13.723    -4.897    -4.578  0.2131  0.9770  0.0006
    18 C(13)  Bbb    -0.0689    -9.244    -3.299    -3.084  0.9674 -0.2109 -0.1402
              Bcc     0.1712    22.967     8.195     7.661  0.1369 -0.0305  0.9901
 
              Baa    -0.0390    -5.231    -1.866    -1.745  0.7423  0.6617 -0.1055
    19 C(13)  Bbb    -0.0190    -2.556    -0.912    -0.852 -0.6520  0.7496  0.1138
              Bcc     0.0580     7.787     2.778     2.597  0.1544 -0.0157  0.9879
 
              Baa    -0.0409    -5.494    -1.960    -1.832  0.8142  0.5679 -0.1210
    20 C(13)  Bbb    -0.0195    -2.620    -0.935    -0.874 -0.5531  0.8219  0.1358
              Bcc     0.0605     8.114     2.895     2.706  0.1766 -0.0436  0.9833
 
              Baa    -0.0921   -12.355    -4.409    -4.121  0.9817  0.0760 -0.1746
    21 C(13)  Bbb    -0.0562    -7.542    -2.691    -2.516 -0.0685  0.9965  0.0486
              Bcc     0.1483    19.897     7.100     6.637  0.1777 -0.0357  0.9834
 
              Baa    -0.1101   -14.774    -5.272    -4.928  0.9928  0.0684 -0.0985
    22 C(13)  Bbb    -0.1003   -13.456    -4.801    -4.488 -0.0777  0.9925 -0.0941
              Bcc     0.2104    28.230    10.073     9.416  0.0913  0.1011  0.9907
 
              Baa    -0.0174    -9.280    -3.311    -3.095  0.9954 -0.0246 -0.0926
    23 H(1)   Bbb    -0.0102    -5.448    -1.944    -1.817  0.0939  0.0584  0.9939
              Bcc     0.0276    14.728     5.255     4.913  0.0190  0.9980 -0.0605
 
              Baa    -0.1162   -15.594    -5.564    -5.202  0.0105  0.9897 -0.1424
    24 C(13)  Bbb    -0.1075   -14.426    -5.147    -4.812  0.9951  0.0037  0.0990
              Bcc     0.2237    30.020    10.712    10.014 -0.0985  0.1428  0.9848
 
              Baa    -0.0177    -9.437    -3.367    -3.148  0.0353  0.9916 -0.1244
    25 H(1)   Bbb    -0.0099    -5.309    -1.894    -1.771 -0.1198  0.1278  0.9845
              Bcc     0.0276    14.745     5.262     4.919  0.9922 -0.0198  0.1233
 
              Baa    -0.1408   -18.893    -6.742    -6.302  0.9815  0.1292  0.1416
    26 C(13)  Bbb    -0.1291   -17.324    -6.182    -5.779 -0.1364  0.9897  0.0427
              Bcc     0.2699    36.217    12.923    12.081 -0.1346 -0.0612  0.9890
 
              Baa    -0.0203   -10.808    -3.856    -3.605  0.9942 -0.0270  0.1045
    27 H(1)   Bbb    -0.0102    -5.446    -1.943    -1.816 -0.1053 -0.0318  0.9939
              Bcc     0.0305    16.253     5.800     5.422  0.0235  0.9991  0.0345
 
              Baa    -0.1315   -17.642    -6.295    -5.885 -0.0498  0.9952  0.0837
    28 C(13)  Bbb    -0.1205   -16.172    -5.771    -5.394  0.9986  0.0509 -0.0114
              Bcc     0.2520    33.814    12.066    11.279  0.0156 -0.0830  0.9964
 
              Baa    -0.0194   -10.364    -3.698    -3.457  0.0449  0.9978  0.0495
    29 H(1)   Bbb    -0.0099    -5.281    -1.884    -1.761  0.0267 -0.0508  0.9984
              Bcc     0.0293    15.645     5.583     5.219  0.9986 -0.0435 -0.0289
 
              Baa    -0.0054    -0.728    -0.260    -0.243 -0.3638  0.9067 -0.2134
    30 C(13)  Bbb    -0.0045    -0.600    -0.214    -0.200 -0.0774  0.1988  0.9770
              Bcc     0.0099     1.328     0.474     0.443  0.9283  0.3719 -0.0021
 
              Baa    -0.0042    -2.237    -0.798    -0.746 -0.0210  0.1028  0.9945
    31 H(1)   Bbb    -0.0034    -1.833    -0.654    -0.611 -0.4951  0.8631 -0.0997
              Bcc     0.0076     4.070     1.452     1.357  0.8686  0.4944 -0.0328
 
              Baa    -0.0057    -3.020    -1.078    -1.007 -0.2970  0.1858  0.9366
    32 H(1)   Bbb    -0.0036    -1.933    -0.690    -0.645 -0.2074  0.9449 -0.2532
              Bcc     0.0093     4.953     1.767     1.652  0.9321  0.2694  0.2421
 
              Baa    -0.0058    -3.088    -1.102    -1.030  0.1947  0.0399  0.9800
    33 H(1)   Bbb    -0.0036    -1.924    -0.686    -0.642 -0.2141  0.9768  0.0028
              Bcc     0.0094     5.011     1.788     1.672  0.9572  0.2104 -0.1987
 
              Baa    -0.0057    -0.762    -0.272    -0.254  0.7997 -0.5713 -0.1848
    34 C(13)  Bbb    -0.0042    -0.569    -0.203    -0.190  0.1945 -0.0448  0.9799
              Bcc     0.0099     1.331     0.475     0.444  0.5681  0.8195 -0.0753
 
              Baa    -0.0058    -3.079    -1.099    -1.027 -0.0860  0.4031  0.9111
    35 H(1)   Bbb    -0.0039    -2.107    -0.752    -0.703  0.8953 -0.3700  0.2481
              Bcc     0.0097     5.186     1.851     1.730  0.4371  0.8370 -0.3290
 
              Baa    -0.0056    -2.986    -1.066    -0.996  0.0286 -0.1287  0.9913
    36 H(1)   Bbb    -0.0038    -2.013    -0.718    -0.671  0.8952 -0.4379 -0.0827
              Bcc     0.0094     4.999     1.784     1.668  0.4448  0.8897  0.1027
 
              Baa    -0.0041    -2.207    -0.788    -0.736 -0.0069  0.1505  0.9886
    37 H(1)   Bbb    -0.0030    -1.624    -0.580    -0.542  0.7628 -0.6385  0.1026
              Bcc     0.0072     3.832     1.367     1.278  0.6466  0.7548 -0.1104
 
              Baa    -0.0057    -0.760    -0.271    -0.254 -0.1065  0.1365  0.9849
    38 C(13)  Bbb    -0.0038    -0.515    -0.184    -0.172  0.5907  0.8055 -0.0478
              Bcc     0.0095     1.276     0.455     0.425  0.7999 -0.5766  0.1665
 
              Baa    -0.0052    -2.768    -0.988    -0.923  0.0862 -0.0262  0.9959
    39 H(1)   Bbb    -0.0030    -1.616    -0.577    -0.539  0.4913  0.8707 -0.0196
              Bcc     0.0082     4.384     1.564     1.462  0.8667 -0.4910 -0.0879
 
              Baa    -0.0062    -3.282    -1.171    -1.095 -0.3235  0.0284  0.9458
    40 H(1)   Bbb    -0.0038    -2.014    -0.719    -0.672  0.3924  0.9136  0.1067
              Bcc     0.0099     5.296     1.890     1.767  0.8610 -0.4057  0.3067
 
              Baa    -0.0048    -2.559    -0.913    -0.854 -0.3495 -0.0792  0.9336
    41 H(1)   Bbb    -0.0020    -1.054    -0.376    -0.352  0.5763  0.7674  0.2809
              Bcc     0.0068     3.613     1.289     1.205  0.7387 -0.6362  0.2226
 
              Baa    -0.0441    -5.912    -2.109    -1.972  0.4077  0.0553  0.9115
    42 C(13)  Bbb     0.0121     1.626     0.580     0.542  0.7970  0.4656 -0.3847
              Bcc     0.0319     4.285     1.529     1.429 -0.4456  0.8833  0.1458
 
              Baa    -0.0065    -3.480    -1.242    -1.161 -0.0271  0.0889  0.9957
    43 H(1)   Bbb    -0.0047    -2.503    -0.893    -0.835  0.9534  0.3016 -0.0009
              Bcc     0.0112     5.983     2.135     1.996 -0.3004  0.9493 -0.0929
 
              Baa    -0.0509    -6.832    -2.438    -2.279  0.8190  0.3272 -0.4713
    44 C(13)  Bbb    -0.0426    -5.720    -2.041    -1.908 -0.2614  0.9440  0.2012
              Bcc     0.0935    12.552     4.479     4.187  0.5108 -0.0415  0.8587
 
              Baa    -0.0039    -2.073    -0.740    -0.691  0.2456  0.3112  0.9181
    45 H(1)   Bbb    -0.0012    -0.639    -0.228    -0.213 -0.1823  0.9450 -0.2716
              Bcc     0.0051     2.712     0.968     0.904  0.9521  0.1007 -0.2888
 
              Baa    -0.0074    -3.950    -1.410    -1.318  0.8306  0.0399 -0.5555
    46 H(1)   Bbb    -0.0022    -1.167    -0.416    -0.389  0.5490  0.1090  0.8287
              Bcc     0.0096     5.117     1.826     1.707 -0.0936  0.9932 -0.0686
 
              Baa    -0.0058    -0.785    -0.280    -0.262 -0.2590 -0.0202  0.9657
    47 C(13)  Bbb    -0.0042    -0.557    -0.199    -0.186  0.7812 -0.5923  0.1972
              Bcc     0.0100     1.342     0.479     0.448  0.5680  0.8055  0.1692
 
              Baa    -0.0064    -3.423    -1.221    -1.142 -0.0716 -0.2990  0.9516
    48 H(1)   Bbb    -0.0039    -2.078    -0.742    -0.693  0.9162 -0.3969 -0.0558
              Bcc     0.0103     5.501     1.963     1.835  0.3944  0.8678  0.3023
 
              Baa    -0.0053    -2.833    -1.011    -0.945 -0.0090  0.1100  0.9939
    49 H(1)   Bbb    -0.0031    -1.667    -0.595    -0.556  0.8668 -0.4948  0.0626
              Bcc     0.0084     4.500     1.606     1.501  0.4987  0.8620 -0.0909
 
              Baa    -0.0049    -2.614    -0.933    -0.872  0.0169 -0.3305  0.9437
    50 H(1)   Bbb    -0.0022    -1.196    -0.427    -0.399  0.7721 -0.5954 -0.2223
              Bcc     0.0071     3.811     1.360     1.271  0.6353  0.7323  0.2451
 
              Baa    -0.0407    -5.460    -1.948    -1.821 -0.1161  0.4051  0.9069
    51 C(13)  Bbb     0.0105     1.404     0.501     0.468 -0.4148  0.8098 -0.4148
              Bcc     0.0302     4.056     1.447     1.353  0.9025  0.4244 -0.0741
 
              Baa    -0.0066    -3.541    -1.264    -1.181 -0.1532  0.0131  0.9881
    52 H(1)   Bbb    -0.0046    -2.475    -0.883    -0.825 -0.2757  0.9597 -0.0554
              Bcc     0.0113     6.016     2.147     2.007  0.9490  0.2809  0.1434
 
              Baa    -0.0464    -6.223    -2.221    -2.076 -0.3060  0.8175 -0.4879
    53 C(13)  Bbb    -0.0380    -5.097    -1.819    -1.700  0.9515  0.2798 -0.1278
              Bcc     0.0844    11.320     4.039     3.776 -0.0320  0.5033  0.8635
 
              Baa    -0.0037    -1.952    -0.696    -0.651 -0.2476  0.3010  0.9209
    54 H(1)   Bbb    -0.0009    -0.483    -0.172    -0.161  0.9689  0.0795  0.2344
              Bcc     0.0046     2.435     0.869     0.812 -0.0027  0.9503 -0.3113
 
              Baa    -0.0068    -3.614    -1.290    -1.206  0.0018  0.8379 -0.5459
    55 H(1)   Bbb    -0.0022    -1.185    -0.423    -0.395 -0.1581  0.5393  0.8272
              Bcc     0.0090     4.800     1.713     1.601  0.9874  0.0848  0.1335
 
              Baa    -0.0057    -0.762    -0.272    -0.254  0.5869  0.8047  0.0897
    56 C(13)  Bbb    -0.0038    -0.508    -0.181    -0.169  0.0256 -0.1292  0.9913
              Bcc     0.0095     1.270     0.453     0.424  0.8092 -0.5795 -0.0964
 
              Baa    -0.0055    -2.945    -1.051    -0.982 -0.1613 -0.1068  0.9811
    57 H(1)   Bbb    -0.0037    -1.975    -0.705    -0.659  0.4448  0.8796  0.1689
              Bcc     0.0092     4.920     1.756     1.641  0.8810 -0.4636  0.0944
 
              Baa    -0.0059    -3.145    -1.122    -1.049  0.3841  0.0076  0.9232
    58 H(1)   Bbb    -0.0037    -1.974    -0.704    -0.658  0.3948  0.9026 -0.1717
              Bcc     0.0096     5.119     1.827     1.708  0.8346 -0.4304 -0.3437
 
              Baa    -0.0041    -2.173    -0.775    -0.725  0.1438 -0.0525  0.9882
    59 H(1)   Bbb    -0.0031    -1.651    -0.589    -0.551  0.6632  0.7463 -0.0569
              Bcc     0.0072     3.823     1.364     1.275  0.7345 -0.6635 -0.1421
 
              Baa    -0.0048    -0.649    -0.232    -0.216 -0.5082 -0.2635  0.8199
    60 C(13)  Bbb    -0.0047    -0.637    -0.227    -0.212  0.7686  0.2908  0.5698
              Bcc     0.0096     1.286     0.459     0.429 -0.3885  0.9198  0.0547
 
              Baa    -0.0053    -2.815    -1.005    -0.939  0.1322  0.2121  0.9683
    61 H(1)   Bbb    -0.0036    -1.900    -0.678    -0.634  0.9473  0.2604 -0.1864
              Bcc     0.0088     4.716     1.683     1.573 -0.2916  0.9419 -0.1665
 
              Baa    -0.0040    -2.137    -0.763    -0.713  0.0693 -0.0709  0.9951
    62 H(1)   Bbb    -0.0030    -1.623    -0.579    -0.541  0.8735  0.4862 -0.0262
              Bcc     0.0070     3.761     1.342     1.254 -0.4819  0.8710  0.0956
 
              Baa    -0.0057    -3.023    -1.079    -1.008  0.0633 -0.2504  0.9661
    63 H(1)   Bbb    -0.0035    -1.878    -0.670    -0.627  0.9691  0.2466  0.0004
              Bcc     0.0092     4.902     1.749     1.635 -0.2383  0.9362  0.2583
 
              Baa    -0.0310     2.240     0.799     0.747 -0.3166  0.9484  0.0182
    64 O(17)  Bbb    -0.0195     1.410     0.503     0.470  0.9485  0.3164  0.0160
              Bcc     0.0504    -3.650    -1.302    -1.218 -0.0094 -0.0223  0.9997
 
              Baa    -0.0160    -8.527    -3.043    -2.844 -0.1187  0.9598  0.2543
    65 H(1)   Bbb    -0.0135    -7.230    -2.580    -2.412  0.9905  0.1324 -0.0375
              Bcc     0.0295    15.757     5.622     5.256  0.0697 -0.2475  0.9664
 
              Baa    -0.0135    -7.204    -2.571    -2.403  0.1916  0.9588 -0.2096
    66 H(1)   Bbb    -0.0127    -6.770    -2.416    -2.258  0.9763 -0.1642  0.1409
              Bcc     0.0262    13.974     4.986     4.661 -0.1007  0.2316  0.9676
 
              Baa    -0.0087    -1.173    -0.419    -0.391  0.9286  0.1365  0.3450
    67 C(13)  Bbb    -0.0076    -1.017    -0.363    -0.339 -0.1083  0.9891 -0.0998
              Bcc     0.0163     2.190     0.782     0.731 -0.3549  0.0553  0.9333
 
              Baa    -0.0051    -2.724    -0.972    -0.909  0.9338 -0.0238  0.3569
    68 H(1)   Bbb    -0.0048    -2.553    -0.911    -0.852  0.0584  0.9946 -0.0863
              Bcc     0.0099     5.277     1.883     1.760 -0.3529  0.1014  0.9301
 
              Baa    -0.0081    -4.329    -1.545    -1.444  0.6881 -0.6860  0.2364
    69 H(1)   Bbb    -0.0075    -4.025    -1.436    -1.343  0.5631  0.7104  0.4222
              Bcc     0.0157     8.354     2.981     2.787 -0.4576 -0.1574  0.8751
 
              Baa    -0.0098    -5.213    -1.860    -1.739  0.2994  0.9541 -0.0098
    70 H(1)   Bbb    -0.0079    -4.218    -1.505    -1.407  0.7539 -0.2303  0.6153
              Bcc     0.0177     9.431     3.365     3.146 -0.5848  0.1916  0.7882
 
              Baa    -0.0242    -0.990    -0.353    -0.330  0.0230 -0.6838  0.7293
    71 S(33)  Bbb     0.0008     0.035     0.012     0.012  0.9883 -0.0947 -0.1200
              Bcc     0.0233     0.956     0.341     0.319  0.1511  0.7235  0.6736
 
              Baa    -0.0146    -7.772    -2.773    -2.592  0.9451 -0.2896  0.1511
    72 H(1)   Bbb    -0.0116    -6.173    -2.203    -2.059  0.3266  0.8384 -0.4364
              Bcc     0.0261    13.945     4.976     4.651 -0.0004  0.4618  0.8870
 

 ---------------------------------------------------------------------------------

 Unable to Open any file for archive entry.
 1\1\GINC-BGN1022\SP\UAPFD\Gen\C31H34Fe1N4O1S1(1+,6)\BECSLEIP\15-Nov-20
 24\0\\# apfd/gen scf=maxcycle=999 geom=check\\6tet_III_H\\1,6\Fe,0,-6.
 1719228152,24.7192117278,7.5657788801\N,0,-4.4457397533,23.7261777825,
 7.3128407848\N,0,-5.813695667,24.8057720801,9.5348378351\N,0,-7.935367
 965,25.6038078422,7.8473060304\N,0,-6.5784018778,24.4843629234,5.63555
 59567\C,0,-3.8806566683,23.3768065937,6.1279538575\C,0,-2.5573355878,2
 2.8296689697,6.3332361662\C,0,-2.3468341153,22.834246723,7.6762839244\
 C,0,-3.5343078576,23.4086738978,8.2700682284\C,0,-4.7584090736,24.2709
 323232,10.2103548941\C,0,-4.8349484376,24.5887317735,11.6118391579\C,0
 ,-5.9535351302,25.3649454012,11.7718046921\C,0,-6.5423632322,25.495275
 2678,10.45473731\C,0,-8.3146270942,26.3007077903,8.9541146994\C,0,-9.5
 096069266,27.0612372345,8.6991072649\C,0,-9.8536240399,26.8068877723,7
 .3976159538\C,0,-8.8428992165,25.9035830945,6.8848810459\C,0,-7.780113
 7774,24.6990313775,5.0370922957\C,0,-7.7834931361,24.183628437,3.68604
 64313\C,0,-6.5519376453,23.6460241149,3.4827752777\C,0,-5.8242419536,2
 3.8218842954,4.7207103934\C,0,-4.5108843452,23.4314244631,4.8998665009
 \H,0,-3.9792744425,23.0433410801,4.0450800041\C,0,-3.7039898396,23.586
 1086723,9.6284471479\H,0,-2.9151811116,23.2406679833,10.278392574\C,0,
 -7.6895664845,26.2195622925,10.1869816665\H,0,-8.1294008599,26.7705457
 686,11.0038798201\C,0,-8.8285511043,25.4041359108,5.5954405625\H,0,-9.
 6858483411,25.6019671381,4.9708081949\C,0,-1.1605014339,22.3706485424,
 8.449278556\H,0,-0.392711548,21.9847680346,7.7834273465\H,0,-1.4414703
 701,21.5780033357,9.1430625417\H,0,-0.7337861135,23.1905786543,9.02770
 62941\C,0,-1.6643797112,22.3598229532,5.2372619546\H,0,-1.5097158814,2
 3.1510429911,4.5038627382\H,0,-2.1054509115,21.5048828652,4.7237630073
 \H,0,-0.695628113,22.0598169305,5.6291965766\C,0,-3.8964808516,24.0884
 010149,12.6533809625\H,0,-3.0020000046,24.7117054367,12.7055973272\H,0
 ,-3.5843936634,23.0688333431,12.432309722\H,0,-4.3801742447,24.1020130
 581,13.6280311728\C,0,-6.5002585012,25.9444663868,12.9789727107\H,0,-7
 .5807839512,26.0217773465,13.0120892311\C,0,-5.7910111068,26.380604105
 5,14.0146914605\H,0,-4.7150592283,26.3721028704,14.0181282835\H,0,-6.2
 672611147,26.7886742262,14.8905765828\C,0,-10.1596296905,27.9836845578
 ,9.6697742104\H,0,-9.4137422257,28.4880619127,10.2822920718\H,0,-10.83
 10494956,27.4384652894,10.3353714683\H,0,-10.7404948781,28.7345002688,
 9.137979417\C,0,-10.9581938925,27.3286201333,6.6232662671\H,0,-10.7618
 542697,27.4678729435,5.5668347821\C,0,-12.1600459468,27.631406641,7.10
 28210718\H,0,-12.4238145655,27.4695255287,8.1333292292\H,0,-12.9350688
 433,28.0295469213,6.4691997142\C,0,-8.9451540362,24.269056425,2.757471
 4749\H,0,-9.1657160474,25.3096720737,2.5177907886\H,0,-9.833635085,23.
 8316504498,3.2124388115\H,0,-8.7380834427,23.7419122014,1.8294337694\C
 ,0,-5.9988041316,22.9785239166,2.2710613041\H,0,-5.1414709346,23.53267
 75264,1.8881414423\H,0,-6.7477245319,22.9229985336,1.4850045489\H,0,-5
 .6694691319,21.9662505116,2.5059318021\O,0,-7.174,22.773,7.977\H,0,-7.
 408,22.741,8.905\H,0,-7.324,22.137,7.374\C,0,-3.5074791123,26.79726523
 78,7.9192279839\H,0,-3.1477649985,27.8162448962,8.0225248477\H,0,-2.88
 51869247,26.2490841421,7.2199240786\H,0,-3.5249884895,26.2849708202,8.
 8747787045\S,0,-5.1911253136,26.8267367064,7.2070588927\H,0,-5.7442866
 349,27.471696646,8.2416926287\\Version=ES64L-G16RevC.02\State=6-A\HF=-
 3095.1098413\S2=8.83926\S2-1=0.\S2A=8.751584\RMSD=4.959e-09\Dipole=-2.
 4040518,-6.1168175,1.4856928\Quadrupole=0.1753914,13.3303794,-13.50577
 08,13.2785583,-1.8450717,-2.1060383\PG=C01 [X(C31H34Fe1N4O1S1)]\\@
 The archive entry for this job was punched.


 Everywhere is walking distance if you have the time.
                                    -- Steven Wright
 Job cpu time:       0 days  2 hours 48 minutes 56.4 seconds.
 Elapsed time:       0 days  0 hours  2 minutes 51.2 seconds.
 File lengths (MBytes):  RWF=    347 Int=      0 D2E=      0 Chk=    156 Scr=      1
 Normal termination of Gaussian 16 at Fri Nov 15 10:49:25 2024.
