 Entering Gaussian System, Link 0=g16
 Input=6tet05re.com
 Output=6tet05re.log
 Initial command:
 /sw/chem/gaussian/g16_C02/a100/g16/l1.exe "/local/becsleip_8081471/Gau-1440560.inp" -scrdir="/local/becsleip_8081471/"
 Entering Link 1 = /sw/chem/gaussian/g16_C02/a100/g16/l1.exe PID=   1440561.
  
 Copyright (c) 1988-2021, Gaussian, Inc.  All Rights Reserved.
  
 This is part of the Gaussian(R) 16 program.  It is based on
 the Gaussian(R) 09 system (copyright 2009, Gaussian, Inc.),
 the Gaussian(R) 03 system (copyright 2003, Gaussian, Inc.),
 the Gaussian(R) 98 system (copyright 1998, Gaussian, Inc.),
 the Gaussian(R) 94 system (copyright 1995, Gaussian, Inc.),
 the Gaussian 92(TM) system (copyright 1992, Gaussian, Inc.),
 the Gaussian 90(TM) system (copyright 1990, Gaussian, Inc.),
 the Gaussian 88(TM) system (copyright 1988, Gaussian, Inc.),
 the Gaussian 86(TM) system (copyright 1986, Carnegie Mellon
 University), and the Gaussian 82(TM) system (copyright 1983,
 Carnegie Mellon University). Gaussian is a federally registered
 trademark of Gaussian, Inc.
  
 This software contains proprietary and confidential information,
 including trade secrets, belonging to Gaussian, Inc.
  
 This software is provided under written license and may be
 used, copied, transmitted, or stored only in accord with that
 written license.
  
 The following legend is applicable only to US Government
 contracts under FAR:
  
                    RESTRICTED RIGHTS LEGEND
  
 Use, reproduction and disclosure by the US Government is
 subject to restrictions as set forth in subparagraphs (a)
 and (c) of the Commercial Computer Software - Restricted
 Rights clause in FAR 52.227-19.
  
 Gaussian, Inc.
 340 Quinnipiac St., Bldg. 40, Wallingford CT 06492
  
  
 ---------------------------------------------------------------
 Warning -- This program may not be used in any manner that
 competes with the business of Gaussian, Inc. or will provide
 assistance to any competitor of Gaussian, Inc.  The licensee
 of this program is prohibited from giving any competitor of
 Gaussian, Inc. access to this program.  By using this program,
 the user acknowledges that Gaussian, Inc. is engaged in the
 business of creating and licensing software in the field of
 computational chemistry and represents and warrants to the
 licensee that it is not a competitor of Gaussian, Inc. and that
 it will not use this program in any manner prohibited above.
 ---------------------------------------------------------------
  

 Cite this work as:
 Gaussian 16, Revision C.02,
 M. J. Frisch, G. W. Trucks, H. B. Schlegel, G. E. Scuseria, 
 M. A. Robb, J. R. Cheeseman, G. Scalmani, V. Barone, 
 G. A. Petersson, H. Nakatsuji, X. Li, M. Caricato, A. V. Marenich, 
 J. Bloino, B. G. Janesko, R. Gomperts, B. Mennucci, H. P. Hratchian, 
 J. V. Ortiz, A. F. Izmaylov, J. L. Sonnenberg, D. Williams-Young, 
 F. Ding, F. Lipparini, F. Egidi, J. Goings, B. Peng, A. Petrone, 
 T. Henderson, D. Ranasinghe, V. G. Zakrzewski, J. Gao, N. Rega, 
 G. Zheng, W. Liang, M. Hada, M. Ehara, K. Toyota, R. Fukuda, 
 J. Hasegawa, M. Ishida, T. Nakajima, Y. Honda, O. Kitao, H. Nakai, 
 T. Vreven, K. Throssell, J. A. Montgomery, Jr., J. E. Peralta, 
 F. Ogliaro, M. J. Bearpark, J. J. Heyd, E. N. Brothers, K. N. Kudin, 
 V. N. Staroverov, T. A. Keith, R. Kobayashi, J. Normand, 
 K. Raghavachari, A. P. Rendell, J. C. Burant, S. S. Iyengar, 
 J. Tomasi, M. Cossi, J. M. Millam, M. Klene, C. Adamo, R. Cammi, 
 J. W. Ochterski, R. L. Martin, K. Morokuma, O. Farkas, 
 J. B. Foresman, and D. J. Fox, Gaussian, Inc., Wallingford CT, 2019.
 
 ******************************************
 Gaussian 16:  ES64L-G16RevC.02  7-Dec-2021
                14-Nov-2024 
 ******************************************
 %mem=16GB
 %CPU=0-71
 SetSPE:  set environment variable "OMP_PROC_BIND" = "true"
 SetSPE:  set environment variable "OMP_PLACES" = "{0},{1},{2},{3},{4},{5},{6},{7},{8},{9},{10},{11},{12},{13},{14},{15},{16},{17},{18},{19},{20},{21},{22},{23},{24},{25},{26},{27},{28},{29},{30},{31},{32},{33},{34},{35},{36},{37},{38},{39},{40},{41},{42},{43},{44},{45},{46},{47},{48},{49},{50},{51},{52},{53},{54},{55},{56},{57},{58},{59},{60},{61},{62},{63},{64},{65},{66},{67},{68},{69},{70},{71}"
 Will use up to   72 processors via shared memory.
 %gpucpu=0,1,2,3=0,1,2,3
 Will use    4 GPUs:
 Thread  CPU   GPU
      0    0     0
      1    1     1
      2    2     2
      3    3     3
      4    4    -1
      5    5    -1
      6    6    -1
      7    7    -1
      8    8    -1
      9    9    -1
     10   10    -1
     11   11    -1
     12   12    -1
     13   13    -1
     14   14    -1
     15   15    -1
     16   16    -1
     17   17    -1
     18   18    -1
     19   19    -1
     20   20    -1
     21   21    -1
     22   22    -1
     23   23    -1
     24   24    -1
     25   25    -1
     26   26    -1
     27   27    -1
     28   28    -1
     29   29    -1
     30   30    -1
     31   31    -1
     32   32    -1
     33   33    -1
     34   34    -1
     35   35    -1
     36   36    -1
     37   37    -1
     38   38    -1
     39   39    -1
     40   40    -1
     41   41    -1
     42   42    -1
     43   43    -1
     44   44    -1
     45   45    -1
     46   46    -1
     47   47    -1
     48   48    -1
     49   49    -1
     50   50    -1
     51   51    -1
     52   52    -1
     53   53    -1
     54   54    -1
     55   55    -1
     56   56    -1
     57   57    -1
     58   58    -1
     59   59    -1
     60   60    -1
     61   61    -1
     62   62    -1
     63   63    -1
     64   64    -1
     65   65    -1
     66   66    -1
     67   67    -1
     68   68    -1
     69   69    -1
     70   70    -1
     71   71    -1
 SetGPE:  set environment variable "OMP_PROC_BIND" = "true"
 SetGPE:  set environment variable "OMP_PLACES" = "{0},{1},{2},{3},{4},{5},{6},{7},{8},{9},{10},{11},{12},{13},{14},{15},{16},{17},{18},{19},{20},{21},{22},{23},{24},{25},{26},{27},{28},{29},{30},{31},{32},{33},{34},{35},{36},{37},{38},{39},{40},{41},{42},{43},{44},{45},{46},{47},{48},{49},{50},{51},{52},{53},{54},{55},{56},{57},{58},{59},{60},{61},{62},{63},{64},{65},{66},{67},{68},{69},{70},{71}"
 %oldchk=6tet_II_S.chk
 %chk=6tet_II_Sre.chk
 Properties for Device   0
 Minimum vector length:                              32
 Maximum vector length:                            1024
 Number of SMPs:                                    108
 Maximum number of threads per SMP:                2048
 Number of ASync Engines:                             5
 Memory:                                           9207742464
 Properties for Device   1
 Minimum vector length:                              32
 Maximum vector length:                            1024
 Number of SMPs:                                    108
 Maximum number of threads per SMP:                2048
 Number of ASync Engines:                             5
 Memory:                                           9207742464
 Properties for Device   2
 Minimum vector length:                              32
 Maximum vector length:                            1024
 Number of SMPs:                                    108
 Maximum number of threads per SMP:                2048
 Number of ASync Engines:                             5
 Memory:                                           9207742464
 Properties for Device   3
 Minimum vector length:                              32
 Maximum vector length:                            1024
 Number of SMPs:                                    108
 Maximum number of threads per SMP:                2048
 Number of ASync Engines:                             5
 Memory:                                           9207742464
   8286968217 words of memory will be used on each GPU.
 Copying data from "6tet_II_S.chk" to current chk file "6tet_II_Sre.chk"
 IOpt=  2 FromEx=T IUOpen= 4 IOptOp= 5 NList=   0 IFRang= 0 IUIn= 4 IUOut= 2.
 --------------------------------------
 # apfd/gen scf=maxcycle=999 geom=check
 --------------------------------------
 1/29=2,38=1,172=1/1;
 2/12=2,40=1/2;
 3/5=7,11=2,14=-4,25=1,30=1,74=-44/1,2,3;
 4//1;
 5/5=2,7=999,38=5/2;
 6/7=2,8=2,9=2,10=2,28=1/1;
 99/5=1,9=1/99;
 ---------
 6tet_II_Q
 ---------
 Structure from the checkpoint file:  "6tet_II_Sre.chk"
 Charge =  0 Multiplicity = 5
 Z-Matrix found in chk file.
 Fe,0,-6.1719228152,24.7192117278,7.5657788801
 N,0,-4.4457397533,23.7261777825,7.3128407848
 N,0,-5.813695667,24.8057720801,9.5348378351
 N,0,-7.935367965,25.6038078422,7.8473060304
 N,0,-6.5784018778,24.4843629234,5.6355559567
 C,0,-3.8806566683,23.3768065937,6.1279538575
 C,0,-2.5573355878,22.8296689697,6.3332361662
 C,0,-2.3468341153,22.834246723,7.6762839244
 C,0,-3.5343078576,23.4086738978,8.2700682284
 C,0,-4.7584090736,24.2709323232,10.2103548941
 C,0,-4.8349484376,24.5887317735,11.6118391579
 C,0,-5.9535351302,25.3649454012,11.7718046921
 C,0,-6.5423632322,25.4952752678,10.45473731
 C,0,-8.3146270942,26.3007077903,8.9541146994
 C,0,-9.5096069266,27.0612372345,8.6991072649
 C,0,-9.8536240399,26.8068877723,7.3976159538
 C,0,-8.8428992165,25.9035830945,6.8848810459
 C,0,-7.7801137774,24.6990313775,5.0370922957
 C,0,-7.7834931361,24.183628437,3.6860464313
 C,0,-6.5519376453,23.6460241149,3.4827752777
 C,0,-5.8242419536,23.8218842954,4.7207103934
 C,0,-4.5108843452,23.4314244631,4.8998665009
 H,0,-3.9792744425,23.0433410801,4.0450800041
 C,0,-3.7039898396,23.5861086723,9.6284471479
 H,0,-2.9151811116,23.2406679833,10.278392574
 C,0,-7.6895664845,26.2195622925,10.1869816665
 H,0,-8.1294008599,26.7705457686,11.0038798201
 C,0,-8.8285511043,25.4041359108,5.5954405625
 H,0,-9.6858483411,25.6019671381,4.9708081949
 C,0,-1.1605014339,22.3706485424,8.449278556
 H,0,-0.392711548,21.9847680346,7.7834273465
 H,0,-1.4414703701,21.5780033357,9.1430625417
 H,0,-0.7337861135,23.1905786543,9.0277062941
 C,0,-1.6643797112,22.3598229532,5.2372619546
 H,0,-1.5097158814,23.1510429911,4.5038627382
 H,0,-2.1054509115,21.5048828652,4.7237630073
 H,0,-0.695628113,22.0598169305,5.6291965766
 C,0,-3.8964808516,24.0884010149,12.6533809625
 H,0,-3.0020000046,24.7117054367,12.7055973272
 H,0,-3.5843936634,23.0688333431,12.432309722
 H,0,-4.3801742447,24.1020130581,13.6280311728
 C,0,-6.5002585012,25.9444663868,12.9789727107
 H,0,-7.5807839512,26.0217773465,13.0120892311
 C,0,-5.7910111068,26.3806041055,14.0146914605
 H,0,-4.7150592283,26.3721028704,14.0181282835
 H,0,-6.2672611147,26.7886742262,14.8905765828
 C,0,-10.1596296905,27.9836845578,9.6697742104
 H,0,-9.4137422257,28.4880619127,10.2822920718
 H,0,-10.8310494956,27.4384652894,10.3353714683
 H,0,-10.7404948781,28.7345002688,9.137979417
 C,0,-10.9581938925,27.3286201333,6.6232662671
 H,0,-10.7618542697,27.4678729435,5.5668347821
 C,0,-12.1600459468,27.631406641,7.1028210718
 H,0,-12.4238145655,27.4695255287,8.1333292292
 H,0,-12.9350688433,28.0295469213,6.4691997142
 C,0,-8.9451540362,24.269056425,2.7574714749
 H,0,-9.1657160474,25.3096720737,2.5177907886
 H,0,-9.833635085,23.8316504498,3.2124388115
 H,0,-8.7380834427,23.7419122014,1.8294337694
 C,0,-5.9988041316,22.9785239166,2.2710613041
 H,0,-5.1414709346,23.5326775264,1.8881414423
 H,0,-6.7477245319,22.9229985336,1.4850045489
 H,0,-5.6694691319,21.9662505116,2.5059318021
 O,0,-7.174,22.773,7.977
 H,0,-7.408,22.741,8.905
 H,0,-7.324,22.137,7.374
 C,0,-3.5074791123,26.7972652378,7.9192279839
 H,0,-3.1477649985,27.8162448962,8.0225248477
 H,0,-2.8851869247,26.2490841421,7.2199240786
 H,0,-3.5249884895,26.2849708202,8.8747787045
 S,0,-5.1911253136,26.8267367064,7.2070588927
 H,0,-5.7442866349,27.471696646,8.2416926287
 Recover connectivity data from disk.
 Stoichiometry    C31H34FeN4OS(5)
 Framework group  C1[X(C31H34FeN4OS)]
 Deg. of freedom   210
 Full point group                 C1      NOp   1
 Largest Abelian subgroup         C1      NOp   1
 Largest concise Abelian subgroup C1      NOp   1
                         Standard orientation:                         
 ---------------------------------------------------------------------
 Center     Atomic      Atomic             Coordinates (Angstroms)
 Number     Number       Type             X           Y           Z
 ---------------------------------------------------------------------
      1         26           0        0.018973   -0.202286   -0.106879
      2          7           0       -1.519418   -1.491210   -0.149677
      3          7           0       -1.269078    1.315786   -0.329128
      4          7           0        1.543110    1.079508   -0.181173
      5          7           0        1.285476   -1.731368   -0.043502
      6          6           0       -1.457937   -2.830356    0.069965
      7          6           0       -2.785904   -3.400881    0.130663
      8          6           0       -3.651913   -2.374989   -0.083078
      9          6           0       -2.841075   -1.187986   -0.244962
     10          6           0       -2.620483    1.241127   -0.484493
     11          6           0       -3.198734    2.556393   -0.566426
     12          6           0       -2.163555    3.443559   -0.422646
     13          6           0       -0.967689    2.641521   -0.264492
     14          6           0        1.466488    2.426962    0.000564
     15          6           0        2.774546    2.995610    0.193006
     16          6           0        3.658959    1.951750    0.121655
     17          6           0        2.859462    0.763127   -0.098348
     18          6           0        2.628106   -1.669732   -0.248194
     19          6           0        3.190978   -2.994707   -0.384543
     20          6           0        2.151899   -3.862034   -0.261560
     21          6           0        0.968193   -3.051572   -0.074635
     22          6           0       -0.295367   -3.574612    0.123638
     23          1           0       -0.388583   -4.645201    0.218657
     24          6           0       -3.359835    0.069489   -0.479725
     25          1           0       -4.430372    0.155627   -0.582229
     26          6           0        0.298380    3.166124   -0.079503
     27          1           0        0.381383    4.237736    0.015976
     28          6           0        3.380371   -0.511368   -0.227287
     29          1           0        4.452956   -0.611535   -0.288853
     30          6           0       -5.140597   -2.390506   -0.141454
     31          1           0       -5.522563   -3.396055    0.015824
     32          1           0       -5.489325   -2.040266   -1.113198
     33          1           0       -5.562469   -1.738663    0.624101
     34          6           0       -3.069068   -4.843793    0.369638
     35          1           0       -2.597854   -5.178361    1.293675
     36          1           0       -2.678808   -5.451193   -0.447620
     37          1           0       -4.139131   -5.020756    0.445433
     38          6           0       -4.635956    2.842549   -0.827901
     39          1           0       -5.217495    2.798543    0.094708
     40          1           0       -5.052512    2.115981   -1.523868
     41          1           0       -4.745993    3.837580   -1.254388
     42          6           0       -2.188622    4.889618   -0.439689
     43          1           0       -1.309317    5.367104   -0.856149
     44          6           0       -3.181409    5.648979    0.011650
     45          1           0       -4.057181    5.231955    0.477342
     46          1           0       -3.138529    6.723822   -0.046526
     47          6           0        3.049494    4.429540    0.482632
     48          1           0        2.265198    4.854763    1.107122
     49          1           0        3.099269    5.010517   -0.439906
     50          1           0        4.000969    4.528711    1.001085
     51          6           0        5.097981    1.958682    0.266787
     52          1           0        5.524981    1.071073    0.718238
     53          6           0        5.905550    2.944303   -0.110685
     54          1           0        5.540446    3.827259   -0.605472
     55          1           0        6.970842    2.888175    0.039836
     56          6           0        4.637120   -3.274003   -0.607418
     57          1           0        5.224296   -2.953336    0.253612
     58          1           0        5.001452   -2.737584   -1.483337
     59          1           0        4.806852   -4.337119   -0.759039
     60          6           0        2.150108   -5.350890   -0.316968
     61          1           0        1.805514   -5.767422    0.629864
     62          1           0        3.149451   -5.731181   -0.513289
     63          1           0        1.485045   -5.705821   -1.104393
     64          8           0        0.086028   -0.285155   -2.331657
     65          1           0       -0.214550    0.555903   -2.676964
     66          1           0        0.346695   -0.987830   -2.810098
     67          6           0       -1.755508   -0.078442    2.787663
     68          1           0       -1.822267    0.291002    3.806210
     69          1           0       -2.046565   -1.122699    2.747793
     70          1           0       -2.376916    0.501860    2.114661
     71         16           0       -0.014030   -0.000909    2.236338
     72          1           0        0.073492    1.332836    2.313108
 ---------------------------------------------------------------------
 Rotational constants (GHZ):           0.1092376           0.1074172           0.0599108
 General basis read from cards:  (5D, 7F)
 Warning:  center  64 has no basis functions!
 There are   648 symmetry adapted cartesian basis functions of A   symmetry.
 There are   609 symmetry adapted basis functions of A   symmetry.
   609 basis functions,  1254 primitive gaussians,   648 cartesian basis functions
   151 alpha electrons      147 beta electrons
       nuclear repulsion energy      5420.5355666502 Hartrees.



 Warning!  O  atom   64 has  8 valence electrons but only   0 basis functions.
 This is less than a minimal basis set!



 NAtoms=   72 NActive=   72 NUniq=   72 SFac= 1.00D+00 NAtFMM=   60 NAOKFM=T Big=T
 Integral buffers will be    131072 words long.
 Raffenetti 2 integral format.
 Two-electron integral symmetry is turned on.
 R6APFD:  NTU= -4 IXU= 1 FactS= 1.050
 Nuclear repulsion after empirical dispersion term =     5420.3824238532 Hartrees.
 One-electron integrals computed using PRISM.
 NBasis=   609 RedAO= T EigKep=  2.62D-04  NBF=   609
 NBsUse=   609 1.00D-06 EigRej= -1.00D+00 NBFU=   609
 ExpMin= 4.20D-02 ExpMax= 3.01D+05 ExpMxC= 3.30D+03 IAcc=3 IRadAn=         5 AccDes= 0.00D+00
 Harris functional with IExCor= 3731 and IRadAn=       5 diagonalized for initial guess.
 HarFok:  IExCor= 3731 AccDes= 0.00D+00 IRadAn=         5 IDoV= 1 UseB2=F ITyADJ=14
 ICtDFT=  3500011 ScaDFX=  1.000000  1.000000  1.000000  1.000000
 FoFCou: FMM=F IPFlag=           0 FMFlag=      100000 FMFlg1=        2001
         NFxFlg=           0 DoJE=T BraDBF=F KetDBF=T FulRan=T
         wScrn=  0.000000 ICntrl=       500 IOpCl=  0 I1Cent=   200000004 NGrid=           0
         NMat0=    1 NMatS0=      1 NMatT0=    0 NMatD0=    1 NMtDS0=    0 NMtDT0=    0
 Petite list used in FoFCou.
 Initial guess <Sx>= 0.0000 <Sy>= 0.0000 <Sz>= 2.0000 <S**2>= 6.0000 S= 2.0000
 Requested convergence on RMS density matrix=1.00D-08 within 999 cycles.
 Requested convergence on MAX density matrix=1.00D-06.
 Requested convergence on             energy=1.00D-06.
 No special actions if energy rises.
 EnCoef did   100 forward-backward iterations
 EnCoef did   100 forward-backward iterations
 EnCoef did     5 forward-backward iterations
 EnCoef did     7 forward-backward iterations
 EnCoef did     7 forward-backward iterations
 EnCoef did     9 forward-backward iterations
 EnCoef did     3 forward-backward iterations
 Restarting incremental Fock formation.
 Restarting incremental Fock formation.
 SCF Done:  E(UAPFD) =  -3095.29559033     A.U. after   42 cycles
            NFock= 42  Conv=0.76D-08     -V/T= 2.0052
 <Sx>= 0.0000 <Sy>= 0.0000 <Sz>= 2.0000 <S**2>= 6.0791 S= 2.0158
 <L.S>=  0.00000000000    
 Annihilation of the first spin contaminant:
 S**2 before annihilation     6.0791,   after     6.0014

 **********************************************************************

            Population analysis using the SCF Density.

 **********************************************************************

 Orbital symmetries:
 Alpha Orbitals:
       Occupied  (A) (A) (A) (A) (A) (A) (A) (A) (A) (A) (A) (A)
                 (A) (A) (A) (A) (A) (A) (A) (A) (A) (A) (A) (A)
                 (A) (A) (A) (A) (A) (A) (A) (A) (A) (A) (A) (A)
                 (A) (A) (A) (A) (A) (A) (A) (A) (A) (A) (A) (A)
                 (A) (A) (A) (A) (A) (A) (A) (A) (A) (A) (A) (A)
                 (A) (A) (A) (A) (A) (A) (A) (A) (A) (A) (A) (A)
                 (A) (A) (A) (A) (A) (A) (A) (A) (A) (A) (A) (A)
                 (A) (A) (A) (A) (A) (A) (A) (A) (A) (A) (A) (A)
                 (A) (A) (A) (A) (A) (A) (A) (A) (A) (A) (A) (A)
                 (A) (A) (A) (A) (A) (A) (A) (A) (A) (A) (A) (A)
                 (A) (A) (A) (A) (A) (A) (A) (A) (A) (A) (A) (A)
                 (A) (A) (A) (A) (A) (A) (A) (A) (A) (A) (A) (A)
                 (A) (A) (A) (A) (A) (A) (A)
       Virtual   (A) (A) (A) (A) (A) (A) (A) (A) (A) (A) (A) (A)
                 (A) (A) (A) (A) (A) (A) (A) (A) (A) (A) (A) (A)
                 (A) (A) (A) (A) (A) (A) (A) (A) (A) (A) (A) (A)
                 (A) (A) (A) (A) (A) (A) (A) (A) (A) (A) (A) (A)
                 (A) (A) (A) (A) (A) (A) (A) (A) (A) (A) (A) (A)
                 (A) (A) (A) (A) (A) (A) (A) (A) (A) (A) (A) (A)
                 (A) (A) (A) (A) (A) (A) (A) (A) (A) (A) (A) (A)
                 (A) (A) (A) (A) (A) (A) (A) (A) (A) (A) (A) (A)
                 (A) (A) (A) (A) (A) (A) (A) (A) (A) (A) (A) (A)
                 (A) (A) (A) (A) (A) (A) (A) (A) (A) (A) (A) (A)
                 (A) (A) (A) (A) (A) (A) (A) (A) (A) (A) (A) (A)
                 (A) (A) (A) (A) (A) (A) (A) (A) (A) (A) (A) (A)
                 (A) (A) (A) (A) (A) (A) (A) (A) (A) (A) (A) (A)
                 (A) (A) (A) (A) (A) (A) (A) (A) (A) (A) (A) (A)
                 (A) (A) (A) (A) (A) (A) (A) (A) (A) (A) (A) (A)
                 (A) (A) (A) (A) (A) (A) (A) (A) (A) (A) (A) (A)
                 (A) (A) (A) (A) (A) (A) (A) (A) (A) (A) (A) (A)
                 (A) (A) (A) (A) (A) (A) (A) (A) (A) (A) (A) (A)
                 (A) (A) (A) (A) (A) (A) (A) (A) (A) (A) (A) (A)
                 (A) (A) (A) (A) (A) (A) (A) (A) (A) (A) (A) (A)
                 (A) (A) (A) (A) (A) (A) (A) (A) (A) (A) (A) (A)
                 (A) (A) (A) (A) (A) (A) (A) (A) (A) (A) (A) (A)
                 (A) (A) (A) (A) (A) (A) (A) (A) (A) (A) (A) (A)
                 (A) (A) (A) (A) (A) (A) (A) (A) (A) (A) (A) (A)
                 (A) (A) (A) (A) (A) (A) (A) (A) (A) (A) (A) (A)
                 (A) (A) (A) (A) (A) (A) (A) (A) (A) (A) (A) (A)
                 (A) (A) (A) (A) (A) (A) (A) (A) (A) (A) (A) (A)
                 (A) (A) (A) (A) (A) (A) (A) (A) (A) (A) (A) (A)
                 (A) (A) (A) (A) (A) (A) (A) (A) (A) (A) (A) (A)
                 (A) (A) (A) (A) (A) (A) (A) (A) (A) (A) (A) (A)
                 (A) (A) (A) (A) (A) (A) (A) (A) (A) (A) (A) (A)
                 (A) (A) (A) (A) (A) (A) (A) (A) (A) (A) (A) (A)
                 (A) (A) (A) (A) (A) (A) (A) (A) (A) (A) (A) (A)
                 (A) (A) (A) (A) (A) (A) (A) (A) (A) (A) (A) (A)
                 (A) (A) (A) (A) (A) (A) (A) (A) (A) (A) (A) (A)
                 (A) (A) (A) (A) (A) (A) (A) (A) (A) (A) (A) (A)
                 (A) (A) (A) (A) (A) (A) (A) (A) (A) (A) (A) (A)
                 (A) (A) (A) (A) (A) (A) (A) (A) (A) (A) (A) (A)
                 (A) (A)
 Beta  Orbitals:
       Occupied  (A) (A) (A) (A) (A) (A) (A) (A) (A) (A) (A) (A)
                 (A) (A) (A) (A) (A) (A) (A) (A) (A) (A) (A) (A)
                 (A) (A) (A) (A) (A) (A) (A) (A) (A) (A) (A) (A)
                 (A) (A) (A) (A) (A) (A) (A) (A) (A) (A) (A) (A)
                 (A) (A) (A) (A) (A) (A) (A) (A) (A) (A) (A) (A)
                 (A) (A) (A) (A) (A) (A) (A) (A) (A) (A) (A) (A)
                 (A) (A) (A) (A) (A) (A) (A) (A) (A) (A) (A) (A)
                 (A) (A) (A) (A) (A) (A) (A) (A) (A) (A) (A) (A)
                 (A) (A) (A) (A) (A) (A) (A) (A) (A) (A) (A) (A)
                 (A) (A) (A) (A) (A) (A) (A) (A) (A) (A) (A) (A)
                 (A) (A) (A) (A) (A) (A) (A) (A) (A) (A) (A) (A)
                 (A) (A) (A) (A) (A) (A) (A) (A) (A) (A) (A) (A)
                 (A) (A) (A)
       Virtual   (A) (A) (A) (A) (A) (A) (A) (A) (A) (A) (A) (A)
                 (A) (A) (A) (A) (A) (A) (A) (A) (A) (A) (A) (A)
                 (A) (A) (A) (A) (A) (A) (A) (A) (A) (A) (A) (A)
                 (A) (A) (A) (A) (A) (A) (A) (A) (A) (A) (A) (A)
                 (A) (A) (A) (A) (A) (A) (A) (A) (A) (A) (A) (A)
                 (A) (A) (A) (A) (A) (A) (A) (A) (A) (A) (A) (A)
                 (A) (A) (A) (A) (A) (A) (A) (A) (A) (A) (A) (A)
                 (A) (A) (A) (A) (A) (A) (A) (A) (A) (A) (A) (A)
                 (A) (A) (A) (A) (A) (A) (A) (A) (A) (A) (A) (A)
                 (A) (A) (A) (A) (A) (A) (A) (A) (A) (A) (A) (A)
                 (A) (A) (A) (A) (A) (A) (A) (A) (A) (A) (A) (A)
                 (A) (A) (A) (A) (A) (A) (A) (A) (A) (A) (A) (A)
                 (A) (A) (A) (A) (A) (A) (A) (A) (A) (A) (A) (A)
                 (A) (A) (A) (A) (A) (A) (A) (A) (A) (A) (A) (A)
                 (A) (A) (A) (A) (A) (A) (A) (A) (A) (A) (A) (A)
                 (A) (A) (A) (A) (A) (A) (A) (A) (A) (A) (A) (A)
                 (A) (A) (A) (A) (A) (A) (A) (A) (A) (A) (A) (A)
                 (A) (A) (A) (A) (A) (A) (A) (A) (A) (A) (A) (A)
                 (A) (A) (A) (A) (A) (A) (A) (A) (A) (A) (A) (A)
                 (A) (A) (A) (A) (A) (A) (A) (A) (A) (A) (A) (A)
                 (A) (A) (A) (A) (A) (A) (A) (A) (A) (A) (A) (A)
                 (A) (A) (A) (A) (A) (A) (A) (A) (A) (A) (A) (A)
                 (A) (A) (A) (A) (A) (A) (A) (A) (A) (A) (A) (A)
                 (A) (A) (A) (A) (A) (A) (A) (A) (A) (A) (A) (A)
                 (A) (A) (A) (A) (A) (A) (A) (A) (A) (A) (A) (A)
                 (A) (A) (A) (A) (A) (A) (A) (A) (A) (A) (A) (A)
                 (A) (A) (A) (A) (A) (A) (A) (A) (A) (A) (A) (A)
                 (A) (A) (A) (A) (A) (A) (A) (A) (A) (A) (A) (A)
                 (A) (A) (A) (A) (A) (A) (A) (A) (A) (A) (A) (A)
                 (A) (A) (A) (A) (A) (A) (A) (A) (A) (A) (A) (A)
                 (A) (A) (A) (A) (A) (A) (A) (A) (A) (A) (A) (A)
                 (A) (A) (A) (A) (A) (A) (A) (A) (A) (A) (A) (A)
                 (A) (A) (A) (A) (A) (A) (A) (A) (A) (A) (A) (A)
                 (A) (A) (A) (A) (A) (A) (A) (A) (A) (A) (A) (A)
                 (A) (A) (A) (A) (A) (A) (A) (A) (A) (A) (A) (A)
                 (A) (A) (A) (A) (A) (A) (A) (A) (A) (A) (A) (A)
                 (A) (A) (A) (A) (A) (A) (A) (A) (A) (A) (A) (A)
                 (A) (A) (A) (A) (A) (A) (A) (A) (A) (A) (A) (A)
                 (A) (A) (A) (A) (A) (A)
 The electronic state is 5-A.
 Alpha  occ. eigenvalues -- -256.16877 -88.93197 -30.04698 -25.88655 -25.88383
 Alpha  occ. eigenvalues --  -25.87285 -14.33816 -14.33297 -14.32863 -14.32732
 Alpha  occ. eigenvalues --  -10.19717 -10.18979 -10.18953 -10.18738 -10.18719
 Alpha  occ. eigenvalues --  -10.18489 -10.18483 -10.18301 -10.18219 -10.17781
 Alpha  occ. eigenvalues --  -10.17511 -10.17387 -10.17275 -10.17204 -10.17199
 Alpha  occ. eigenvalues --  -10.17006 -10.16374 -10.16359 -10.16292 -10.16286
 Alpha  occ. eigenvalues --  -10.16264 -10.16204 -10.16139 -10.16114 -10.15948
 Alpha  occ. eigenvalues --  -10.15907 -10.15615 -10.15389 -10.15076 -10.15047
 Alpha  occ. eigenvalues --  -10.14968  -7.96350  -5.90958  -5.90650  -5.90064
 Alpha  occ. eigenvalues --   -3.47475  -2.25141  -2.25030  -2.24263  -2.21134
 Alpha  occ. eigenvalues --   -1.43210  -0.95626  -0.94335  -0.94226  -0.93226
 Alpha  occ. eigenvalues --   -0.86410  -0.79624  -0.79288  -0.78932  -0.78433
 Alpha  occ. eigenvalues --   -0.78221  -0.77779  -0.77018  -0.76826  -0.74216
 Alpha  occ. eigenvalues --   -0.73179  -0.71992  -0.71105  -0.70993  -0.68605
 Alpha  occ. eigenvalues --   -0.67783  -0.66200  -0.65950  -0.65504  -0.63848
 Alpha  occ. eigenvalues --   -0.61398  -0.61286  -0.58255  -0.57617  -0.54653
 Alpha  occ. eigenvalues --   -0.54430  -0.52019  -0.51476  -0.50851  -0.50248
 Alpha  occ. eigenvalues --   -0.48817  -0.48629  -0.48327  -0.46524  -0.45256
 Alpha  occ. eigenvalues --   -0.44962  -0.44299  -0.43662  -0.42885  -0.42697
 Alpha  occ. eigenvalues --   -0.42548  -0.42190  -0.41732  -0.41508  -0.41205
 Alpha  occ. eigenvalues --   -0.41008  -0.40646  -0.40198  -0.39905  -0.39665
 Alpha  occ. eigenvalues --   -0.39557  -0.39120  -0.38924  -0.38721  -0.38369
 Alpha  occ. eigenvalues --   -0.38354  -0.38054  -0.37951  -0.37383  -0.37297
 Alpha  occ. eigenvalues --   -0.36228  -0.36159  -0.35970  -0.35912  -0.35473
 Alpha  occ. eigenvalues --   -0.35218  -0.34440  -0.34099  -0.33772  -0.33441
 Alpha  occ. eigenvalues --   -0.33058  -0.32210  -0.32111  -0.30957  -0.30546
 Alpha  occ. eigenvalues --   -0.30214  -0.30055  -0.29777  -0.27905  -0.27669
 Alpha  occ. eigenvalues --   -0.26980  -0.26355  -0.26067  -0.25188  -0.24654
 Alpha  occ. eigenvalues --   -0.24256  -0.21320  -0.20774  -0.19814  -0.19425
 Alpha  occ. eigenvalues --   -0.19062  -0.16861  -0.16537  -0.12689  -0.07805
 Alpha  occ. eigenvalues --   -0.07655
 Alpha virt. eigenvalues --   -0.01876  -0.00301   0.02229   0.03560   0.04018
 Alpha virt. eigenvalues --    0.05102   0.06238   0.07393   0.10128   0.10838
 Alpha virt. eigenvalues --    0.11665   0.12343   0.12450   0.13054   0.13768
 Alpha virt. eigenvalues --    0.13933   0.14559   0.15191   0.15784   0.15974
 Alpha virt. eigenvalues --    0.16522   0.16795   0.16942   0.17049   0.17511
 Alpha virt. eigenvalues --    0.17581   0.17934   0.18177   0.18963   0.19195
 Alpha virt. eigenvalues --    0.19381   0.19653   0.19692   0.20227   0.20322
 Alpha virt. eigenvalues --    0.20621   0.20860   0.21162   0.21237   0.21729
 Alpha virt. eigenvalues --    0.22202   0.22711   0.23453   0.23572   0.23756
 Alpha virt. eigenvalues --    0.24746   0.24882   0.25471   0.26437   0.26685
 Alpha virt. eigenvalues --    0.27734   0.28107   0.28547   0.28909   0.29280
 Alpha virt. eigenvalues --    0.29440   0.29668   0.31288   0.31915   0.32090
 Alpha virt. eigenvalues --    0.33063   0.33775   0.34287   0.35546   0.36458
 Alpha virt. eigenvalues --    0.36740   0.37427   0.37911   0.38379   0.38835
 Alpha virt. eigenvalues --    0.39406   0.39611   0.40077   0.41231   0.42254
 Alpha virt. eigenvalues --    0.44291   0.45429   0.45871   0.46108   0.46565
 Alpha virt. eigenvalues --    0.47254   0.48044   0.48188   0.49129   0.50491
 Alpha virt. eigenvalues --    0.50744   0.51079   0.51311   0.52187   0.52711
 Alpha virt. eigenvalues --    0.53320   0.53945   0.54383   0.54952   0.55053
 Alpha virt. eigenvalues --    0.55365   0.55624   0.56372   0.57059   0.57295
 Alpha virt. eigenvalues --    0.57739   0.58196   0.58507   0.59651   0.60149
 Alpha virt. eigenvalues --    0.60436   0.60898   0.61495   0.62172   0.62564
 Alpha virt. eigenvalues --    0.62721   0.63406   0.63419   0.64140   0.64522
 Alpha virt. eigenvalues --    0.64809   0.65550   0.65661   0.66066   0.66525
 Alpha virt. eigenvalues --    0.66955   0.67244   0.67909   0.68361   0.68395
 Alpha virt. eigenvalues --    0.68798   0.69013   0.69838   0.69978   0.70521
 Alpha virt. eigenvalues --    0.70726   0.71084   0.71853   0.72398   0.73292
 Alpha virt. eigenvalues --    0.73604   0.73796   0.74412   0.74915   0.75470
 Alpha virt. eigenvalues --    0.76123   0.76910   0.77115   0.77426   0.78398
 Alpha virt. eigenvalues --    0.78779   0.79273   0.79504   0.79690   0.80008
 Alpha virt. eigenvalues --    0.80330   0.80939   0.81480   0.81753   0.82446
 Alpha virt. eigenvalues --    0.83109   0.83711   0.83788   0.84220   0.84589
 Alpha virt. eigenvalues --    0.85189   0.85288   0.85582   0.86165   0.87277
 Alpha virt. eigenvalues --    0.88254   0.88382   0.88877   0.89270   0.89847
 Alpha virt. eigenvalues --    0.89995   0.90304   0.90829   0.91194   0.91916
 Alpha virt. eigenvalues --    0.91996   0.92239   0.92883   0.93592   0.93723
 Alpha virt. eigenvalues --    0.94228   0.94680   0.94798   0.95167   0.95257
 Alpha virt. eigenvalues --    0.95522   0.96058   0.97108   0.97216   0.97810
 Alpha virt. eigenvalues --    0.98128   0.98699   0.99415   1.00214   1.00557
 Alpha virt. eigenvalues --    1.00781   1.01024   1.01636   1.02188   1.02280
 Alpha virt. eigenvalues --    1.02718   1.03154   1.03384   1.03515   1.03882
 Alpha virt. eigenvalues --    1.03939   1.05655   1.05685   1.06180   1.06654
 Alpha virt. eigenvalues --    1.07525   1.08557   1.09596   1.10113   1.10722
 Alpha virt. eigenvalues --    1.11235   1.12254   1.12850   1.13826   1.16807
 Alpha virt. eigenvalues --    1.17174   1.18328   1.18596   1.19533   1.19791
 Alpha virt. eigenvalues --    1.19925   1.20218   1.20751   1.21237   1.22107
 Alpha virt. eigenvalues --    1.22509   1.22763   1.23415   1.24458   1.24517
 Alpha virt. eigenvalues --    1.25332   1.25846   1.26920   1.27665   1.27843
 Alpha virt. eigenvalues --    1.28652   1.29620   1.29862   1.31001   1.31550
 Alpha virt. eigenvalues --    1.32679   1.33901   1.35466   1.36957   1.37944
 Alpha virt. eigenvalues --    1.38557   1.38753   1.39692   1.40019   1.40321
 Alpha virt. eigenvalues --    1.41101   1.41437   1.41634   1.41862   1.42202
 Alpha virt. eigenvalues --    1.43844   1.46284   1.47424   1.47953   1.48636
 Alpha virt. eigenvalues --    1.49472   1.49840   1.50417   1.51710   1.51892
 Alpha virt. eigenvalues --    1.52742   1.53419   1.55780   1.56257   1.56788
 Alpha virt. eigenvalues --    1.57152   1.58710   1.59005   1.60187   1.61298
 Alpha virt. eigenvalues --    1.62762   1.63020   1.64280   1.64898   1.66032
 Alpha virt. eigenvalues --    1.67113   1.68277   1.68913   1.71818   1.71887
 Alpha virt. eigenvalues --    1.72779   1.73741   1.74268   1.75453   1.77016
 Alpha virt. eigenvalues --    1.78067   1.78461   1.79328   1.80911   1.81763
 Alpha virt. eigenvalues --    1.81992   1.82248   1.83103   1.84451   1.84591
 Alpha virt. eigenvalues --    1.84876   1.85297   1.85949   1.86663   1.87757
 Alpha virt. eigenvalues --    1.88797   1.90041   1.90244   1.90727   1.91098
 Alpha virt. eigenvalues --    1.91942   1.93576   1.94553   1.94758   1.95190
 Alpha virt. eigenvalues --    1.95396   1.96055   1.97021   1.97574   1.97655
 Alpha virt. eigenvalues --    1.98532   1.99046   2.02549   2.02709   2.02959
 Alpha virt. eigenvalues --    2.03321   2.04123   2.04323   2.04760   2.06156
 Alpha virt. eigenvalues --    2.06794   2.07399   2.08121   2.08697   2.10071
 Alpha virt. eigenvalues --    2.10263   2.10913   2.11522   2.12865   2.14720
 Alpha virt. eigenvalues --    2.16175   2.16487   2.17802   2.18096   2.18512
 Alpha virt. eigenvalues --    2.19808   2.20606   2.21214   2.22207   2.22481
 Alpha virt. eigenvalues --    2.23888   2.24377   2.24923   2.25932   2.26282
 Alpha virt. eigenvalues --    2.26870   2.27882   2.28638   2.28926   2.29047
 Alpha virt. eigenvalues --    2.29783   2.29893   2.30387   2.30994   2.32308
 Alpha virt. eigenvalues --    2.32487   2.32695   2.33135   2.33843   2.34531
 Alpha virt. eigenvalues --    2.35307   2.35714   2.37353   2.38007   2.38640
 Alpha virt. eigenvalues --    2.38858   2.39515   2.40235   2.40511   2.41593
 Alpha virt. eigenvalues --    2.42887   2.43575   2.44323   2.45099   2.45522
 Alpha virt. eigenvalues --    2.46056   2.46604   2.47290   2.48195   2.48835
 Alpha virt. eigenvalues --    2.51006   2.52066   2.53239   2.55641   2.55725
 Alpha virt. eigenvalues --    2.56008   2.56237   2.56430   2.58501   2.59160
 Alpha virt. eigenvalues --    2.60180   2.60423   2.62372   2.63921   2.64311
 Alpha virt. eigenvalues --    2.65664   2.67953   2.69033   2.69707   2.71634
 Alpha virt. eigenvalues --    2.72268   2.73939   2.74987   2.75660   2.78893
 Alpha virt. eigenvalues --    2.80226   2.81546   2.82975   2.83550   2.83808
 Alpha virt. eigenvalues --    2.90606   2.90858   2.92440   2.93806   2.94636
 Alpha virt. eigenvalues --    2.95521   2.99134   2.99263   3.00152   3.00556
 Alpha virt. eigenvalues --    3.02281   3.02706   3.03298   3.07997   3.09198
 Alpha virt. eigenvalues --    3.16156   3.17824   3.24022   3.26670   3.28646
 Alpha virt. eigenvalues --    3.33270   3.33561   3.39879   3.42473   3.44282
 Alpha virt. eigenvalues --    3.45623   3.49500   3.49599   3.53506   3.54201
 Alpha virt. eigenvalues --    3.88831   4.01282   4.22483
  Beta  occ. eigenvalues -- -256.16802 -88.93208 -29.99890 -25.85138 -25.83954
  Beta  occ. eigenvalues --  -25.83183 -14.33638 -14.33021 -14.32637 -14.32426
  Beta  occ. eigenvalues --  -10.19723 -10.18921 -10.18846 -10.18647 -10.18618
  Beta  occ. eigenvalues --  -10.18400 -10.18397 -10.18170 -10.18087 -10.17822
  Beta  occ. eigenvalues --  -10.17544 -10.17395 -10.17283 -10.17209 -10.17205
  Beta  occ. eigenvalues --  -10.17016 -10.16303 -10.16276 -10.16248 -10.16184
  Beta  occ. eigenvalues --  -10.16172 -10.16120 -10.16047 -10.16035 -10.15785
  Beta  occ. eigenvalues --  -10.15780 -10.15514 -10.15132 -10.14834 -10.14807
  Beta  occ. eigenvalues --  -10.14660  -7.96361  -5.90964  -5.90658  -5.90104
  Beta  occ. eigenvalues --   -3.36143  -2.23882  -2.15712  -2.10744  -2.09218
  Beta  occ. eigenvalues --   -1.43701  -0.95192  -0.93907  -0.93709  -0.92748
  Beta  occ. eigenvalues --   -0.86726  -0.79177  -0.78997  -0.78635  -0.78198
  Beta  occ. eigenvalues --   -0.77975  -0.77799  -0.76516  -0.76319  -0.73988
  Beta  occ. eigenvalues --   -0.72946  -0.71766  -0.70896  -0.70383  -0.68344
  Beta  occ. eigenvalues --   -0.67533  -0.65988  -0.65729  -0.65188  -0.63874
  Beta  occ. eigenvalues --   -0.60943  -0.60817  -0.58010  -0.57390  -0.54316
  Beta  occ. eigenvalues --   -0.53873  -0.51699  -0.51241  -0.50593  -0.49956
  Beta  occ. eigenvalues --   -0.48534  -0.48326  -0.48017  -0.45995  -0.44965
  Beta  occ. eigenvalues --   -0.44510  -0.44107  -0.43106  -0.42471  -0.42338
  Beta  occ. eigenvalues --   -0.42089  -0.41874  -0.41462  -0.41236  -0.40835
  Beta  occ. eigenvalues --   -0.40709  -0.40440  -0.39988  -0.39768  -0.39550
  Beta  occ. eigenvalues --   -0.39458  -0.38865  -0.38567  -0.38269  -0.38027
  Beta  occ. eigenvalues --   -0.37954  -0.37931  -0.37562  -0.37289  -0.36960
  Beta  occ. eigenvalues --   -0.35734  -0.35705  -0.35619  -0.35084  -0.35008
  Beta  occ. eigenvalues --   -0.34438  -0.33802  -0.33548  -0.33291  -0.32768
  Beta  occ. eigenvalues --   -0.32367  -0.31769  -0.31552  -0.30713  -0.29511
  Beta  occ. eigenvalues --   -0.29289  -0.28514  -0.28176  -0.26855  -0.26628
  Beta  occ. eigenvalues --   -0.25687  -0.23761  -0.23487  -0.22599  -0.22222
  Beta  occ. eigenvalues --   -0.20380  -0.19594  -0.18369  -0.16618  -0.16545
  Beta  occ. eigenvalues --   -0.14630  -0.14472
  Beta virt. eigenvalues --   -0.02969  -0.02813   0.00238   0.01837   0.02294
  Beta virt. eigenvalues --    0.03735   0.04433   0.04948   0.06194   0.06333
  Beta virt. eigenvalues --    0.08298   0.09982   0.11329   0.11642   0.11976
  Beta virt. eigenvalues --    0.12418   0.12594   0.13757   0.13861   0.14150
  Beta virt. eigenvalues --    0.14883   0.15664   0.16049   0.16241   0.16927
  Beta virt. eigenvalues --    0.17052   0.17543   0.17607   0.17878   0.18012
  Beta virt. eigenvalues --    0.18149   0.18670   0.19345   0.19480   0.19562
  Beta virt. eigenvalues --    0.20008   0.20055   0.20377   0.20718   0.21031
  Beta virt. eigenvalues --    0.21149   0.21433   0.21613   0.22014   0.22423
  Beta virt. eigenvalues --    0.22935   0.23675   0.23804   0.23975   0.24918
  Beta virt. eigenvalues --    0.25072   0.25788   0.26652   0.27007   0.28062
  Beta virt. eigenvalues --    0.28455   0.28912   0.29185   0.29461   0.29832
  Beta virt. eigenvalues --    0.30300   0.31583   0.32342   0.33172   0.33428
  Beta virt. eigenvalues --    0.34110   0.34851   0.35823   0.36787   0.37040
  Beta virt. eigenvalues --    0.37775   0.38212   0.38719   0.39091   0.39724
  Beta virt. eigenvalues --    0.39930   0.40336   0.41432   0.42537   0.44473
  Beta virt. eigenvalues --    0.45824   0.46261   0.46449   0.46815   0.47733
  Beta virt. eigenvalues --    0.48336   0.48639   0.49410   0.50764   0.50952
  Beta virt. eigenvalues --    0.51389   0.51952   0.52441   0.53085   0.53535
  Beta virt. eigenvalues --    0.54556   0.54695   0.55303   0.55434   0.55694
  Beta virt. eigenvalues --    0.55965   0.56808   0.57454   0.57616   0.58170
  Beta virt. eigenvalues --    0.58491   0.58892   0.60002   0.60625   0.60809
  Beta virt. eigenvalues --    0.61253   0.61942   0.62640   0.62943   0.63136
  Beta virt. eigenvalues --    0.63743   0.63835   0.64653   0.65068   0.65425
  Beta virt. eigenvalues --    0.65883   0.66196   0.66575   0.66813   0.67379
  Beta virt. eigenvalues --    0.67547   0.68238   0.68642   0.68736   0.69209
  Beta virt. eigenvalues --    0.69408   0.70193   0.70294   0.70831   0.71127
  Beta virt. eigenvalues --    0.71570   0.72243   0.72885   0.73562   0.73887
  Beta virt. eigenvalues --    0.74410   0.74725   0.75345   0.75884   0.76518
  Beta virt. eigenvalues --    0.77308   0.77520   0.77689   0.78882   0.79094
  Beta virt. eigenvalues --    0.79546   0.79739   0.80141   0.80231   0.80659
  Beta virt. eigenvalues --    0.81192   0.81883   0.82067   0.82833   0.83497
  Beta virt. eigenvalues --    0.83963   0.84137   0.84494   0.84981   0.85598
  Beta virt. eigenvalues --    0.85732   0.86254   0.86614   0.87668   0.88552
  Beta virt. eigenvalues --    0.88789   0.89346   0.89458   0.90009   0.90156
  Beta virt. eigenvalues --    0.90524   0.91170   0.91368   0.92097   0.92183
  Beta virt. eigenvalues --    0.92531   0.93057   0.93709   0.93863   0.94330
  Beta virt. eigenvalues --    0.94852   0.95047   0.95441   0.95534   0.95841
  Beta virt. eigenvalues --    0.96243   0.97255   0.97478   0.98062   0.98464
  Beta virt. eigenvalues --    0.98940   0.99693   1.00484   1.00813   1.00926
  Beta virt. eigenvalues --    1.01290   1.01776   1.02329   1.02510   1.02939
  Beta virt. eigenvalues --    1.03302   1.03607   1.03693   1.04128   1.04282
  Beta virt. eigenvalues --    1.05885   1.05993   1.06466   1.06966   1.07734
  Beta virt. eigenvalues --    1.08841   1.09869   1.10450   1.11252   1.11701
  Beta virt. eigenvalues --    1.12565   1.13183   1.15032   1.17060   1.17491
  Beta virt. eigenvalues --    1.18718   1.18879   1.19820   1.20149   1.20264
  Beta virt. eigenvalues --    1.20592   1.21477   1.21686   1.22391   1.22839
  Beta virt. eigenvalues --    1.23056   1.23720   1.24690   1.24886   1.25718
  Beta virt. eigenvalues --    1.26556   1.27406   1.28168   1.28990   1.29656
  Beta virt. eigenvalues --    1.30046   1.30549   1.31562   1.31977   1.33006
  Beta virt. eigenvalues --    1.34245   1.36022   1.37380   1.38282   1.38859
  Beta virt. eigenvalues --    1.39112   1.40161   1.40481   1.40812   1.41547
  Beta virt. eigenvalues --    1.41921   1.42157   1.42294   1.42648   1.44319
  Beta virt. eigenvalues --    1.46732   1.48067   1.48443   1.49149   1.49806
  Beta virt. eigenvalues --    1.50267   1.50842   1.52312   1.52496   1.53439
  Beta virt. eigenvalues --    1.54109   1.56191   1.56589   1.57238   1.57561
  Beta virt. eigenvalues --    1.59060   1.59446   1.60590   1.61691   1.63137
  Beta virt. eigenvalues --    1.63581   1.64844   1.65290   1.66443   1.67440
  Beta virt. eigenvalues --    1.68830   1.69300   1.72199   1.72276   1.73116
  Beta virt. eigenvalues --    1.73918   1.74626   1.75611   1.77394   1.78394
  Beta virt. eigenvalues --    1.79070   1.79855   1.81374   1.82172   1.82292
  Beta virt. eigenvalues --    1.82582   1.83412   1.84831   1.85031   1.85221
  Beta virt. eigenvalues --    1.85531   1.86238   1.87051   1.88083   1.89177
  Beta virt. eigenvalues --    1.90428   1.90601   1.91031   1.91538   1.92435
  Beta virt. eigenvalues --    1.93808   1.95154   1.95248   1.95694   1.95929
  Beta virt. eigenvalues --    1.96708   1.97418   1.98008   1.98176   1.99153
  Beta virt. eigenvalues --    1.99631   2.02751   2.02955   2.03221   2.03583
  Beta virt. eigenvalues --    2.04525   2.04703   2.05226   2.06487   2.07141
  Beta virt. eigenvalues --    2.07910   2.08607   2.09057   2.10576   2.10704
  Beta virt. eigenvalues --    2.11457   2.11933   2.13868   2.15028   2.16484
  Beta virt. eigenvalues --    2.16751   2.18133   2.18451   2.18826   2.19914
  Beta virt. eigenvalues --    2.20851   2.21496   2.22493   2.23039   2.24470
  Beta virt. eigenvalues --    2.25075   2.25335   2.26614   2.27491   2.27726
  Beta virt. eigenvalues --    2.28718   2.29062   2.29358   2.29632   2.30139
  Beta virt. eigenvalues --    2.30743   2.31244   2.31631   2.32800   2.33092
  Beta virt. eigenvalues --    2.33198   2.33500   2.34195   2.34999   2.35660
  Beta virt. eigenvalues --    2.36493   2.37747   2.38445   2.39112   2.39178
  Beta virt. eigenvalues --    2.39900   2.40648   2.41075   2.42022   2.43177
  Beta virt. eigenvalues --    2.43937   2.44730   2.45446   2.45970   2.46399
  Beta virt. eigenvalues --    2.46921   2.47680   2.48665   2.49270   2.51702
  Beta virt. eigenvalues --    2.52635   2.53895   2.55943   2.56095   2.56527
  Beta virt. eigenvalues --    2.56692   2.57004   2.58851   2.59492   2.60667
  Beta virt. eigenvalues --    2.60908   2.63014   2.64442   2.64809   2.66116
  Beta virt. eigenvalues --    2.68309   2.69796   2.70264   2.72330   2.72970
  Beta virt. eigenvalues --    2.74560   2.75501   2.76291   2.79166   2.80460
  Beta virt. eigenvalues --    2.82131   2.83226   2.83729   2.84164   2.91009
  Beta virt. eigenvalues --    2.91313   2.92837   2.94255   2.95095   2.96076
  Beta virt. eigenvalues --    2.99401   2.99647   3.00466   3.01271   3.02507
  Beta virt. eigenvalues --    3.02936   3.03678   3.08195   3.09450   3.16423
  Beta virt. eigenvalues --    3.18103   3.24187   3.26921   3.29098   3.33433
  Beta virt. eigenvalues --    3.33728   3.40698   3.42670   3.45012   3.47878
  Beta virt. eigenvalues --    3.49781   3.49892   3.57821   3.58498   3.97784
  Beta virt. eigenvalues --    4.08752   4.30558
          Condensed to atoms (all electrons):
          Atomic-Atomic Spin Densities.
 Mulliken charges and spin densities:
               1          2
     1  Fe  -3.250657   2.052394
     2  N   -0.417865   0.112183
     3  N   -0.426548   0.062004
     4  N   -0.442129   0.102360
     5  N   -0.385267   0.080196
     6  C    0.234697   0.073314
     7  C    0.023602   0.043844
     8  C    0.022350   0.065478
     9  C    0.189379   0.045149
    10  C    0.141191   0.055563
    11  C    0.022273   0.078056
    12  C   -0.009952   0.080981
    13  C    0.225667   0.027326
    14  C    0.231492   0.037671
    15  C    0.028098   0.105011
    16  C   -0.013656   0.059758
    17  C    0.209434   0.049928
    18  C    0.131174   0.044939
    19  C    0.025318   0.063258
    20  C    0.028134   0.042162
    21  C    0.199850   0.078644
    22  C   -0.297188   0.150120
    23  H    0.139269  -0.007937
    24  C   -0.360049   0.186762
    25  H    0.141046  -0.009752
    26  C   -0.343855   0.217641
    27  H    0.144637  -0.011193
    28  C   -0.321343   0.195411
    29  H    0.142373  -0.010112
    30  C   -0.601310  -0.006374
    31  H    0.174100   0.000362
    32  H    0.160497   0.003946
    33  H    0.186308   0.004217
    34  C   -0.603940  -0.004530
    35  H    0.188208   0.002594
    36  H    0.167476   0.003501
    37  H    0.173138   0.000261
    38  C   -0.604160  -0.007405
    39  H    0.182137   0.005797
    40  H    0.156122   0.002452
    41  H    0.182896   0.000274
    42  C   -0.147259  -0.031906
    43  H    0.144629   0.004013
    44  C   -0.416019   0.067203
    45  H    0.164869  -0.003475
    46  H    0.150305  -0.003418
    47  C   -0.607397  -0.009360
    48  H    0.181922   0.002913
    49  H    0.161026   0.006605
    50  H    0.190099   0.001074
    51  C   -0.145495  -0.025868
    52  H    0.159601   0.003510
    53  C   -0.422697   0.057983
    54  H    0.156767  -0.003020
    55  H    0.151052  -0.003002
    56  C   -0.601191  -0.006341
    57  H    0.190714   0.004234
    58  H    0.157760   0.003837
    59  H    0.172365   0.000240
    60  C   -0.603786  -0.004416
    61  H    0.188804   0.002806
    62  H    0.172131   0.000145
    63  H    0.163638   0.003195
    64  O    8.000000   0.000000
    65  H   -1.561565  -0.027225
    66  H   -2.072927  -0.077100
    67  C   -0.688374  -0.002309
    68  H    0.201110  -0.001036
    69  H    0.235697   0.000113
    70  H    0.252542  -0.000005
    71  S    0.139970  -0.033670
    72  H    0.158763  -0.001975
 Sum of Mulliken charges =  -0.00000   4.00000
 Mulliken charges and spin densities with hydrogens summed into heavy atoms:
               1          2
     1  Fe  -3.250657   2.052394
     2  N   -0.417865   0.112183
     3  N   -0.426548   0.062004
     4  N   -0.442129   0.102360
     5  N   -0.385267   0.080196
     6  C    0.234697   0.073314
     7  C    0.023602   0.043844
     8  C    0.022350   0.065478
     9  C    0.189379   0.045149
    10  C    0.141191   0.055563
    11  C    0.022273   0.078056
    12  C   -0.009952   0.080981
    13  C    0.225667   0.027326
    14  C    0.231492   0.037671
    15  C    0.028098   0.105011
    16  C   -0.013656   0.059758
    17  C    0.209434   0.049928
    18  C    0.131174   0.044939
    19  C    0.025318   0.063258
    20  C    0.028134   0.042162
    21  C    0.199850   0.078644
    22  C   -0.157920   0.142183
    24  C   -0.219003   0.177011
    26  C   -0.199218   0.206448
    28  C   -0.178970   0.185299
    30  C   -0.080405   0.002151
    34  C   -0.075118   0.001826
    38  C   -0.083005   0.001117
    42  C   -0.002630  -0.027893
    44  C   -0.100845   0.060310
    47  C   -0.074350   0.001231
    51  C    0.014106  -0.022358
    53  C   -0.114879   0.051962
    56  C   -0.080352   0.001969
    60  C   -0.079213   0.001730
    64  O    4.365508  -0.104325
    67  C    0.000974  -0.003237
    71  S    0.298733  -0.035645
 Electronic spatial extent (au):  <R**2>=          18353.6624
 Charge=             -0.0000 electrons
 Dipole moment (field-independent basis, Debye):
    X=             -1.5447    Y=             -1.8851    Z=            -16.4600  Tot=             16.6394
 Quadrupole moment (field-independent basis, Debye-Ang):
   XX=           -293.4159   YY=           -294.9019   ZZ=           -202.4829
   XY=              2.9542   XZ=             -6.7465   YZ=              4.0822
 Traceless Quadrupole moment (field-independent basis, Debye-Ang):
   XX=            -29.8157   YY=            -31.3017   ZZ=             61.1174
   XY=              2.9542   XZ=             -6.7465   YZ=              4.0822
 Octapole moment (field-independent basis, Debye-Ang**2):
  XXX=            -43.4942  YYY=            -22.6292  ZZZ=            -34.1376  XYY=              9.1957
  XXY=            -37.1388  XXZ=             68.3982  XZZ=            -17.8126  YZZ=             -3.4039
  YYZ=             68.1276  XYZ=            -15.5737
 Hexadecapole moment (field-independent basis, Debye-Ang**3):
 XXXX=         -12592.1617 YYYY=         -12264.9535 ZZZZ=          -1519.4297 XXXY=           -119.3013
 XXXZ=              0.4399 YYYX=             98.1513 YYYZ=            -88.6291 ZZZX=            -46.2410
 ZZZY=             -8.4732 XXYY=          -4262.5692 XXZZ=          -2436.3417 YYZZ=          -2446.1790
 XXYZ=              0.4675 YYXZ=            -50.0118 ZZXY=             40.5932
 N-N= 5.420382423853D+03 E-N=-1.812807246693D+04  KE= 3.079334968644D+03
                          Isotropic Fermi Contact Couplings
        Atom                 a.u.       MegaHertz       Gauss      10(-4) cm-1
     1  Fe(57)             0.21174       7.67781       2.73963       2.56104
     2  N(14)              0.11078       8.94822       3.19295       2.98481
     3  N(14)              0.04800       3.87730       1.38352       1.29333
     4  N(14)              0.09786       7.90468       2.82059       2.63672
     5  N(14)              0.07288       5.88690       2.10059       1.96366
     6  C(13)              0.01089       3.05935       1.09165       1.02049
     7  C(13)              0.00738       2.07479       0.74034       0.69208
     8  C(13)              0.01138       3.19741       1.14091       1.06654
     9  C(13)              0.00797       2.23905       0.79895       0.74687
    10  C(13)              0.00698       1.96194       0.70007       0.65443
    11  C(13)              0.01089       3.06046       1.09205       1.02086
    12  C(13)              0.01158       3.25448       1.16128       1.08558
    13  C(13)              0.00108       0.30364       0.10834       0.10128
    14  C(13)              0.00507       1.42366       0.50800       0.47488
    15  C(13)              0.01598       4.49132       1.60262       1.49814
    16  C(13)              0.00940       2.64104       0.94239       0.88096
    17  C(13)              0.00801       2.25101       0.80321       0.75085
    18  C(13)              0.00651       1.83050       0.65317       0.61059
    19  C(13)              0.00996       2.79962       0.99898       0.93385
    20  C(13)              0.00661       1.85870       0.66323       0.62000
    21  C(13)              0.01071       3.01134       1.07452       1.00447
    22  C(13)              0.01559       4.38223       1.56369       1.46176
    23  H(1)              -0.00252      -2.81973      -1.00615      -0.94056
    24  C(13)              0.02023       5.68644       2.02906       1.89679
    25  H(1)              -0.00307      -3.43153      -1.22445      -1.14463
    26  C(13)              0.02549       7.16518       2.55671       2.39005
    27  H(1)              -0.00353      -3.94215      -1.40666      -1.31496
    28  C(13)              0.02118       5.95183       2.12376       1.98532
    29  H(1)              -0.00312      -3.48928      -1.24506      -1.16390
    30  C(13)             -0.00214      -0.60067      -0.21433      -0.20036
    31  H(1)               0.00009       0.09837       0.03510       0.03281
    32  H(1)               0.00137       1.53614       0.54813       0.51240
    33  H(1)               0.00130       1.45198       0.51810       0.48433
    34  C(13)             -0.00149      -0.41790      -0.14912      -0.13940
    35  H(1)               0.00089       0.99735       0.35588       0.33268
    36  H(1)               0.00112       1.25593       0.44815       0.41893
    37  H(1)               0.00006       0.06808       0.02429       0.02271
    38  C(13)             -0.00280      -0.78609      -0.28050      -0.26221
    39  H(1)               0.00222       2.48279       0.88592       0.82817
    40  H(1)               0.00064       0.71864       0.25643       0.23971
    41  H(1)               0.00048       0.53643       0.19141       0.17893
    42  C(13)             -0.00667      -1.87356      -0.66853      -0.62495
    43  H(1)               0.00092       1.02744       0.36662       0.34272
    44  C(13)              0.00948       2.66428       0.95068       0.88871
    45  H(1)              -0.00102      -1.13883      -0.40636      -0.37987
    46  H(1)              -0.00102      -1.13598      -0.40535      -0.37892
    47  C(13)             -0.00317      -0.89200      -0.31829      -0.29754
    48  H(1)               0.00076       0.84953       0.30313       0.28337
    49  H(1)               0.00275       3.07470       1.09713       1.02561
    50  H(1)               0.00078       0.87428       0.31196       0.29163
    51  C(13)             -0.00483      -1.35628      -0.48395      -0.45241
    52  H(1)               0.00068       0.76399       0.27261       0.25484
    53  C(13)              0.00788       2.21509       0.79040       0.73887
    54  H(1)              -0.00087      -0.97663      -0.34849      -0.32577
    55  H(1)              -0.00088      -0.98838      -0.35268      -0.32969
    56  C(13)             -0.00231      -0.64827      -0.23132      -0.21624
    57  H(1)               0.00150       1.67232       0.59673       0.55783
    58  H(1)               0.00113       1.25821       0.44896       0.41969
    59  H(1)               0.00006       0.06967       0.02486       0.02324
    60  C(13)             -0.00167      -0.47054      -0.16790      -0.15695
    61  H(1)               0.00110       1.22752       0.43801       0.40945
    62  H(1)               0.00002       0.02201       0.00785       0.00734
    63  H(1)               0.00089       0.99330       0.35443       0.33133
    64  O(17)             -0.00006       0.00846       0.00302       0.00282
    65  H(1)              -0.02989     -33.40088     -11.91826     -11.14133
    66  H(1)              -0.06605     -73.81304     -26.33833     -24.62138
    67  C(13)             -0.00196      -0.55022      -0.19633      -0.18353
    68  H(1)              -0.00032      -0.36115      -0.12887      -0.12047
    69  H(1)               0.00005       0.05729       0.02044       0.01911
    70  H(1)               0.00001       0.01444       0.00515       0.00482
    71  S(33)              0.00285       0.24441       0.08721       0.08153
    72  H(1)              -0.00076      -0.85416      -0.30479      -0.28492
 --------------------------------------------------------
       Center         ----  Spin Dipole Couplings  ----
                      3XX-RR        3YY-RR        3ZZ-RR
 --------------------------------------------------------
     1   Atom        2.330293      2.173679     -4.503972
     2   Atom       -0.009162     -0.043736      0.052897
     3   Atom       -0.047324     -0.026014      0.073338
     4   Atom       -0.000139     -0.039135      0.039274
     5   Atom       -0.050610     -0.024453      0.075063
     6   Atom       -0.054180     -0.021670      0.075850
     7   Atom       -0.022568     -0.022896      0.045465
     8   Atom       -0.031398     -0.031929      0.063328
     9   Atom       -0.005041     -0.039433      0.044474
    10   Atom       -0.018026     -0.044853      0.062879
    11   Atom       -0.040003     -0.041897      0.081901
    12   Atom       -0.040506     -0.040745      0.081251
    13   Atom       -0.031028     -0.001952      0.032980
    14   Atom       -0.038349     -0.009104      0.047454
    15   Atom       -0.053234     -0.050802      0.104036
    16   Atom       -0.029543     -0.029725      0.059268
    17   Atom       -0.011180     -0.045755      0.056935
    18   Atom       -0.010089     -0.039858      0.049947
    19   Atom       -0.032141     -0.032566      0.064707
    20   Atom       -0.023671     -0.021347      0.045018
    21   Atom       -0.052401     -0.021738      0.074139
    22   Atom       -0.080938     -0.064791      0.145730
    23   Atom       -0.012955      0.020258     -0.007302
    24   Atom       -0.080218     -0.093608      0.173826
    25   Atom        0.021236     -0.014381     -0.006855
    26   Atom       -0.110674     -0.098738      0.209412
    27   Atom       -0.016194      0.023981     -0.007787
    28   Atom       -0.086900     -0.101292      0.188192
    29   Atom        0.022414     -0.015104     -0.007310
    30   Atom        0.006831     -0.002148     -0.004683
    31   Atom        0.003873     -0.000635     -0.003238
    32   Atom        0.005736     -0.002028     -0.003708
    33   Atom        0.006371     -0.002349     -0.004022
    34   Atom       -0.000442      0.004728     -0.004286
    35   Atom       -0.001171      0.004269     -0.003099
    36   Atom       -0.001031      0.005188     -0.004157
    37   Atom        0.000732      0.002354     -0.003086
    38   Atom        0.004305      0.000032     -0.004337
    39   Atom        0.004878     -0.000707     -0.004171
    40   Atom        0.005124     -0.001510     -0.003614
    41   Atom        0.002153      0.001048     -0.003200
    42   Atom        0.003528      0.016703     -0.020231
    43   Atom       -0.002808      0.007480     -0.004672
    44   Atom       -0.008748     -0.027974      0.036722
    45   Atom        0.002638     -0.000369     -0.002269
    46   Atom       -0.003905      0.006559     -0.002654
    47   Atom       -0.000371      0.004846     -0.004475
    48   Atom       -0.001708      0.005654     -0.003946
    49   Atom       -0.000702      0.005046     -0.004345
    50   Atom        0.001070      0.002216     -0.003285
    51   Atom        0.015749      0.002241     -0.017990
    52   Atom        0.007582     -0.002986     -0.004596
    53   Atom       -0.023062     -0.008297      0.031359
    54   Atom        0.000099      0.002018     -0.002117
    55   Atom        0.005933     -0.003565     -0.002368
    56   Atom        0.004478     -0.000130     -0.004349
    57   Atom        0.005009     -0.000804     -0.004204
    58   Atom        0.004257     -0.001046     -0.003210
    59   Atom        0.002164      0.000856     -0.003019
    60   Atom       -0.002006      0.006277     -0.004270
    61   Atom       -0.002089      0.005901     -0.003812
    62   Atom       -0.000691      0.003781     -0.003090
    63   Atom       -0.002304      0.005975     -0.003671
    64   Atom       -0.020165     -0.029602      0.049768
    65   Atom       -0.013076     -0.012795      0.025870
    66   Atom       -0.011915     -0.010605      0.022520
    67   Atom       -0.004474     -0.006834      0.011308
    68   Atom       -0.002722     -0.004108      0.006830
    69   Atom       -0.001981     -0.006573      0.008554
    70   Atom        0.002052     -0.007908      0.005857
    71   Atom        0.024091      0.029387     -0.053478
    72   Atom       -0.013118     -0.003871      0.016989
 --------------------------------------------------------
                        XY            XZ            YZ
 --------------------------------------------------------
     1   Atom        0.607742      0.185057     -0.269738
     2   Atom        0.120072      0.004785      0.040603
     3   Atom       -0.066520     -0.012271     -0.005741
     4   Atom        0.117782     -0.028024     -0.031529
     5   Atom       -0.080612      0.022659      0.001629
     6   Atom        0.009005     -0.006187      0.011978
     7   Atom        0.007450     -0.007579      0.012452
     8   Atom        0.007744     -0.006170      0.019848
     9   Atom        0.001291     -0.002857      0.018105
    10   Atom       -0.010378     -0.014874      0.002436
    11   Atom       -0.005765     -0.023728     -0.009900
    12   Atom       -0.006456     -0.022696     -0.000883
    13   Atom       -0.005391     -0.004574      0.004380
    14   Atom        0.010093     -0.007403     -0.003841
    15   Atom        0.010051     -0.006057     -0.029084
    16   Atom        0.009655     -0.007413     -0.020399
    17   Atom        0.002476      0.001220     -0.009577
    18   Atom       -0.010464      0.010245     -0.003111
    19   Atom       -0.008339      0.014513     -0.000633
    20   Atom       -0.008140      0.012095     -0.001806
    21   Atom       -0.005934      0.024101     -0.005990
    22   Atom        0.003123      0.020299      0.025292
    23   Atom        0.002883      0.000291     -0.001851
    24   Atom       -0.005662     -0.027354      0.034029
    25   Atom       -0.002864      0.003837      0.000567
    26   Atom        0.002876     -0.042341     -0.018051
    27   Atom        0.003025     -0.000571      0.001131
    28   Atom       -0.002080      0.004275     -0.020874
    29   Atom       -0.003948     -0.001135     -0.000019
    30   Atom        0.004015      0.000065     -0.000155
    31   Atom        0.003623     -0.000189     -0.000164
    32   Atom        0.002743      0.002571      0.000527
    33   Atom        0.002225     -0.002086     -0.000641
    34   Atom        0.005256     -0.000450     -0.001267
    35   Atom        0.003640     -0.001360     -0.003225
    36   Atom        0.003768      0.000481      0.000978
    37   Atom        0.003987     -0.000549     -0.000794
    38   Atom       -0.004691      0.001927     -0.001367
    39   Atom       -0.003780     -0.000858      0.000418
    40   Atom       -0.003268      0.003526     -0.001276
    41   Atom       -0.003793      0.001976     -0.001017
    42   Atom       -0.006329     -0.010671     -0.000684
    43   Atom       -0.003058      0.000333     -0.001512
    44   Atom       -0.002790      0.041267     -0.000764
    45   Atom       -0.000087     -0.001500     -0.000477
    46   Atom       -0.000971      0.001762     -0.000613
    47   Atom        0.005221      0.001576      0.001897
    48   Atom        0.003334      0.001333      0.003646
    49   Atom        0.004068     -0.000439     -0.001042
    50   Atom        0.004097      0.001366      0.002149
    51   Atom        0.006205      0.001917     -0.008706
    52   Atom        0.002708      0.002116      0.000341
    53   Atom       -0.000403     -0.004660      0.034926
    54   Atom        0.000619      0.000240     -0.001525
    55   Atom        0.000764      0.001068      0.001482
    56   Atom       -0.005196     -0.001276      0.000746
    57   Atom       -0.003977      0.000886     -0.000400
    58   Atom       -0.003577     -0.003401      0.001600
    59   Atom       -0.004055     -0.001007      0.000788
    60   Atom       -0.003848     -0.000271      0.000614
    61   Atom       -0.002655      0.000335     -0.001733
    62   Atom       -0.003317     -0.000400      0.000731
    63   Atom       -0.002134     -0.000720      0.002775
    64   Atom        0.003909     -0.000470     -0.001884
    65   Atom       -0.000265      0.003276     -0.010985
    66   Atom       -0.000968     -0.003873      0.009233
    67   Atom       -0.000556     -0.008517      0.001234
    68   Atom       -0.000477     -0.004499      0.001117
    69   Atom        0.002115     -0.008959     -0.003456
    70   Atom       -0.003229     -0.011926      0.004031
    71   Atom       -0.003708     -0.023092      0.002675
    72   Atom        0.000342     -0.000142      0.016356
 --------------------------------------------------------


 ---------------------------------------------------------------------------------
              Anisotropic Spin Dipole Couplings in Principal Axis System
 ---------------------------------------------------------------------------------

       Atom             a.u.   MegaHertz   Gauss  10(-4) cm-1        Axes

              Baa    -4.5213   -78.277   -27.931   -26.110 -0.0308  0.0430  0.9986
     1 Fe(57) Bbb     1.6563    28.676    10.232     9.565 -0.6607  0.7488 -0.0526
              Bcc     2.8650    49.601    17.699    16.545  0.7500  0.6614 -0.0054
 
              Baa    -0.1515    -5.845    -2.085    -1.950 -0.6360  0.7596 -0.1360
     2 N(14)  Bbb     0.0402     1.552     0.554     0.518 -0.4461 -0.2181  0.8680
              Bcc     0.1113     4.293     1.532     1.432  0.6297  0.6127  0.4775
 
              Baa    -0.1050    -4.049    -1.445    -1.351  0.7602  0.6456  0.0731
     3 N(14)  Bbb     0.0304     1.173     0.418     0.391 -0.6406  0.7636 -0.0810
              Bcc     0.0746     2.877     1.026     0.960 -0.1081  0.0148  0.9940
 
              Baa    -0.1392    -5.370    -1.916    -1.791 -0.6418  0.7661  0.0346
     4 N(14)  Bbb     0.0181     0.699     0.249     0.233  0.3689  0.2689  0.8897
              Bcc     0.1211     4.671     1.667     1.558  0.6723  0.5838 -0.4552
 
              Baa    -0.1209    -4.664    -1.664    -1.556  0.7632  0.6394 -0.0936
     5 N(14)  Bbb     0.0394     1.518     0.542     0.506 -0.5807  0.7422  0.3346
              Bcc     0.0816     3.146     1.122     1.049  0.2834 -0.2011  0.9377
 
              Baa    -0.0571    -7.666    -2.735    -2.557  0.9611 -0.2673  0.0688
     6 C(13)  Bbb    -0.0204    -2.733    -0.975    -0.912  0.2733  0.9565 -0.1015
              Bcc     0.0775    10.399     3.711     3.469 -0.0387  0.1164  0.9925
 
              Baa    -0.0328    -4.399    -1.570    -1.467 -0.6633  0.7264 -0.1798
     7 C(13)  Bbb    -0.0154    -2.070    -0.739    -0.690  0.7431  0.6677 -0.0440
              Bcc     0.0482     6.469     2.308     2.158 -0.0881  0.1629  0.9827
 
              Baa    -0.0428    -5.744    -2.050    -1.916 -0.6171  0.7663 -0.1792
     8 C(13)  Bbb    -0.0247    -3.315    -1.183    -1.106  0.7856  0.6132 -0.0832
              Bcc     0.0675     9.059     3.232     3.022 -0.0461  0.1921  0.9803
 
              Baa    -0.0433    -5.805    -2.071    -1.936 -0.0482  0.9779 -0.2034
     9 C(13)  Bbb    -0.0051    -0.681    -0.243    -0.227  0.9977  0.0569  0.0368
              Bcc     0.0483     6.486     2.314     2.164 -0.0475  0.2011  0.9784
 
              Baa    -0.0485    -6.503    -2.320    -2.169  0.3331  0.9426  0.0239
    10 C(13)  Bbb    -0.0172    -2.312    -0.825    -0.771  0.9257 -0.3317  0.1820
              Bcc     0.0657     8.815     3.145     2.940 -0.1794  0.0385  0.9830
 
              Baa    -0.0510    -6.845    -2.443    -2.283  0.7315  0.6577  0.1796
    11 C(13)  Bbb    -0.0359    -4.821    -1.720    -1.608 -0.6575  0.7502 -0.0694
              Bcc     0.0869    11.667     4.163     3.892 -0.1804 -0.0673  0.9813
 
              Baa    -0.0495    -6.637    -2.368    -2.214  0.7887  0.5984  0.1410
    12 C(13)  Bbb    -0.0359    -4.815    -1.718    -1.606 -0.5886  0.8012 -0.1080
              Bcc     0.0853    11.452     4.087     3.820 -0.1776  0.0022  0.9841
 
              Baa    -0.0322    -4.322    -1.542    -1.442  0.9843  0.1670  0.0578
    13 C(13)  Bbb    -0.0017    -0.232    -0.083    -0.077 -0.1573  0.9770 -0.1440
              Bcc     0.0339     4.555     1.625     1.519 -0.0806  0.1327  0.9879
 
              Baa    -0.0419    -5.621    -2.006    -1.875  0.9558 -0.2864  0.0669
    14 C(13)  Bbb    -0.0066    -0.884    -0.315    -0.295  0.2786  0.9545  0.1060
              Bcc     0.0485     6.505     2.321     2.170 -0.0942 -0.0827  0.9921
 
              Baa    -0.0637    -8.552    -3.051    -2.853 -0.6552  0.7480  0.1060
    15 C(13)  Bbb    -0.0460    -6.167    -2.201    -2.057  0.7540  0.6386  0.1543
              Bcc     0.1097    14.719     5.252     4.910 -0.0477 -0.1810  0.9823
 
              Baa    -0.0404    -5.415    -1.932    -1.806 -0.6174  0.7785  0.1135
    16 C(13)  Bbb    -0.0243    -3.260    -1.163    -1.087  0.7804  0.5879  0.2128
              Bcc     0.0646     8.675     3.095     2.894 -0.0989 -0.2199  0.9705
 
              Baa    -0.0468    -6.284    -2.242    -2.096 -0.0721  0.9931  0.0925
    17 C(13)  Bbb    -0.0110    -1.477    -0.527    -0.493  0.9973  0.0732 -0.0076
              Bcc     0.0578     7.761     2.769     2.589  0.0143 -0.0917  0.9957
 
              Baa    -0.0432    -5.793    -2.067    -1.932  0.3020  0.9533 -0.0014
    18 C(13)  Bbb    -0.0087    -1.172    -0.418    -0.391  0.9378 -0.2973 -0.1795
              Bcc     0.0519     6.965     2.485     2.323  0.1715 -0.0529  0.9838
 
              Baa    -0.0416    -5.587    -1.994    -1.864  0.7360  0.6701 -0.0965
    19 C(13)  Bbb    -0.0252    -3.386    -1.208    -1.130 -0.6609  0.7421  0.1119
              Bcc     0.0669     8.973     3.202     2.993  0.1465 -0.0186  0.9890
 
              Baa    -0.0316    -4.242    -1.514    -1.415  0.7882  0.6055 -0.1101
    20 C(13)  Bbb    -0.0156    -2.096    -0.748    -0.699 -0.5906  0.7945  0.1415
              Bcc     0.0472     6.338     2.262     2.114  0.1731 -0.0465  0.9838
 
              Baa    -0.0575    -7.712    -2.752    -2.573  0.9759  0.1331 -0.1727
    21 C(13)  Bbb    -0.0216    -2.896    -1.033    -0.966 -0.1186  0.9887  0.0917
              Bcc     0.0791    10.609     3.785     3.539  0.1829 -0.0690  0.9807
 
              Baa    -0.0828   -11.110    -3.964    -3.706  0.9950 -0.0574 -0.0820
    22 C(13)  Bbb    -0.0678    -9.092    -3.244    -3.033  0.0471  0.9914 -0.1219
              Bcc     0.1505    20.202     7.209     6.739  0.0883  0.1175  0.9891
 
              Baa    -0.0132    -7.063    -2.520    -2.356  0.9930 -0.0897 -0.0766
    23 H(1)   Bbb    -0.0074    -3.941    -1.406    -1.315  0.0820  0.0580  0.9949
              Bcc     0.0206    11.004     3.927     3.671  0.0848  0.9943 -0.0650
 
              Baa    -0.0982   -13.177    -4.702    -4.395  0.1447  0.9835 -0.1085
    24 C(13)  Bbb    -0.0829   -11.119    -3.968    -3.709  0.9838 -0.1313  0.1222
              Bcc     0.1811    24.296     8.669     8.104 -0.1060  0.1244  0.9866
 
              Baa    -0.0147    -7.849    -2.801    -2.618  0.0912  0.9891 -0.1159
    25 H(1)   Bbb    -0.0072    -3.868    -1.380    -1.290 -0.1199  0.1264  0.9847
              Bcc     0.0220    11.717     4.181     3.908  0.9886 -0.0759  0.1301
 
              Baa    -0.1162   -15.592    -5.564    -5.201  0.9914 -0.0319  0.1271
    26 C(13)  Bbb    -0.0998   -13.390    -4.778    -4.466  0.0242  0.9978  0.0616
              Bcc     0.2160    28.982    10.342     9.667 -0.1288 -0.0580  0.9900
 
              Baa    -0.0165    -8.788    -3.136    -2.931  0.9942 -0.0764  0.0754
    27 H(1)   Bbb    -0.0078    -4.148    -1.480    -1.384 -0.0777 -0.0281  0.9966
              Bcc     0.0242    12.935     4.616     4.315  0.0741  0.9967  0.0339
 
              Baa    -0.1030   -13.820    -4.931    -4.610  0.1097  0.9915  0.0695
    28 C(13)  Bbb    -0.0868   -11.644    -4.155    -3.884  0.9938 -0.1083 -0.0237
              Bcc     0.1898    25.464     9.086     8.494  0.0160 -0.0716  0.9973
 
              Baa    -0.0155    -8.279    -2.954    -2.762  0.1040  0.9944  0.0166
    29 H(1)   Bbb    -0.0074    -3.922    -1.399    -1.308  0.0354 -0.0204  0.9992
              Bcc     0.0229    12.201     4.354     4.070  0.9939 -0.1033 -0.0373
 
              Baa    -0.0047    -0.632    -0.226    -0.211 -0.0580  0.1507  0.9869
    30 C(13)  Bbb    -0.0037    -0.490    -0.175    -0.164 -0.3520  0.9220 -0.1614
              Bcc     0.0084     1.122     0.400     0.374  0.9342  0.3568  0.0004
 
              Baa    -0.0032    -1.734    -0.619    -0.578 -0.0185  0.0882  0.9959
    31 H(1)   Bbb    -0.0026    -1.410    -0.503    -0.470 -0.4860  0.8697 -0.0861
              Bcc     0.0059     3.144     1.122     1.049  0.8737  0.4856 -0.0268
 
              Baa    -0.0044    -2.337    -0.834    -0.780 -0.2708  0.1015  0.9573
    32 H(1)   Bbb    -0.0029    -1.521    -0.543    -0.507 -0.2525  0.9521 -0.1724
              Bcc     0.0072     3.858     1.377     1.287  0.9289  0.2884  0.2322
 
              Baa    -0.0045    -2.375    -0.848    -0.792  0.1626  0.1263  0.9786
    33 H(1)   Bbb    -0.0029    -1.533    -0.547    -0.511 -0.2508  0.9645 -0.0828
              Bcc     0.0073     3.908     1.394     1.304  0.9543  0.2320 -0.1885
 
              Baa    -0.0045    -0.607    -0.217    -0.203 -0.2303  0.2592  0.9380
    34 C(13)  Bbb    -0.0036    -0.485    -0.173    -0.162  0.8203 -0.4668  0.3304
              Bcc     0.0081     1.092     0.390     0.364  0.5234  0.8456 -0.1051
 
              Baa    -0.0043    -2.300    -0.821    -0.767 -0.0046  0.3535  0.9354
    35 H(1)   Bbb    -0.0030    -1.579    -0.563    -0.527  0.9084 -0.3897  0.1517
              Bcc     0.0073     3.879     1.384     1.294  0.4182  0.8504 -0.3194
 
              Baa    -0.0043    -2.274    -0.812    -0.759 -0.0523 -0.0821  0.9952
    36 H(1)   Bbb    -0.0028    -1.498    -0.534    -0.500  0.9039 -0.4275  0.0123
              Bcc     0.0071     3.772     1.346     1.258  0.4245  0.9003  0.0966
 
              Baa    -0.0032    -1.707    -0.609    -0.569 -0.0192  0.1549  0.9877
    37 H(1)   Bbb    -0.0025    -1.343    -0.479    -0.448  0.7778 -0.6184  0.1122
              Bcc     0.0057     3.050     1.088     1.017  0.6282  0.7705 -0.1086
 
              Baa    -0.0048    -0.644    -0.230    -0.215 -0.1293  0.1516  0.9799
    38 C(13)  Bbb    -0.0030    -0.400    -0.143    -0.133  0.5510  0.8326 -0.0561
              Bcc     0.0078     1.044     0.373     0.348  0.8244 -0.5327  0.1912
 
              Baa    -0.0043    -2.270    -0.810    -0.757  0.0806 -0.0314  0.9962
    39 H(1)   Bbb    -0.0026    -1.395    -0.498    -0.465  0.4497  0.8932 -0.0082
              Bcc     0.0069     3.664     1.308     1.222  0.8895 -0.4486 -0.0861
 
              Baa    -0.0049    -2.596    -0.926    -0.866 -0.3177  0.0506  0.9469
    40 H(1)   Bbb    -0.0028    -1.514    -0.540    -0.505  0.3527  0.9332  0.0685
              Bcc     0.0077     4.110     1.467     1.371  0.8802 -0.3557  0.3143
 
              Baa    -0.0039    -2.064    -0.737    -0.689 -0.3578 -0.0836  0.9301
    41 H(1)   Bbb    -0.0021    -1.108    -0.395    -0.370  0.5623  0.7759  0.2860
              Bcc     0.0059     3.172     1.132     1.058  0.7455 -0.6253  0.2306
 
              Baa    -0.0245    -3.292    -1.175    -1.098  0.3687  0.0720  0.9268
    42 C(13)  Bbb     0.0050     0.664     0.237     0.222  0.8291  0.4254 -0.3629
              Bcc     0.0196     2.627     0.937     0.876 -0.4203  0.9021  0.0972
 
              Baa    -0.0049    -2.593    -0.925    -0.865  0.0317  0.1293  0.9911
    43 H(1)   Bbb    -0.0036    -1.944    -0.694    -0.648  0.9644  0.2564 -0.0643
              Bcc     0.0085     4.536     1.619     1.513 -0.2624  0.9579 -0.1166
 
              Baa    -0.0338    -4.539    -1.620    -1.514  0.8171  0.3276 -0.4744
    44 C(13)  Bbb    -0.0273    -3.667    -1.308    -1.223 -0.2709  0.9445  0.1858
              Bcc     0.0612     8.206     2.928     2.737  0.5089 -0.0233  0.8605
 
              Baa    -0.0028    -1.487    -0.531    -0.496  0.2642  0.1958  0.9444
    45 H(1)   Bbb    -0.0003    -0.146    -0.052    -0.049 -0.0659  0.9805 -0.1849
              Bcc     0.0031     1.633     0.583     0.545  0.9622  0.0134 -0.2720
 
              Baa    -0.0052    -2.756    -0.983    -0.919  0.8225  0.0385 -0.5675
    46 H(1)   Bbb    -0.0015    -0.826    -0.295    -0.275  0.5591  0.1289  0.8190
              Bcc     0.0067     3.582     1.278     1.195 -0.1047  0.9909 -0.0845
 
              Baa    -0.0050    -0.673    -0.240    -0.224 -0.2908 -0.0300  0.9563
    47 C(13)  Bbb    -0.0035    -0.472    -0.168    -0.158  0.8023 -0.5522  0.2267
              Bcc     0.0085     1.145     0.409     0.382  0.5212  0.8332  0.1847
 
              Baa    -0.0052    -2.769    -0.988    -0.924 -0.0820 -0.2949  0.9520
    48 H(1)   Bbb    -0.0030    -1.596    -0.570    -0.532  0.9365 -0.3495 -0.0276
              Bcc     0.0082     4.365     1.558     1.456  0.3409  0.8893  0.3048
 
              Baa    -0.0045    -2.379    -0.849    -0.794 -0.0035  0.1105  0.9939
    49 H(1)   Bbb    -0.0028    -1.496    -0.534    -0.499  0.8895 -0.4538  0.0536
              Bcc     0.0073     3.875     1.383     1.293  0.4570  0.8842 -0.0967
 
              Baa    -0.0040    -2.148    -0.767    -0.717  0.0176 -0.3358  0.9418
    50 H(1)   Bbb    -0.0024    -1.284    -0.458    -0.428  0.7787 -0.5862 -0.2236
              Bcc     0.0064     3.433     1.225     1.145  0.6272  0.7373  0.2512
 
              Baa    -0.0217    -2.905    -1.037    -0.969 -0.1080  0.3650  0.9247
    51 C(13)  Bbb     0.0034     0.460     0.164     0.153 -0.3687  0.8491 -0.3782
              Bcc     0.0182     2.446     0.873     0.816  0.9233  0.3818 -0.0429
 
              Baa    -0.0050    -2.648    -0.945    -0.883 -0.1828  0.0816  0.9798
    52 H(1)   Bbb    -0.0036    -1.931    -0.689    -0.644 -0.2118  0.9699 -0.1203
              Bcc     0.0086     4.579     1.634     1.527  0.9601  0.2295  0.1601
 
              Baa    -0.0293    -3.931    -1.403    -1.311 -0.3152  0.8118 -0.4917
    53 C(13)  Bbb    -0.0226    -3.038    -1.084    -1.013  0.9474  0.2999 -0.1122
              Bcc     0.0519     6.969     2.487     2.325 -0.0563  0.5011  0.8635
 
              Baa    -0.0027    -1.432    -0.511    -0.478 -0.1525  0.3229  0.9341
    54 H(1)   Bbb     0.0001     0.031     0.011     0.010  0.9675 -0.1442  0.2078
              Bcc     0.0026     1.401     0.500     0.467  0.2017  0.9354 -0.2905
 
              Baa    -0.0046    -2.435    -0.869    -0.812 -0.0037  0.8299 -0.5580
    55 H(1)   Bbb    -0.0016    -0.852    -0.304    -0.284 -0.1717  0.5492  0.8179
              Bcc     0.0062     3.288     1.173     1.097  0.9851  0.0988  0.1405
 
              Baa    -0.0045    -0.608    -0.217    -0.203  0.1362 -0.0073  0.9907
    56 C(13)  Bbb    -0.0035    -0.470    -0.168    -0.157  0.5366  0.8411 -0.0676
              Bcc     0.0080     1.078     0.385     0.360  0.8328 -0.5408 -0.1184
 
              Baa    -0.0043    -2.288    -0.817    -0.763 -0.0898  0.0120  0.9959
    57 H(1)   Bbb    -0.0028    -1.506    -0.537    -0.502  0.4499  0.8926  0.0298
              Bcc     0.0071     3.794     1.354     1.266  0.8885 -0.4507  0.0855
 
              Baa    -0.0045    -2.426    -0.866    -0.809  0.3228 -0.1003  0.9411
    58 H(1)   Bbb    -0.0028    -1.516    -0.541    -0.506  0.4297  0.9015 -0.0513
              Bcc     0.0074     3.943     1.407     1.315  0.8433 -0.4209 -0.3341
 
              Baa    -0.0032    -1.712    -0.611    -0.571  0.1636 -0.0281  0.9861
    59 H(1)   Bbb    -0.0026    -1.384    -0.494    -0.462  0.6361  0.7670 -0.0837
              Bcc     0.0058     3.096     1.105     1.033  0.7540 -0.6410 -0.1433
 
              Baa    -0.0043    -0.578    -0.206    -0.193  0.0530 -0.0386  0.9978
    60 C(13)  Bbb    -0.0035    -0.472    -0.168    -0.157  0.9294  0.3674 -0.0352
              Bcc     0.0078     1.050     0.375     0.350 -0.3652  0.9293  0.0554
 
              Baa    -0.0041    -2.200    -0.785    -0.734  0.0906  0.1929  0.9770
    61 H(1)   Bbb    -0.0029    -1.529    -0.545    -0.510  0.9550  0.2615 -0.1402
              Bcc     0.0070     3.729     1.330     1.244 -0.2826  0.9457 -0.1605
 
              Baa    -0.0032    -1.692    -0.604    -0.564  0.0562 -0.0779  0.9954
    62 H(1)   Bbb    -0.0025    -1.310    -0.467    -0.437  0.8822  0.4708 -0.0129
              Bcc     0.0056     3.001     1.071     1.001 -0.4676  0.8788  0.0952
 
              Baa    -0.0044    -2.361    -0.842    -0.787  0.0865 -0.2402  0.9669
    63 H(1)   Bbb    -0.0028    -1.505    -0.537    -0.502  0.9695  0.2435 -0.0262
              Bcc     0.0072     3.866     1.379     1.290 -0.2292  0.9397  0.2540
 
              Baa    -0.0310     2.246     0.802     0.749 -0.3373  0.9412  0.0200
    64 O(17)  Bbb    -0.0188     1.358     0.485     0.453  0.9413  0.3371  0.0157
              Bcc     0.0498    -3.605    -1.286    -1.202 -0.0081 -0.0241  0.9997
 
              Baa    -0.0158    -8.447    -3.014    -2.818 -0.2246  0.9378  0.2647
    65 H(1)   Bbb    -0.0132    -7.038    -2.511    -2.348  0.9714  0.2368 -0.0149
              Bcc     0.0290    15.485     5.525     5.165  0.0766 -0.2538  0.9642
 
              Baa    -0.0130    -6.940    -2.476    -2.315 -0.0562  0.9648 -0.2569
    66 H(1)   Bbb    -0.0123    -6.584    -2.349    -2.196  0.9927  0.0814  0.0887
              Bcc     0.0253    13.524     4.826     4.511 -0.1065  0.2500  0.9624
 
              Baa    -0.0082    -1.100    -0.392    -0.367  0.9166  0.0121  0.3996
    67 C(13)  Bbb    -0.0069    -0.928    -0.331    -0.310  0.0135  0.9980 -0.0613
              Bcc     0.0151     2.028     0.724     0.676 -0.3995  0.0616  0.9147
 
              Baa    -0.0045    -2.407    -0.859    -0.803  0.9277  0.1085  0.3573
    68 H(1)   Bbb    -0.0042    -2.251    -0.803    -0.751 -0.0668  0.9896 -0.1272
              Bcc     0.0087     4.658     1.662     1.554 -0.3674  0.0941  0.9253
 
              Baa    -0.0074    -3.948    -1.409    -1.317 -0.4090  0.9120 -0.0321
    69 H(1)   Bbb    -0.0071    -3.767    -1.344    -1.256  0.7707  0.3641  0.5229
              Bcc     0.0145     7.715     2.753     2.573 -0.4885 -0.1891  0.8518
 
              Baa    -0.0090    -4.803    -1.714    -1.602 -0.0040  0.9643 -0.2648
    70 H(1)   Bbb    -0.0081    -4.319    -1.541    -1.441  0.7728  0.1710  0.6112
              Bcc     0.0171     9.122     3.255     3.043 -0.6346  0.2022  0.7459
 
              Baa    -0.0599    -2.454    -0.876    -0.819  0.2644 -0.0179  0.9642
    71 S(33)  Bbb     0.0256     1.050     0.375     0.350  0.6435  0.7480 -0.1626
              Bcc     0.0342     1.404     0.501     0.468  0.7183 -0.6635 -0.2093
 
              Baa    -0.0134    -7.135    -2.546    -2.380  0.8225 -0.4991  0.2727
    72 H(1)   Bbb    -0.0126    -6.715    -2.396    -2.240  0.5687  0.7209 -0.3960
              Bcc     0.0260    13.850     4.942     4.620  0.0010  0.4808  0.8768
 

 ---------------------------------------------------------------------------------

 Unable to Open any file for archive entry.
 1\1\GINC-BGN1024\SP\UAPFD\Gen\C31H34Fe1N4O1S1(5)\BECSLEIP\14-Nov-2024\
 0\\# apfd/gen scf=maxcycle=999 geom=check\\6tet_II_Q\\0,5\Fe,0,-6.1719
 228152,24.7192117278,7.5657788801\N,0,-4.4457397533,23.7261777825,7.31
 28407848\N,0,-5.813695667,24.8057720801,9.5348378351\N,0,-7.935367965,
 25.6038078422,7.8473060304\N,0,-6.5784018778,24.4843629234,5.635555956
 7\C,0,-3.8806566683,23.3768065937,6.1279538575\C,0,-2.5573355878,22.82
 96689697,6.3332361662\C,0,-2.3468341153,22.834246723,7.6762839244\C,0,
 -3.5343078576,23.4086738978,8.2700682284\C,0,-4.7584090736,24.27093232
 32,10.2103548941\C,0,-4.8349484376,24.5887317735,11.6118391579\C,0,-5.
 9535351302,25.3649454012,11.7718046921\C,0,-6.5423632322,25.4952752678
 ,10.45473731\C,0,-8.3146270942,26.3007077903,8.9541146994\C,0,-9.50960
 69266,27.0612372345,8.6991072649\C,0,-9.8536240399,26.8068877723,7.397
 6159538\C,0,-8.8428992165,25.9035830945,6.8848810459\C,0,-7.7801137774
 ,24.6990313775,5.0370922957\C,0,-7.7834931361,24.183628437,3.686046431
 3\C,0,-6.5519376453,23.6460241149,3.4827752777\C,0,-5.8242419536,23.82
 18842954,4.7207103934\C,0,-4.5108843452,23.4314244631,4.8998665009\H,0
 ,-3.9792744425,23.0433410801,4.0450800041\C,0,-3.7039898396,23.5861086
 723,9.6284471479\H,0,-2.9151811116,23.2406679833,10.278392574\C,0,-7.6
 895664845,26.2195622925,10.1869816665\H,0,-8.1294008599,26.7705457686,
 11.0038798201\C,0,-8.8285511043,25.4041359108,5.5954405625\H,0,-9.6858
 483411,25.6019671381,4.9708081949\C,0,-1.1605014339,22.3706485424,8.44
 9278556\H,0,-0.392711548,21.9847680346,7.7834273465\H,0,-1.4414703701,
 21.5780033357,9.1430625417\H,0,-0.7337861135,23.1905786543,9.027706294
 1\C,0,-1.6643797112,22.3598229532,5.2372619546\H,0,-1.5097158814,23.15
 10429911,4.5038627382\H,0,-2.1054509115,21.5048828652,4.7237630073\H,0
 ,-0.695628113,22.0598169305,5.6291965766\C,0,-3.8964808516,24.08840101
 49,12.6533809625\H,0,-3.0020000046,24.7117054367,12.7055973272\H,0,-3.
 5843936634,23.0688333431,12.432309722\H,0,-4.3801742447,24.1020130581,
 13.6280311728\C,0,-6.5002585012,25.9444663868,12.9789727107\H,0,-7.580
 7839512,26.0217773465,13.0120892311\C,0,-5.7910111068,26.3806041055,14
 .0146914605\H,0,-4.7150592283,26.3721028704,14.0181282835\H,0,-6.26726
 11147,26.7886742262,14.8905765828\C,0,-10.1596296905,27.9836845578,9.6
 697742104\H,0,-9.4137422257,28.4880619127,10.2822920718\H,0,-10.831049
 4956,27.4384652894,10.3353714683\H,0,-10.7404948781,28.7345002688,9.13
 7979417\C,0,-10.9581938925,27.3286201333,6.6232662671\H,0,-10.76185426
 97,27.4678729435,5.5668347821\C,0,-12.1600459468,27.631406641,7.102821
 0718\H,0,-12.4238145655,27.4695255287,8.1333292292\H,0,-12.9350688433,
 28.0295469213,6.4691997142\C,0,-8.9451540362,24.269056425,2.7574714749
 \H,0,-9.1657160474,25.3096720737,2.5177907886\H,0,-9.833635085,23.8316
 504498,3.2124388115\H,0,-8.7380834427,23.7419122014,1.8294337694\C,0,-
 5.9988041316,22.9785239166,2.2710613041\H,0,-5.1414709346,23.532677526
 4,1.8881414423\H,0,-6.7477245319,22.9229985336,1.4850045489\H,0,-5.669
 4691319,21.9662505116,2.5059318021\O,0,-7.174,22.773,7.977\H,0,-7.408,
 22.741,8.905\H,0,-7.324,22.137,7.374\C,0,-3.5074791123,26.7972652378,7
 .9192279839\H,0,-3.1477649985,27.8162448962,8.0225248477\H,0,-2.885186
 9247,26.2490841421,7.2199240786\H,0,-3.5249884895,26.2849708202,8.8747
 787045\S,0,-5.1911253136,26.8267367064,7.2070588927\H,0,-5.7442866349,
 27.471696646,8.2416926287\\Version=ES64L-G16RevC.02\State=5-A\HF=-3095
 .2955903\S2=6.079118\S2-1=0.\S2A=6.001412\RMSD=7.639e-09\Dipole=-2.072
 7331,-6.0922815,1.2015972\Quadrupole=-5.2976653,28.8349139,-23.5372486
 ,27.4954658,-5.9753487,-9.4646708\PG=C01 [X(C31H34Fe1N4O1S1)]\\@
 The archive entry for this job was punched.


 TERENCE, THIS IS STUPID STUFF:
 YOU EAT YOUR VICTUALS FAST ENOUGH;
 THERE CAN'T BE MUCH AMISS, 'TIS CLEAR
 TO SEE THE RATE YOU DRINK YOUR BEER.
 BUT OH, GOOD LORD, THE VERSE YOU MAKE,
 IT GIVES A CHAP THE BELLY-ACHE.
 THE COW, THE OLD COW, SHE IS DEAD;
 IT SLEEPS WELL, THE HORNED HEAD:
 WE POOR LADS, 'TIS OUR TURN NOW
 TO HEAR SUCH TUNES AS KILLED THE COW.
 PRETTY FRIENDSHIP 'TIS TO RHYME
 YOUR FRIENDS TO DEATH BEFORE THEIR TIME.
 MOPING, MELANCHOLY MAD:
 COME PIPE A TUNE TO DANCE TO, LAD.

     -- A. E. HOUSMAN
 Job cpu time:       0 days  2 hours  0 minutes 21.0 seconds.
 Elapsed time:       0 days  0 hours  2 minutes  3.5 seconds.
 File lengths (MBytes):  RWF=    347 Int=      0 D2E=      0 Chk=    156 Scr=      1
 Normal termination of Gaussian 16 at Thu Nov 14 19:53:15 2024.
