 Entering Gaussian System, Link 0=g16
 Input=6u3k16.com
 Output=6u3k16.log
 Initial command:
 /sw/chem/gaussian/g16_C02/a100/g16/l1.exe "/local/becsleip_8082252/Gau-1744800.inp" -scrdir="/local/becsleip_8082252/"
 Entering Link 1 = /sw/chem/gaussian/g16_C02/a100/g16/l1.exe PID=   1744801.
  
 Copyright (c) 1988-2021, Gaussian, Inc.  All Rights Reserved.
  
 This is part of the Gaussian(R) 16 program.  It is based on
 the Gaussian(R) 09 system (copyright 2009, Gaussian, Inc.),
 the Gaussian(R) 03 system (copyright 2003, Gaussian, Inc.),
 the Gaussian(R) 98 system (copyright 1998, Gaussian, Inc.),
 the Gaussian(R) 94 system (copyright 1995, Gaussian, Inc.),
 the Gaussian 92(TM) system (copyright 1992, Gaussian, Inc.),
 the Gaussian 90(TM) system (copyright 1990, Gaussian, Inc.),
 the Gaussian 88(TM) system (copyright 1988, Gaussian, Inc.),
 the Gaussian 86(TM) system (copyright 1986, Carnegie Mellon
 University), and the Gaussian 82(TM) system (copyright 1983,
 Carnegie Mellon University). Gaussian is a federally registered
 trademark of Gaussian, Inc.
  
 This software contains proprietary and confidential information,
 including trade secrets, belonging to Gaussian, Inc.
  
 This software is provided under written license and may be
 used, copied, transmitted, or stored only in accord with that
 written license.
  
 The following legend is applicable only to US Government
 contracts under FAR:
  
                    RESTRICTED RIGHTS LEGEND
  
 Use, reproduction and disclosure by the US Government is
 subject to restrictions as set forth in subparagraphs (a)
 and (c) of the Commercial Computer Software - Restricted
 Rights clause in FAR 52.227-19.
  
 Gaussian, Inc.
 340 Quinnipiac St., Bldg. 40, Wallingford CT 06492
  
  
 ---------------------------------------------------------------
 Warning -- This program may not be used in any manner that
 competes with the business of Gaussian, Inc. or will provide
 assistance to any competitor of Gaussian, Inc.  The licensee
 of this program is prohibited from giving any competitor of
 Gaussian, Inc. access to this program.  By using this program,
 the user acknowledges that Gaussian, Inc. is engaged in the
 business of creating and licensing software in the field of
 computational chemistry and represents and warrants to the
 licensee that it is not a competitor of Gaussian, Inc. and that
 it will not use this program in any manner prohibited above.
 ---------------------------------------------------------------
  

 Cite this work as:
 Gaussian 16, Revision C.02,
 M. J. Frisch, G. W. Trucks, H. B. Schlegel, G. E. Scuseria, 
 M. A. Robb, J. R. Cheeseman, G. Scalmani, V. Barone, 
 G. A. Petersson, H. Nakatsuji, X. Li, M. Caricato, A. V. Marenich, 
 J. Bloino, B. G. Janesko, R. Gomperts, B. Mennucci, H. P. Hratchian, 
 J. V. Ortiz, A. F. Izmaylov, J. L. Sonnenberg, D. Williams-Young, 
 F. Ding, F. Lipparini, F. Egidi, J. Goings, B. Peng, A. Petrone, 
 T. Henderson, D. Ranasinghe, V. G. Zakrzewski, J. Gao, N. Rega, 
 G. Zheng, W. Liang, M. Hada, M. Ehara, K. Toyota, R. Fukuda, 
 J. Hasegawa, M. Ishida, T. Nakajima, Y. Honda, O. Kitao, H. Nakai, 
 T. Vreven, K. Throssell, J. A. Montgomery, Jr., J. E. Peralta, 
 F. Ogliaro, M. J. Bearpark, J. J. Heyd, E. N. Brothers, K. N. Kudin, 
 V. N. Staroverov, T. A. Keith, R. Kobayashi, J. Normand, 
 K. Raghavachari, A. P. Rendell, J. C. Burant, S. S. Iyengar, 
 J. Tomasi, M. Cossi, J. M. Millam, M. Klene, C. Adamo, R. Cammi, 
 J. W. Ochterski, R. L. Martin, K. Morokuma, O. Farkas, 
 J. B. Foresman, and D. J. Fox, Gaussian, Inc., Wallingford CT, 2019.
 
 ******************************************
 Gaussian 16:  ES64L-G16RevC.02  7-Dec-2021
                15-Nov-2024 
 ******************************************
 %mem=16GB
 %CPU=0-71
 SetSPE:  set environment variable "OMP_PROC_BIND" = "true"
 SetSPE:  set environment variable "OMP_PLACES" = "{0},{1},{2},{3},{4},{5},{6},{7},{8},{9},{10},{11},{12},{13},{14},{15},{16},{17},{18},{19},{20},{21},{22},{23},{24},{25},{26},{27},{28},{29},{30},{31},{32},{33},{34},{35},{36},{37},{38},{39},{40},{41},{42},{43},{44},{45},{46},{47},{48},{49},{50},{51},{52},{53},{54},{55},{56},{57},{58},{59},{60},{61},{62},{63},{64},{65},{66},{67},{68},{69},{70},{71}"
 Will use up to   72 processors via shared memory.
 %gpucpu=0,1,2,3=0,1,2,3
 Will use    4 GPUs:
 Thread  CPU   GPU
      0    0     0
      1    1     1
      2    2     2
      3    3     3
      4    4    -1
      5    5    -1
      6    6    -1
      7    7    -1
      8    8    -1
      9    9    -1
     10   10    -1
     11   11    -1
     12   12    -1
     13   13    -1
     14   14    -1
     15   15    -1
     16   16    -1
     17   17    -1
     18   18    -1
     19   19    -1
     20   20    -1
     21   21    -1
     22   22    -1
     23   23    -1
     24   24    -1
     25   25    -1
     26   26    -1
     27   27    -1
     28   28    -1
     29   29    -1
     30   30    -1
     31   31    -1
     32   32    -1
     33   33    -1
     34   34    -1
     35   35    -1
     36   36    -1
     37   37    -1
     38   38    -1
     39   39    -1
     40   40    -1
     41   41    -1
     42   42    -1
     43   43    -1
     44   44    -1
     45   45    -1
     46   46    -1
     47   47    -1
     48   48    -1
     49   49    -1
     50   50    -1
     51   51    -1
     52   52    -1
     53   53    -1
     54   54    -1
     55   55    -1
     56   56    -1
     57   57    -1
     58   58    -1
     59   59    -1
     60   60    -1
     61   61    -1
     62   62    -1
     63   63    -1
     64   64    -1
     65   65    -1
     66   66    -1
     67   67    -1
     68   68    -1
     69   69    -1
     70   70    -1
     71   71    -1
 SetGPE:  set environment variable "OMP_PROC_BIND" = "true"
 SetGPE:  set environment variable "OMP_PLACES" = "{0},{1},{2},{3},{4},{5},{6},{7},{8},{9},{10},{11},{12},{13},{14},{15},{16},{17},{18},{19},{20},{21},{22},{23},{24},{25},{26},{27},{28},{29},{30},{31},{32},{33},{34},{35},{36},{37},{38},{39},{40},{41},{42},{43},{44},{45},{46},{47},{48},{49},{50},{51},{52},{53},{54},{55},{56},{57},{58},{59},{60},{61},{62},{63},{64},{65},{66},{67},{68},{69},{70},{71}"
 %oldchk=6u3k_III_Dre.chk
 %chk=6u3k_III_Hn.chk
 Properties for Device   0
 Minimum vector length:                              32
 Maximum vector length:                            1024
 Number of SMPs:                                    108
 Maximum number of threads per SMP:                2048
 Number of ASync Engines:                             5
 Memory:                                           9207742464
 Properties for Device   1
 Minimum vector length:                              32
 Maximum vector length:                            1024
 Number of SMPs:                                    108
 Maximum number of threads per SMP:                2048
 Number of ASync Engines:                             5
 Memory:                                           9207742464
 Properties for Device   2
 Minimum vector length:                              32
 Maximum vector length:                            1024
 Number of SMPs:                                    108
 Maximum number of threads per SMP:                2048
 Number of ASync Engines:                             5
 Memory:                                           9207742464
 Properties for Device   3
 Minimum vector length:                              32
 Maximum vector length:                            1024
 Number of SMPs:                                    108
 Maximum number of threads per SMP:                2048
 Number of ASync Engines:                             5
 Memory:                                           9207742464
   8286968217 words of memory will be used on each GPU.
 Copying data from "6u3k_III_Dre.chk" to current chk file "6u3k_III_Hn.chk"
 IOpt=  2 FromEx=T IUOpen= 4 IOptOp= 5 NList=   0 IFRang= 0 IUIn= 4 IUOut= 2.
 --------------------------------------------------------------
 # apfd/def2TZVP guess=read scf=maxcycle=999 geom=check pop=nbo
 --------------------------------------------------------------
 1/29=2,38=1,172=1/1;
 2/12=2,40=1/2;
 3/5=44,7=101,11=2,14=-4,25=1,30=1,74=-44,116=-2/1,2,3;
 4/5=1/1;
 5/5=2,7=999,38=6/2;
 6/7=2,8=2,9=2,10=2,28=1,40=1/1,7;
 99/5=1,9=1/99;
 ----------
 6u3k_III_H
 ----------
 Structure from the checkpoint file:  "6u3k_III_Hn.chk"
 Charge =  1 Multiplicity = 6
 Z-Matrix found in chk file.
 Fe,0,3.4554758568,-3.051416618,15.1804757309
 N,0,2.1037782174,-3.1910131412,16.6316881921
 N,0,4.1819116446,-4.8653083251,15.6776579599
 N,0,4.967014565,-2.8655735248,13.8563018948
 N,0,2.8860961707,-1.1925680608,14.808641991
 C,0,1.0843110354,-2.3252545081,16.8648887554
 C,0,0.2157383387,-2.8299144607,17.9061307394
 C,0,0.7407260359,-4.0214883457,18.2977845805
 C,0,1.9184958204,-4.2326705468,17.4845537841
 C,0,3.7592993946,-5.6585261429,16.7041287066
 C,0,4.4729097178,-6.9075910076,16.7126415282
 C,0,5.3486539638,-6.8591380098,15.6588987628
 C,0,5.1421670155,-5.5743333165,15.0239893852
 C,0,5.7117285259,-3.8829500038,13.3399406902
 C,0,6.3982089633,-3.4701920235,12.1447341521
 C,0,6.0554587083,-2.1598158912,11.9426427959
 C,0,5.1449594282,-1.8151448883,13.0159349784
 C,0,3.4989765532,-0.2941342094,13.9964067773
 C,0,2.8238052343,0.9856422661,14.0497830794
 C,0,1.7726719018,0.8268669553,14.8962463023
 C,0,1.8308287843,-0.542354185,15.3622680132
 C,0,0.939786052,-1.0871711193,16.2669486823
 H,0,0.1058860859,-0.4769445129,16.5776584272
 C,0,2.7219606734,-5.3525889147,17.5706788571
 H,0,2.4829671851,-6.0765376524,18.3341243812
 C,0,5.8438597633,-5.1336377059,13.9176889984
 H,0,6.5461142083,-5.8181703608,13.46791101
 C,0,4.5603845518,-0.5696686173,13.1580162947
 H,0,4.8997544138,0.2210098517,12.5070804872
 C,0,0.2583805016,-4.971409084,19.3395604439
 H,0,-0.6400380307,-4.5935406518,19.8208064551
 H,0,1.0202248283,-5.1202660683,20.1050211837
 H,0,0.028959952,-5.941626351,18.8977372701
 C,0,-1.0006318892,-2.1250804294,18.3993384359
 H,0,-1.6854687962,-1.9210308145,17.5762116281
 H,0,-0.73144929,-1.1734095139,18.8583901401
 H,0,-1.522815431,-2.7261076511,19.1397266723
 C,0,4.2254776539,-8.0302344392,17.6584114327
 H,0,3.1604140103,-8.1398516693,17.8588440214
 H,0,4.730685341,-7.8557532577,18.6100370977
 H,0,4.5978868998,-8.9616548679,17.237088908
 C,0,6.2924745424,-7.8580510309,15.207375328
 H,0,6.4495867078,-7.9052769136,14.1358303431
 C,0,6.9680959461,-8.6888018892,15.9942339043
 H,0,6.8893685833,-8.6544023947,17.0669186559
 H,0,7.6485038627,-9.4192515447,15.5892337466
 C,0,7.241252726,-4.3537868131,11.2938096293
 H,0,6.8266039243,-5.3597662654,11.2521313532
 H,0,8.2556920852,-4.422810496,11.6898637248
 H,0,7.294199544,-3.956076757,10.2826687239
 C,0,6.4452724186,-1.2674158896,10.8727111935
 H,0,5.6948941299,-0.5476529369,10.5679450915
 C,0,7.6261294578,-1.2686952525,10.2633143968
 H,0,8.4221201268,-1.930539848,10.5570991726
 H,0,7.8469272672,-0.5837995968,9.461504799
 C,0,3.2520435417,2.1920560197,13.2880369055
 H,0,3.1554645549,2.0201961994,12.2155708452
 H,0,4.2943915935,2.4293954118,13.4997779124
 H,0,2.6424832481,3.0527570051,13.5518692007
 C,0,0.7351885426,1.8119132212,15.3119913588
 H,0,-0.2581968318,1.4611499248,15.0316950519
 H,0,0.9042767263,2.7749023905,14.836849134
 H,0,0.7513430759,1.9534652568,16.3928320012
 O,0,4.896,-2.319,16.721
 H,0,5.399,-3.111,16.911
 H,0,5.019,-1.518,17.086
 C,0,0.9925850436,-5.1911536941,14.3262636417
 H,0,1.56646058,-5.7602040872,15.0495139262
 H,0,0.5640562205,-5.8354530185,13.5648334687
 H,0,0.2094345542,-4.6370579805,14.8327937193
 S,0,2.0723710223,-3.9516023657,13.5249952932
 H,0,2.9311255339,-4.8506907035,13.0286022071
 Recover connectivity data from disk.
 Stoichiometry    C31H34FeN4OS(1+,6)
 Framework group  C1[X(C31H34FeN4OS)]
 Deg. of freedom   210
 Full point group                 C1      NOp   1
 Largest Abelian subgroup         C1      NOp   1
 Largest concise Abelian subgroup C1      NOp   1
                         Standard orientation:                         
 ---------------------------------------------------------------------
 Center     Atomic      Atomic             Coordinates (Angstroms)
 Number     Number       Type             X           Y           Z
 ---------------------------------------------------------------------
      1         26           0        0.006344   -0.215738   -0.101133
      2          7           0       -1.495343   -1.517055   -0.165175
      3          7           0       -1.305361    1.309882   -0.231579
      4          7           0        1.505251    1.128191   -0.242039
      5          7           0        1.314644   -1.699337   -0.172238
      6          6           0       -1.401428   -2.860152    0.009486
      7          6           0       -2.716622   -3.461867    0.048080
      8          6           0       -3.606523   -2.446343   -0.112045
      9          6           0       -2.823056   -1.236629   -0.237967
     10          6           0       -2.659867    1.210571   -0.361536
     11          6           0       -3.270553    2.513083   -0.362420
     12          6           0       -2.249583    3.418302   -0.228821
     13          6           0       -1.031682    2.640013   -0.142476
     14          6           0        1.411349    2.464596    0.005926
     15          6           0        2.709693    3.045945    0.221518
     16          6           0        3.610603    2.022541    0.093415
     17          6           0        2.828083    0.833122   -0.176229
     18          6           0        2.657122   -1.601128   -0.347279
     19          6           0        3.259221   -2.915706   -0.424059
     20          6           0        2.246995   -3.808277   -0.264979
     21          6           0        1.038128   -3.027007   -0.111407
     22          6           0       -0.219583   -3.576384    0.048525
     23          1           0       -0.288653   -4.648727    0.146579
     24          6           0       -3.370517    0.021308   -0.396306
     25          1           0       -4.443231    0.086593   -0.491660
     26          6           0        0.230626    3.186537   -0.006914
     27          1           0        0.300868    4.257793    0.100432
     28          6           0        3.376965   -0.423371   -0.358113
     29          1           0        4.451177   -0.496328   -0.427457
     30          6           0       -5.095266   -2.490887   -0.156334
     31          1           0       -5.454758   -3.510797   -0.046398
     32          1           0       -5.462578   -2.098600   -1.104854
     33          1           0       -5.521401   -1.888311    0.646458
     34          6           0       -2.968015   -4.918712    0.232485
     35          1           0       -2.500346   -5.275081    1.150343
     36          1           0       -2.553019   -5.486848   -0.600501
     37          1           0       -4.034330   -5.123504    0.288309
     38          6           0       -4.734703    2.773765   -0.428308
     39          1           0       -5.285417    2.038869    0.157517
     40          1           0       -5.093387    2.720584   -1.457768
     41          1           0       -4.954797    3.765318   -0.038274
     42          6           0       -2.310482    4.861862   -0.158667
     43          1           0       -1.573003    5.332428    0.481502
     44          6           0       -3.175671    5.627730   -0.814908
     45          1           0       -3.897239    5.219846   -1.501205
     46          1           0       -3.173178    6.699579   -0.706876
     47          6           0        2.961194    4.467763    0.583063
     48          1           0        2.183209    4.840708    1.247381
     49          1           0        2.976278    5.098795   -0.307039
     50          1           0        3.922003    4.559591    1.084855
     51          6           0        5.049974    2.048285    0.237064
     52          1           0        5.493674    1.153268    0.656687
     53          6           0        5.838064    3.061753   -0.105845
     54          1           0        5.455128    3.954607   -0.568577
     55          1           0        6.904536    3.020808    0.041439
     56          6           0        4.714218   -3.160935   -0.628818
     57          1           0        5.287297   -2.786784    0.220086
     58          1           0        5.066632   -2.651456   -1.525417
     59          1           0        4.916249   -4.223904   -0.734919
     60          6           0        2.292445   -5.297272   -0.246014
     61          1           0        1.925957   -5.678164    0.707413
     62          1           0        3.309111   -5.654644   -0.388757
     63          1           0        1.667589   -5.710604   -1.037991
     64          8           0       -0.072997   -0.157522   -2.331621
     65          1           0       -0.567715    0.646744   -2.489047
     66          1           0        0.257266   -0.701456   -2.952118
     67          6           0       -1.644390   -0.290690    2.838841
     68          1           0       -2.324792    0.254702    2.193982
     69          1           0       -1.702538    0.060848    3.864303
     70          1           0       -1.865920   -1.351701    2.793023
     71         16           0        0.069123   -0.090057    2.232146
     72          1           0        0.077627    1.243448    2.350108
 ---------------------------------------------------------------------
 Rotational constants (GHZ):           0.1090110           0.1075132           0.0598654
 Standard basis: def2TZVP (5D, 7F)
 There are  1594 symmetry adapted cartesian basis functions of A   symmetry.
 There are  1402 symmetry adapted basis functions of A   symmetry.
  1402 basis functions,  2279 primitive gaussians,  1594 cartesian basis functions
   151 alpha electrons      146 beta electrons
       nuclear repulsion energy      5420.1869785760 Hartrees.
 NAtoms=   72 NActive=   72 NUniq=   72 SFac= 1.00D+00 NAtFMM=   60 NAOKFM=T Big=T
 Integral buffers will be    131072 words long.
 Raffenetti 2 integral format.
 Two-electron integral symmetry is turned on.
 R6APFD:  NTU= -4 IXU= 1 FactS= 1.050
 Nuclear repulsion after empirical dispersion term =     5420.0341328183 Hartrees.
 One-electron integrals computed using PRISM.
   1 Symmetry operations used in ECPInt.
 ECPInt:  NShTT=  157080 NPrTT=  488567 LenC2=  124783 LenP2D=  258954.
 LDataN:  DoStor=T MaxTD1= 6 Len=  172
 Number of processors reduced to  25 by ecpmxn.
 NBasis=  1402 RedAO= T EigKep=  3.48D-06  NBF=  1402
 NBsUse=  1402 1.00D-06 EigRej= -1.00D+00 NBFU=  1402
 Initial guess from the checkpoint file:  "6u3k_III_Hn.chk"
 B after Tr=    -0.000000    0.000000   -0.000000
         Rot=    1.000000   -0.000000   -0.000000   -0.000000 Ang=   0.00 deg.
 Initial guess <Sx>= 0.0000 <Sy>= 0.0000 <Sz>= 2.5000 <S**2>= 8.7897 S= 2.5066
 Requested convergence on RMS density matrix=1.00D-08 within 999 cycles.
 Requested convergence on MAX density matrix=1.00D-06.
 Requested convergence on             energy=1.00D-06.
 No special actions if energy rises.
 EnCoef did   100 forward-backward iterations
 EnCoef did     5 forward-backward iterations
 EnCoef did    25 forward-backward iterations
 EnCoef did     5 forward-backward iterations
 EnCoef did     8 forward-backward iterations
 EnCoef did     4 forward-backward iterations
 EnCoef did     6 forward-backward iterations
 EnCoef did     2 forward-backward iterations
 EnCoef did     3 forward-backward iterations
 Restarting incremental Fock formation.
 SCF Done:  E(UAPFD) =  -3156.99213303     A.U. after   34 cycles
            NFock= 34  Conv=0.79D-08     -V/T= 2.0028
 <Sx>= 0.0000 <Sy>= 0.0000 <Sz>= 2.5000 <S**2>= 8.7621 S= 2.5020
 <L.S>=  0.00000000000    
 Annihilation of the first spin contaminant:
 S**2 before annihilation     8.7621,   after     8.7500

 **********************************************************************

            Population analysis using the SCF Density.

 **********************************************************************

 Orbital symmetries:
 Alpha Orbitals:
       Occupied  (A) (A) (A) (A) (A) (A) (A) (A) (A) (A) (A) (A)
                 (A) (A) (A) (A) (A) (A) (A) (A) (A) (A) (A) (A)
                 (A) (A) (A) (A) (A) (A) (A) (A) (A) (A) (A) (A)
                 (A) (A) (A) (A) (A) (A) (A) (A) (A) (A) (A) (A)
                 (A) (A) (A) (A) (A) (A) (A) (A) (A) (A) (A) (A)
                 (A) (A) (A) (A) (A) (A) (A) (A) (A) (A) (A) (A)
                 (A) (A) (A) (A) (A) (A) (A) (A) (A) (A) (A) (A)
                 (A) (A) (A) (A) (A) (A) (A) (A) (A) (A) (A) (A)
                 (A) (A) (A) (A) (A) (A) (A) (A) (A) (A) (A) (A)
                 (A) (A) (A) (A) (A) (A) (A) (A) (A) (A) (A) (A)
                 (A) (A) (A) (A) (A) (A) (A) (A) (A) (A) (A) (A)
                 (A) (A) (A) (A) (A) (A) (A) (A) (A) (A) (A) (A)
                 (A) (A) (A) (A) (A) (A) (A)
       Virtual   (A) (A) (A) (A) (A) (A) (A) (A) (A) (A) (A) (A)
                 (A) (A) (A) (A) (A) (A) (A) (A) (A) (A) (A) (A)
                 (A) (A) (A) (A) (A) (A) (A) (A) (A) (A) (A) (A)
                 (A) (A) (A) (A) (A) (A) (A) (A) (A) (A) (A) (A)
                 (A) (A) (A) (A) (A) (A) (A) (A) (A) (A) (A) (A)
                 (A) (A) (A) (A) (A) (A) (A) (A) (A) (A) (A) (A)
                 (A) (A) (A) (A) (A) (A) (A) (A) (A) (A) (A) (A)
                 (A) (A) (A) (A) (A) (A) (A) (A) (A) (A) (A) (A)
                 (A) (A) (A) (A) (A) (A) (A) (A) (A) (A) (A) (A)
                 (A) (A) (A) (A) (A) (A) (A) (A) (A) (A) (A) (A)
                 (A) (A) (A) (A) (A) (A) (A) (A) (A) (A) (A) (A)
                 (A) (A) (A) (A) (A) (A) (A) (A) (A) (A) (A) (A)
                 (A) (A) (A) (A) (A) (A) (A) (A) (A) (A) (A) (A)
                 (A) (A) (A) (A) (A) (A) (A) (A) (A) (A) (A) (A)
                 (A) (A) (A) (A) (A) (A) (A) (A) (A) (A) (A) (A)
                 (A) (A) (A) (A) (A) (A) (A) (A) (A) (A) (A) (A)
                 (A) (A) (A) (A) (A) (A) (A) (A) (A) (A) (A) (A)
                 (A) (A) (A) (A) (A) (A) (A) (A) (A) (A) (A) (A)
                 (A) (A) (A) (A) (A) (A) (A) (A) (A) (A) (A) (A)
                 (A) (A) (A) (A) (A) (A) (A) (A) (A) (A) (A) (A)
                 (A) (A) (A) (A) (A) (A) (A) (A) (A) (A) (A) (A)
                 (A) (A) (A) (A) (A) (A) (A) (A) (A) (A) (A) (A)
                 (A) (A) (A) (A) (A) (A) (A) (A) (A) (A) (A) (A)
                 (A) (A) (A) (A) (A) (A) (A) (A) (A) (A) (A) (A)
                 (A) (A) (A) (A) (A) (A) (A) (A) (A) (A) (A) (A)
                 (A) (A) (A) (A) (A) (A) (A) (A) (A) (A) (A) (A)
                 (A) (A) (A) (A) (A) (A) (A) (A) (A) (A) (A) (A)
                 (A) (A) (A) (A) (A) (A) (A) (A) (A) (A) (A) (A)
                 (A) (A) (A) (A) (A) (A) (A) (A) (A) (A) (A) (A)
                 (A) (A) (A) (A) (A) (A) (A) (A) (A) (A) (A) (A)
                 (A) (A) (A) (A) (A) (A) (A) (A) (A) (A) (A) (A)
                 (A) (A) (A) (A) (A) (A) (A) (A) (A) (A) (A) (A)
                 (A) (A) (A) (A) (A) (A) (A) (A) (A) (A) (A) (A)
                 (A) (A) (A) (A) (A) (A) (A) (A) (A) (A) (A) (A)
                 (A) (A) (A) (A) (A) (A) (A) (A) (A) (A) (A) (A)
                 (A) (A) (A) (A) (A) (A) (A) (A) (A) (A) (A) (A)
                 (A) (A) (A) (A) (A) (A) (A) (A) (A) (A) (A) (A)
                 (A) (A) (A) (A) (A) (A) (A) (A) (A) (A) (A) (A)
                 (A) (A) (A) (A) (A) (A) (A) (A) (A) (A) (A) (A)
                 (A) (A) (A) (A) (A) (A) (A) (A) (A) (A) (A) (A)
                 (A) (A) (A) (A) (A) (A) (A) (A) (A) (A) (A) (A)
                 (A) (A) (A) (A) (A) (A) (A) (A) (A) (A) (A) (A)
                 (A) (A) (A) (A) (A) (A) (A) (A) (A) (A) (A) (A)
                 (A) (A) (A) (A) (A) (A) (A) (A) (A) (A) (A) (A)
                 (A) (A) (A) (A) (A) (A) (A) (A) (A) (A) (A) (A)
                 (A) (A) (A) (A) (A) (A) (A) (A) (A) (A) (A) (A)
                 (A) (A) (A) (A) (A) (A) (A) (A) (A) (A) (A) (A)
                 (A) (A) (A) (A) (A) (A) (A) (A) (A) (A) (A) (A)
                 (A) (A) (A) (A) (A) (A) (A) (A) (A) (A) (A) (A)
                 (A) (A) (A) (A) (A) (A) (A) (A) (A) (A) (A) (A)
                 (A) (A) (A) (A) (A) (A) (A) (A) (A) (A) (A) (A)
                 (A) (A) (A) (A) (A) (A) (A) (A) (A) (A) (A) (A)
                 (A) (A) (A) (A) (A) (A) (A) (A) (A) (A) (A) (A)
                 (A) (A) (A) (A) (A) (A) (A) (A) (A) (A) (A) (A)
                 (A) (A) (A) (A) (A) (A) (A) (A) (A) (A) (A) (A)
                 (A) (A) (A) (A) (A) (A) (A) (A) (A) (A) (A) (A)
                 (A) (A) (A) (A) (A) (A) (A) (A) (A) (A) (A) (A)
                 (A) (A) (A) (A) (A) (A) (A) (A) (A) (A) (A) (A)
                 (A) (A) (A) (A) (A) (A) (A) (A) (A) (A) (A) (A)
                 (A) (A) (A) (A) (A) (A) (A) (A) (A) (A) (A) (A)
                 (A) (A) (A) (A) (A) (A) (A) (A) (A) (A) (A) (A)
                 (A) (A) (A) (A) (A) (A) (A) (A) (A) (A) (A) (A)
                 (A) (A) (A) (A) (A) (A) (A) (A) (A) (A) (A) (A)
                 (A) (A) (A) (A) (A) (A) (A) (A) (A) (A) (A) (A)
                 (A) (A) (A) (A) (A) (A) (A) (A) (A) (A) (A) (A)
                 (A) (A) (A) (A) (A) (A) (A) (A) (A) (A) (A) (A)
                 (A) (A) (A) (A) (A) (A) (A) (A) (A) (A) (A) (A)
                 (A) (A) (A) (A) (A) (A) (A) (A) (A) (A) (A) (A)
                 (A) (A) (A) (A) (A) (A) (A) (A) (A) (A) (A) (A)
                 (A) (A) (A) (A) (A) (A) (A) (A) (A) (A) (A) (A)
                 (A) (A) (A) (A) (A) (A) (A) (A) (A) (A) (A) (A)
                 (A) (A) (A) (A) (A) (A) (A) (A) (A) (A) (A) (A)
                 (A) (A) (A) (A) (A) (A) (A) (A) (A) (A) (A) (A)
                 (A) (A) (A) (A) (A) (A) (A) (A) (A) (A) (A) (A)
                 (A) (A) (A) (A) (A) (A) (A) (A) (A) (A) (A) (A)
                 (A) (A) (A) (A) (A) (A) (A) (A) (A) (A) (A) (A)
                 (A) (A) (A) (A) (A) (A) (A) (A) (A) (A) (A) (A)
                 (A) (A) (A) (A) (A) (A) (A) (A) (A) (A) (A) (A)
                 (A) (A) (A) (A) (A) (A) (A) (A) (A) (A) (A) (A)
                 (A) (A) (A) (A) (A) (A) (A) (A) (A) (A) (A) (A)
                 (A) (A) (A) (A) (A) (A) (A) (A) (A) (A) (A) (A)
                 (A) (A) (A) (A) (A) (A) (A) (A) (A) (A) (A) (A)
                 (A) (A) (A) (A) (A) (A) (A) (A) (A) (A) (A) (A)
                 (A) (A) (A) (A) (A) (A) (A) (A) (A) (A) (A) (A)
                 (A) (A) (A) (A) (A) (A) (A) (A) (A) (A) (A) (A)
                 (A) (A) (A) (A) (A) (A) (A) (A) (A) (A) (A) (A)
                 (A) (A) (A) (A) (A) (A) (A) (A) (A) (A) (A) (A)
                 (A) (A) (A) (A) (A) (A) (A) (A) (A) (A) (A) (A)
                 (A) (A) (A) (A) (A) (A) (A) (A) (A) (A) (A) (A)
                 (A) (A) (A) (A) (A) (A) (A) (A) (A) (A) (A) (A)
                 (A) (A) (A) (A) (A) (A) (A) (A) (A) (A) (A) (A)
                 (A) (A) (A) (A) (A) (A) (A) (A) (A) (A) (A) (A)
                 (A) (A) (A) (A) (A) (A) (A) (A) (A) (A) (A) (A)
                 (A) (A) (A) (A) (A) (A) (A) (A) (A) (A) (A) (A)
                 (A) (A) (A) (A) (A) (A) (A) (A) (A) (A) (A) (A)
                 (A) (A) (A) (A) (A) (A) (A) (A) (A) (A) (A) (A)
                 (A) (A) (A) (A) (A) (A) (A) (A) (A) (A) (A) (A)
                 (A) (A) (A) (A) (A) (A) (A) (A) (A) (A) (A) (A)
                 (A) (A) (A) (A) (A) (A) (A) (A) (A) (A) (A) (A)
                 (A) (A) (A) (A) (A) (A) (A) (A) (A) (A) (A) (A)
                 (A) (A) (A) (A) (A) (A) (A) (A) (A) (A) (A) (A)
                 (A) (A) (A) (A) (A) (A) (A) (A) (A) (A) (A) (A)
                 (A) (A) (A) (A) (A) (A) (A) (A) (A) (A) (A) (A)
                 (A) (A) (A) (A) (A) (A) (A) (A) (A) (A) (A) (A)
                 (A) (A) (A)
 Beta  Orbitals:
       Occupied  (A) (A) (A) (A) (A) (A) (A) (A) (A) (A) (A) (A)
                 (A) (A) (A) (A) (A) (A) (A) (A) (A) (A) (A) (A)
                 (A) (A) (A) (A) (A) (A) (A) (A) (A) (A) (A) (A)
                 (A) (A) (A) (A) (A) (A) (A) (A) (A) (A) (A) (A)
                 (A) (A) (A) (A) (A) (A) (A) (A) (A) (A) (A) (A)
                 (A) (A) (A) (A) (A) (A) (A) (A) (A) (A) (A) (A)
                 (A) (A) (A) (A) (A) (A) (A) (A) (A) (A) (A) (A)
                 (A) (A) (A) (A) (A) (A) (A) (A) (A) (A) (A) (A)
                 (A) (A) (A) (A) (A) (A) (A) (A) (A) (A) (A) (A)
                 (A) (A) (A) (A) (A) (A) (A) (A) (A) (A) (A) (A)
                 (A) (A) (A) (A) (A) (A) (A) (A) (A) (A) (A) (A)
                 (A) (A) (A) (A) (A) (A) (A) (A) (A) (A) (A) (A)
                 (A) (A)
       Virtual   (A) (A) (A) (A) (A) (A) (A) (A) (A) (A) (A) (A)
                 (A) (A) (A) (A) (A) (A) (A) (A) (A) (A) (A) (A)
                 (A) (A) (A) (A) (A) (A) (A) (A) (A) (A) (A) (A)
                 (A) (A) (A) (A) (A) (A) (A) (A) (A) (A) (A) (A)
                 (A) (A) (A) (A) (A) (A) (A) (A) (A) (A) (A) (A)
                 (A) (A) (A) (A) (A) (A) (A) (A) (A) (A) (A) (A)
                 (A) (A) (A) (A) (A) (A) (A) (A) (A) (A) (A) (A)
                 (A) (A) (A) (A) (A) (A) (A) (A) (A) (A) (A) (A)
                 (A) (A) (A) (A) (A) (A) (A) (A) (A) (A) (A) (A)
                 (A) (A) (A) (A) (A) (A) (A) (A) (A) (A) (A) (A)
                 (A) (A) (A) (A) (A) (A) (A) (A) (A) (A) (A) (A)
                 (A) (A) (A) (A) (A) (A) (A) (A) (A) (A) (A) (A)
                 (A) (A) (A) (A) (A) (A) (A) (A) (A) (A) (A) (A)
                 (A) (A) (A) (A) (A) (A) (A) (A) (A) (A) (A) (A)
                 (A) (A) (A) (A) (A) (A) (A) (A) (A) (A) (A) (A)
                 (A) (A) (A) (A) (A) (A) (A) (A) (A) (A) (A) (A)
                 (A) (A) (A) (A) (A) (A) (A) (A) (A) (A) (A) (A)
                 (A) (A) (A) (A) (A) (A) (A) (A) (A) (A) (A) (A)
                 (A) (A) (A) (A) (A) (A) (A) (A) (A) (A) (A) (A)
                 (A) (A) (A) (A) (A) (A) (A) (A) (A) (A) (A) (A)
                 (A) (A) (A) (A) (A) (A) (A) (A) (A) (A) (A) (A)
                 (A) (A) (A) (A) (A) (A) (A) (A) (A) (A) (A) (A)
                 (A) (A) (A) (A) (A) (A) (A) (A) (A) (A) (A) (A)
                 (A) (A) (A) (A) (A) (A) (A) (A) (A) (A) (A) (A)
                 (A) (A) (A) (A) (A) (A) (A) (A) (A) (A) (A) (A)
                 (A) (A) (A) (A) (A) (A) (A) (A) (A) (A) (A) (A)
                 (A) (A) (A) (A) (A) (A) (A) (A) (A) (A) (A) (A)
                 (A) (A) (A) (A) (A) (A) (A) (A) (A) (A) (A) (A)
                 (A) (A) (A) (A) (A) (A) (A) (A) (A) (A) (A) (A)
                 (A) (A) (A) (A) (A) (A) (A) (A) (A) (A) (A) (A)
                 (A) (A) (A) (A) (A) (A) (A) (A) (A) (A) (A) (A)
                 (A) (A) (A) (A) (A) (A) (A) (A) (A) (A) (A) (A)
                 (A) (A) (A) (A) (A) (A) (A) (A) (A) (A) (A) (A)
                 (A) (A) (A) (A) (A) (A) (A) (A) (A) (A) (A) (A)
                 (A) (A) (A) (A) (A) (A) (A) (A) (A) (A) (A) (A)
                 (A) (A) (A) (A) (A) (A) (A) (A) (A) (A) (A) (A)
                 (A) (A) (A) (A) (A) (A) (A) (A) (A) (A) (A) (A)
                 (A) (A) (A) (A) (A) (A) (A) (A) (A) (A) (A) (A)
                 (A) (A) (A) (A) (A) (A) (A) (A) (A) (A) (A) (A)
                 (A) (A) (A) (A) (A) (A) (A) (A) (A) (A) (A) (A)
                 (A) (A) (A) (A) (A) (A) (A) (A) (A) (A) (A) (A)
                 (A) (A) (A) (A) (A) (A) (A) (A) (A) (A) (A) (A)
                 (A) (A) (A) (A) (A) (A) (A) (A) (A) (A) (A) (A)
                 (A) (A) (A) (A) (A) (A) (A) (A) (A) (A) (A) (A)
                 (A) (A) (A) (A) (A) (A) (A) (A) (A) (A) (A) (A)
                 (A) (A) (A) (A) (A) (A) (A) (A) (A) (A) (A) (A)
                 (A) (A) (A) (A) (A) (A) (A) (A) (A) (A) (A) (A)
                 (A) (A) (A) (A) (A) (A) (A) (A) (A) (A) (A) (A)
                 (A) (A) (A) (A) (A) (A) (A) (A) (A) (A) (A) (A)
                 (A) (A) (A) (A) (A) (A) (A) (A) (A) (A) (A) (A)
                 (A) (A) (A) (A) (A) (A) (A) (A) (A) (A) (A) (A)
                 (A) (A) (A) (A) (A) (A) (A) (A) (A) (A) (A) (A)
                 (A) (A) (A) (A) (A) (A) (A) (A) (A) (A) (A) (A)
                 (A) (A) (A) (A) (A) (A) (A) (A) (A) (A) (A) (A)
                 (A) (A) (A) (A) (A) (A) (A) (A) (A) (A) (A) (A)
                 (A) (A) (A) (A) (A) (A) (A) (A) (A) (A) (A) (A)
                 (A) (A) (A) (A) (A) (A) (A) (A) (A) (A) (A) (A)
                 (A) (A) (A) (A) (A) (A) (A) (A) (A) (A) (A) (A)
                 (A) (A) (A) (A) (A) (A) (A) (A) (A) (A) (A) (A)
                 (A) (A) (A) (A) (A) (A) (A) (A) (A) (A) (A) (A)
                 (A) (A) (A) (A) (A) (A) (A) (A) (A) (A) (A) (A)
                 (A) (A) (A) (A) (A) (A) (A) (A) (A) (A) (A) (A)
                 (A) (A) (A) (A) (A) (A) (A) (A) (A) (A) (A) (A)
                 (A) (A) (A) (A) (A) (A) (A) (A) (A) (A) (A) (A)
                 (A) (A) (A) (A) (A) (A) (A) (A) (A) (A) (A) (A)
                 (A) (A) (A) (A) (A) (A) (A) (A) (A) (A) (A) (A)
                 (A) (A) (A) (A) (A) (A) (A) (A) (A) (A) (A) (A)
                 (A) (A) (A) (A) (A) (A) (A) (A) (A) (A) (A) (A)
                 (A) (A) (A) (A) (A) (A) (A) (A) (A) (A) (A) (A)
                 (A) (A) (A) (A) (A) (A) (A) (A) (A) (A) (A) (A)
                 (A) (A) (A) (A) (A) (A) (A) (A) (A) (A) (A) (A)
                 (A) (A) (A) (A) (A) (A) (A) (A) (A) (A) (A) (A)
                 (A) (A) (A) (A) (A) (A) (A) (A) (A) (A) (A) (A)
                 (A) (A) (A) (A) (A) (A) (A) (A) (A) (A) (A) (A)
                 (A) (A) (A) (A) (A) (A) (A) (A) (A) (A) (A) (A)
                 (A) (A) (A) (A) (A) (A) (A) (A) (A) (A) (A) (A)
                 (A) (A) (A) (A) (A) (A) (A) (A) (A) (A) (A) (A)
                 (A) (A) (A) (A) (A) (A) (A) (A) (A) (A) (A) (A)
                 (A) (A) (A) (A) (A) (A) (A) (A) (A) (A) (A) (A)
                 (A) (A) (A) (A) (A) (A) (A) (A) (A) (A) (A) (A)
                 (A) (A) (A) (A) (A) (A) (A) (A) (A) (A) (A) (A)
                 (A) (A) (A) (A) (A) (A) (A) (A) (A) (A) (A) (A)
                 (A) (A) (A) (A) (A) (A) (A) (A) (A) (A) (A) (A)
                 (A) (A) (A) (A) (A) (A) (A) (A) (A) (A) (A) (A)
                 (A) (A) (A) (A) (A) (A) (A) (A) (A) (A) (A) (A)
                 (A) (A) (A) (A) (A) (A) (A) (A) (A) (A) (A) (A)
                 (A) (A) (A) (A) (A) (A) (A) (A) (A) (A) (A) (A)
                 (A) (A) (A) (A) (A) (A) (A) (A) (A) (A) (A) (A)
                 (A) (A) (A) (A) (A) (A) (A) (A) (A) (A) (A) (A)
                 (A) (A) (A) (A) (A) (A) (A) (A) (A) (A) (A) (A)
                 (A) (A) (A) (A) (A) (A) (A) (A) (A) (A) (A) (A)
                 (A) (A) (A) (A) (A) (A) (A) (A) (A) (A) (A) (A)
                 (A) (A) (A) (A) (A) (A) (A) (A) (A) (A) (A) (A)
                 (A) (A) (A) (A) (A) (A) (A) (A) (A) (A) (A) (A)
                 (A) (A) (A) (A) (A) (A) (A) (A) (A) (A) (A) (A)
                 (A) (A) (A) (A) (A) (A) (A) (A) (A) (A) (A) (A)
                 (A) (A) (A) (A) (A) (A) (A) (A) (A) (A) (A) (A)
                 (A) (A) (A) (A) (A) (A) (A) (A) (A) (A) (A) (A)
                 (A) (A) (A) (A) (A) (A) (A) (A) (A) (A) (A) (A)
                 (A) (A) (A) (A) (A) (A) (A) (A) (A) (A) (A) (A)
                 (A) (A) (A) (A) (A) (A) (A) (A) (A) (A) (A) (A)
                 (A) (A) (A) (A) (A) (A) (A) (A) (A) (A) (A) (A)
                 (A) (A) (A) (A) (A) (A) (A) (A) (A) (A) (A) (A)
                 (A) (A) (A) (A) (A) (A) (A) (A) (A) (A) (A) (A)
                 (A) (A) (A) (A) (A) (A) (A) (A)
 The electronic state is 6-A.
 Alpha  occ. eigenvalues -- -256.43311 -89.08689 -30.34065 -26.17118 -26.16994
 Alpha  occ. eigenvalues --  -26.16947 -19.29596 -14.46291 -14.45993 -14.45962
 Alpha  occ. eigenvalues --  -14.45927 -10.33877 -10.33783 -10.33756 -10.33678
 Alpha  occ. eigenvalues --  -10.33629 -10.33595 -10.33541 -10.33517 -10.33478
 Alpha  occ. eigenvalues --  -10.30947 -10.30743 -10.30672 -10.30667 -10.30633
 Alpha  occ. eigenvalues --  -10.30585 -10.30539 -10.30510 -10.30434 -10.30387
 Alpha  occ. eigenvalues --  -10.30333 -10.30310 -10.29655 -10.29330 -10.28681
 Alpha  occ. eigenvalues --  -10.28611 -10.28544 -10.28477 -10.28414 -10.28346
 Alpha  occ. eigenvalues --  -10.28344 -10.28086  -8.11669  -6.06177  -6.05936
 Alpha  occ. eigenvalues --   -6.05549  -3.79310  -2.56019  -2.55855  -2.55777
 Alpha  occ. eigenvalues --   -1.17749  -1.10199  -1.09213  -1.09093  -1.08165
 Alpha  occ. eigenvalues --   -0.94592  -0.93539  -0.92999  -0.92912  -0.92430
 Alpha  occ. eigenvalues --   -0.92124  -0.91754  -0.91691  -0.87688  -0.86472
 Alpha  occ. eigenvalues --   -0.86257  -0.85208  -0.83762  -0.82185  -0.81215
 Alpha  occ. eigenvalues --   -0.79560  -0.79335  -0.79127  -0.78757  -0.76152
 Alpha  occ. eigenvalues --   -0.76123  -0.73336  -0.71739  -0.71006  -0.69947
 Alpha  occ. eigenvalues --   -0.69451  -0.66191  -0.65578  -0.65031  -0.64773
 Alpha  occ. eigenvalues --   -0.63049  -0.63012  -0.62960  -0.62501  -0.60382
 Alpha  occ. eigenvalues --   -0.59574  -0.59459  -0.59133  -0.58380  -0.57644
 Alpha  occ. eigenvalues --   -0.57395  -0.56917  -0.56417  -0.55917  -0.55713
 Alpha  occ. eigenvalues --   -0.54902  -0.54801  -0.54649  -0.54550  -0.54405
 Alpha  occ. eigenvalues --   -0.54102  -0.53946  -0.53343  -0.53258  -0.52682
 Alpha  occ. eigenvalues --   -0.52454  -0.52089  -0.51462  -0.51281  -0.51206
 Alpha  occ. eigenvalues --   -0.51086  -0.50952  -0.50619  -0.50429  -0.50120
 Alpha  occ. eigenvalues --   -0.49938  -0.49848  -0.49483  -0.49113  -0.48995
 Alpha  occ. eigenvalues --   -0.48523  -0.47993  -0.47724  -0.47528  -0.46745
 Alpha  occ. eigenvalues --   -0.46437  -0.46281  -0.45726  -0.45300  -0.44593
 Alpha  occ. eigenvalues --   -0.44372  -0.43854  -0.43332  -0.43016  -0.40825
 Alpha  occ. eigenvalues --   -0.40321  -0.38764  -0.38541  -0.37568  -0.34923
 Alpha  occ. eigenvalues --   -0.34766  -0.34115  -0.33663  -0.33025  -0.30769
 Alpha  occ. eigenvalues --   -0.29967
 Alpha virt. eigenvalues --   -0.18956  -0.18911  -0.13129  -0.10876  -0.09851
 Alpha virt. eigenvalues --   -0.08641  -0.08070  -0.06716  -0.06559  -0.04913
 Alpha virt. eigenvalues --   -0.04491  -0.03810  -0.03376  -0.03277  -0.03047
 Alpha virt. eigenvalues --   -0.02243  -0.01779  -0.01164  -0.01011  -0.00607
 Alpha virt. eigenvalues --   -0.00257   0.00044   0.00604   0.00965   0.01151
 Alpha virt. eigenvalues --    0.01444   0.01848   0.01949   0.02321   0.02366
 Alpha virt. eigenvalues --    0.02435   0.02852   0.03013   0.03170   0.03621
 Alpha virt. eigenvalues --    0.03816   0.03918   0.04168   0.04443   0.04535
 Alpha virt. eigenvalues --    0.04953   0.05135   0.05247   0.06009   0.06064
 Alpha virt. eigenvalues --    0.06437   0.06565   0.06852   0.06904   0.06998
 Alpha virt. eigenvalues --    0.07150   0.07360   0.07801   0.08072   0.08319
 Alpha virt. eigenvalues --    0.08363   0.08688   0.09112   0.09422   0.09792
 Alpha virt. eigenvalues --    0.09987   0.10354   0.10388   0.10659   0.10865
 Alpha virt. eigenvalues --    0.11066   0.11585   0.11799   0.11933   0.12313
 Alpha virt. eigenvalues --    0.12435   0.12820   0.12896   0.13261   0.13732
 Alpha virt. eigenvalues --    0.13833   0.14223   0.14693   0.15114   0.15321
 Alpha virt. eigenvalues --    0.15804   0.15918   0.16298   0.16493   0.16552
 Alpha virt. eigenvalues --    0.16818   0.16990   0.17429   0.17611   0.17977
 Alpha virt. eigenvalues --    0.18520   0.18781   0.18892   0.19500   0.19817
 Alpha virt. eigenvalues --    0.20013   0.20162   0.20281   0.20440   0.20767
 Alpha virt. eigenvalues --    0.20847   0.21045   0.21725   0.21909   0.22089
 Alpha virt. eigenvalues --    0.22388   0.22542   0.23005   0.23265   0.23680
 Alpha virt. eigenvalues --    0.24046   0.24330   0.24863   0.24961   0.25297
 Alpha virt. eigenvalues --    0.25392   0.25888   0.26511   0.26886   0.27128
 Alpha virt. eigenvalues --    0.27429   0.27675   0.28101   0.28344   0.28444
 Alpha virt. eigenvalues --    0.28675   0.28959   0.29001   0.29442   0.29472
 Alpha virt. eigenvalues --    0.29735   0.29894   0.30103   0.30512   0.30696
 Alpha virt. eigenvalues --    0.31025   0.31326   0.31500   0.32003   0.32025
 Alpha virt. eigenvalues --    0.32184   0.32444   0.32802   0.33131   0.33343
 Alpha virt. eigenvalues --    0.33556   0.33879   0.34070   0.34330   0.34705
 Alpha virt. eigenvalues --    0.35186   0.35283   0.35574   0.35701   0.36011
 Alpha virt. eigenvalues --    0.36111   0.36716   0.36917   0.37045   0.37238
 Alpha virt. eigenvalues --    0.37417   0.37621   0.37912   0.38213   0.38388
 Alpha virt. eigenvalues --    0.38679   0.38856   0.38980   0.39602   0.39796
 Alpha virt. eigenvalues --    0.40131   0.40205   0.40525   0.40599   0.41107
 Alpha virt. eigenvalues --    0.41129   0.41428   0.41578   0.41816   0.42076
 Alpha virt. eigenvalues --    0.42279   0.42383   0.42588   0.42874   0.43273
 Alpha virt. eigenvalues --    0.43443   0.43628   0.43870   0.44141   0.44412
 Alpha virt. eigenvalues --    0.44787   0.45058   0.45097   0.45494   0.45800
 Alpha virt. eigenvalues --    0.46168   0.46225   0.46424   0.46924   0.47182
 Alpha virt. eigenvalues --    0.47591   0.47630   0.47937   0.48187   0.48643
 Alpha virt. eigenvalues --    0.48838   0.49105   0.49670   0.50161   0.50225
 Alpha virt. eigenvalues --    0.50745   0.51026   0.51336   0.52302   0.52448
 Alpha virt. eigenvalues --    0.52744   0.52894   0.53014   0.53203   0.53495
 Alpha virt. eigenvalues --    0.53582   0.53748   0.54374   0.54613   0.55095
 Alpha virt. eigenvalues --    0.55275   0.55658   0.55781   0.56099   0.56449
 Alpha virt. eigenvalues --    0.56772   0.57172   0.57503   0.57739   0.58148
 Alpha virt. eigenvalues --    0.58420   0.58937   0.59090   0.59530   0.59692
 Alpha virt. eigenvalues --    0.60311   0.60562   0.60835   0.61021   0.61697
 Alpha virt. eigenvalues --    0.61785   0.62302   0.62376   0.62827   0.62923
 Alpha virt. eigenvalues --    0.63224   0.63682   0.63762   0.64509   0.64915
 Alpha virt. eigenvalues --    0.65236   0.65626   0.65656   0.65897   0.66463
 Alpha virt. eigenvalues --    0.66833   0.67353   0.67658   0.67844   0.68489
 Alpha virt. eigenvalues --    0.68595   0.69029   0.69162   0.69564   0.70135
 Alpha virt. eigenvalues --    0.70657   0.70685   0.71372   0.71868   0.72308
 Alpha virt. eigenvalues --    0.72468   0.73163   0.73475   0.74021   0.74610
 Alpha virt. eigenvalues --    0.75304   0.75551   0.75949   0.76356   0.76606
 Alpha virt. eigenvalues --    0.77388   0.77555   0.78002   0.78544   0.78998
 Alpha virt. eigenvalues --    0.79123   0.79455   0.80311   0.80523   0.80890
 Alpha virt. eigenvalues --    0.81587   0.81713   0.82060   0.82254   0.82745
 Alpha virt. eigenvalues --    0.83563   0.84050   0.84250   0.84800   0.85078
 Alpha virt. eigenvalues --    0.85156   0.85508   0.86022   0.86381   0.86853
 Alpha virt. eigenvalues --    0.87112   0.87998   0.88123   0.88362   0.88603
 Alpha virt. eigenvalues --    0.89235   0.89236   0.90045   0.90082   0.90293
 Alpha virt. eigenvalues --    0.90474   0.91039   0.91350   0.91557   0.91625
 Alpha virt. eigenvalues --    0.92127   0.92453   0.92918   0.93038   0.93252
 Alpha virt. eigenvalues --    0.93648   0.93681   0.94557   0.94870   0.95328
 Alpha virt. eigenvalues --    0.95466   0.96027   0.96259   0.96811   0.97091
 Alpha virt. eigenvalues --    0.97542   0.98392   0.98698   0.99352   0.99598
 Alpha virt. eigenvalues --    0.99868   1.00469   1.01401   1.01685   1.02777
 Alpha virt. eigenvalues --    1.03169   1.03788   1.04414   1.04729   1.05101
 Alpha virt. eigenvalues --    1.05803   1.06478   1.06717   1.06893   1.07288
 Alpha virt. eigenvalues --    1.07900   1.08042   1.08456   1.09247   1.09694
 Alpha virt. eigenvalues --    1.09852   1.10380   1.10496   1.10890   1.10986
 Alpha virt. eigenvalues --    1.12103   1.12503   1.12798   1.13271   1.13966
 Alpha virt. eigenvalues --    1.14596   1.15124   1.15241   1.15730   1.15880
 Alpha virt. eigenvalues --    1.16326   1.16656   1.16867   1.17053   1.17354
 Alpha virt. eigenvalues --    1.18221   1.18409   1.18991   1.19148   1.19667
 Alpha virt. eigenvalues --    1.20244   1.20695   1.21339   1.21661   1.21973
 Alpha virt. eigenvalues --    1.24195   1.24944   1.25410   1.25544   1.26254
 Alpha virt. eigenvalues --    1.26649   1.27214   1.27886   1.28826   1.28932
 Alpha virt. eigenvalues --    1.29956   1.30095   1.30838   1.31507   1.32377
 Alpha virt. eigenvalues --    1.32758   1.33211   1.33542   1.34255   1.34552
 Alpha virt. eigenvalues --    1.35025   1.35532   1.35810   1.36162   1.36285
 Alpha virt. eigenvalues --    1.36904   1.37378   1.37617   1.38230   1.38451
 Alpha virt. eigenvalues --    1.38930   1.39153   1.39478   1.39802   1.40416
 Alpha virt. eigenvalues --    1.40685   1.40910   1.41021   1.41560   1.41914
 Alpha virt. eigenvalues --    1.42160   1.42577   1.43130   1.43425   1.44067
 Alpha virt. eigenvalues --    1.44107   1.44364   1.45075   1.45172   1.45261
 Alpha virt. eigenvalues --    1.45763   1.45901   1.46342   1.46412   1.46589
 Alpha virt. eigenvalues --    1.46827   1.47010   1.47289   1.47524   1.47795
 Alpha virt. eigenvalues --    1.48366   1.48485   1.48826   1.49371   1.49641
 Alpha virt. eigenvalues --    1.50001   1.50225   1.50556   1.50753   1.50792
 Alpha virt. eigenvalues --    1.51589   1.51831   1.52117   1.52216   1.53004
 Alpha virt. eigenvalues --    1.53343   1.53721   1.53868   1.53909   1.54325
 Alpha virt. eigenvalues --    1.55157   1.55304   1.55399   1.55739   1.56263
 Alpha virt. eigenvalues --    1.56298   1.57020   1.57200   1.57976   1.58003
 Alpha virt. eigenvalues --    1.58443   1.58645   1.58898   1.59408   1.59539
 Alpha virt. eigenvalues --    1.59693   1.60091   1.60729   1.61034   1.61369
 Alpha virt. eigenvalues --    1.61417   1.62193   1.62452   1.62686   1.63043
 Alpha virt. eigenvalues --    1.63398   1.63788   1.64203   1.65197   1.65827
 Alpha virt. eigenvalues --    1.66034   1.67209   1.67463   1.67970   1.68735
 Alpha virt. eigenvalues --    1.69278   1.70024   1.70249   1.70817   1.71362
 Alpha virt. eigenvalues --    1.72217   1.72586   1.72764   1.73718   1.74130
 Alpha virt. eigenvalues --    1.74531   1.74632   1.75538   1.75695   1.76079
 Alpha virt. eigenvalues --    1.76459   1.76548   1.77282   1.77404   1.77661
 Alpha virt. eigenvalues --    1.78125   1.78585   1.79130   1.79642   1.80557
 Alpha virt. eigenvalues --    1.80651   1.80703   1.81282   1.82230   1.82294
 Alpha virt. eigenvalues --    1.82896   1.83647   1.85067   1.85253   1.85688
 Alpha virt. eigenvalues --    1.86252   1.86987   1.87371   1.87805   1.88211
 Alpha virt. eigenvalues --    1.88634   1.88702   1.89451   1.89902   1.90069
 Alpha virt. eigenvalues --    1.90247   1.90471   1.91028   1.91605   1.91745
 Alpha virt. eigenvalues --    1.92902   1.93131   1.94046   1.94586   1.95016
 Alpha virt. eigenvalues --    1.95518   1.95976   1.96738   1.97537   1.97957
 Alpha virt. eigenvalues --    1.98372   1.98857   1.99007   1.99810   2.00195
 Alpha virt. eigenvalues --    2.00638   2.01293   2.01462   2.02010   2.02543
 Alpha virt. eigenvalues --    2.02857   2.03029   2.03556   2.04237   2.04421
 Alpha virt. eigenvalues --    2.04918   2.05718   2.06349   2.07069   2.07745
 Alpha virt. eigenvalues --    2.08125   2.08754   2.08919   2.09154   2.09871
 Alpha virt. eigenvalues --    2.10375   2.11070   2.12165   2.12596   2.13315
 Alpha virt. eigenvalues --    2.13595   2.14387   2.14590   2.14850   2.14910
 Alpha virt. eigenvalues --    2.15643   2.16267   2.16761   2.17223   2.17446
 Alpha virt. eigenvalues --    2.18117   2.18185   2.18342   2.19119   2.19473
 Alpha virt. eigenvalues --    2.20055   2.20964   2.21398   2.22036   2.22447
 Alpha virt. eigenvalues --    2.22866   2.23733   2.24423   2.24811   2.25222
 Alpha virt. eigenvalues --    2.25575   2.25743   2.26361   2.26905   2.27187
 Alpha virt. eigenvalues --    2.27369   2.27755   2.28042   2.28524   2.28728
 Alpha virt. eigenvalues --    2.28847   2.29299   2.29814   2.30295   2.31398
 Alpha virt. eigenvalues --    2.31865   2.32058   2.32466   2.32945   2.33901
 Alpha virt. eigenvalues --    2.34080   2.34198   2.34340   2.35055   2.35620
 Alpha virt. eigenvalues --    2.35908   2.36423   2.36725   2.36999   2.37417
 Alpha virt. eigenvalues --    2.37972   2.38854   2.39569   2.40204   2.41631
 Alpha virt. eigenvalues --    2.42082   2.42705   2.42877   2.43205   2.43567
 Alpha virt. eigenvalues --    2.43605   2.43962   2.44508   2.45086   2.45726
 Alpha virt. eigenvalues --    2.45886   2.46569   2.46718   2.46838   2.47159
 Alpha virt. eigenvalues --    2.47600   2.47880   2.48395   2.48599   2.49430
 Alpha virt. eigenvalues --    2.49675   2.50122   2.50546   2.50727   2.50843
 Alpha virt. eigenvalues --    2.51637   2.51893   2.52225   2.52610   2.53205
 Alpha virt. eigenvalues --    2.53741   2.54265   2.54492   2.54918   2.55130
 Alpha virt. eigenvalues --    2.55812   2.56017   2.56632   2.56981   2.57236
 Alpha virt. eigenvalues --    2.57654   2.58324   2.58832   2.58958   2.59342
 Alpha virt. eigenvalues --    2.59610   2.60019   2.60578   2.60794   2.61427
 Alpha virt. eigenvalues --    2.61886   2.62433   2.63042   2.63482   2.63695
 Alpha virt. eigenvalues --    2.64267   2.64636   2.65093   2.65360   2.65958
 Alpha virt. eigenvalues --    2.66235   2.67149   2.67299   2.67694   2.68133
 Alpha virt. eigenvalues --    2.68568   2.69106   2.70037   2.70654   2.71027
 Alpha virt. eigenvalues --    2.71291   2.72038   2.72199   2.72567   2.72627
 Alpha virt. eigenvalues --    2.73258   2.73936   2.74477   2.74703   2.75184
 Alpha virt. eigenvalues --    2.75266   2.75920   2.76568   2.76816   2.77063
 Alpha virt. eigenvalues --    2.77434   2.78246   2.78525   2.79155   2.79476
 Alpha virt. eigenvalues --    2.79656   2.80303   2.80428   2.80716   2.80988
 Alpha virt. eigenvalues --    2.81724   2.82029   2.82842   2.83795   2.84187
 Alpha virt. eigenvalues --    2.84397   2.84502   2.85368   2.85584   2.86091
 Alpha virt. eigenvalues --    2.86607   2.86947   2.87584   2.88086   2.88239
 Alpha virt. eigenvalues --    2.88579   2.89216   2.89381   2.89884   2.90671
 Alpha virt. eigenvalues --    2.91021   2.91215   2.92356   2.92574   2.92812
 Alpha virt. eigenvalues --    2.93378   2.93758   2.94637   2.94963   2.95281
 Alpha virt. eigenvalues --    2.95660   2.95930   2.96114   2.96772   2.96972
 Alpha virt. eigenvalues --    2.97343   2.97980   2.98595   2.98652   2.99337
 Alpha virt. eigenvalues --    2.99762   3.00069   3.00145   3.00347   3.01017
 Alpha virt. eigenvalues --    3.01536   3.01972   3.02349   3.02526   3.02970
 Alpha virt. eigenvalues --    3.03159   3.03364   3.03667   3.04325   3.04870
 Alpha virt. eigenvalues --    3.05519   3.06108   3.06415   3.06479   3.06745
 Alpha virt. eigenvalues --    3.06928   3.07330   3.07975   3.08391   3.08597
 Alpha virt. eigenvalues --    3.09022   3.09263   3.09699   3.09844   3.10041
 Alpha virt. eigenvalues --    3.10303   3.10776   3.11651   3.11788   3.11940
 Alpha virt. eigenvalues --    3.12511   3.12746   3.13119   3.13444   3.13555
 Alpha virt. eigenvalues --    3.14301   3.14536   3.14919   3.15021   3.15204
 Alpha virt. eigenvalues --    3.15778   3.15970   3.16221   3.16839   3.17054
 Alpha virt. eigenvalues --    3.17346   3.17658   3.18027   3.18163   3.18474
 Alpha virt. eigenvalues --    3.18764   3.19226   3.19330   3.19936   3.20050
 Alpha virt. eigenvalues --    3.20437   3.20946   3.21172   3.21653   3.21716
 Alpha virt. eigenvalues --    3.22240   3.22656   3.22757   3.23128   3.23594
 Alpha virt. eigenvalues --    3.23757   3.24037   3.24216   3.24309   3.24834
 Alpha virt. eigenvalues --    3.25304   3.25681   3.25865   3.26003   3.26452
 Alpha virt. eigenvalues --    3.26685   3.26936   3.27317   3.27376   3.27894
 Alpha virt. eigenvalues --    3.28043   3.28423   3.28584   3.29051   3.29595
 Alpha virt. eigenvalues --    3.29974   3.30043   3.30689   3.30962   3.31375
 Alpha virt. eigenvalues --    3.31870   3.32398   3.32590   3.32948   3.33252
 Alpha virt. eigenvalues --    3.33576   3.33831   3.34614   3.34631   3.34778
 Alpha virt. eigenvalues --    3.35407   3.35785   3.36120   3.37030   3.37431
 Alpha virt. eigenvalues --    3.38036   3.38509   3.38910   3.39213   3.39678
 Alpha virt. eigenvalues --    3.40221   3.41536   3.41817   3.42626   3.43279
 Alpha virt. eigenvalues --    3.43440   3.43873   3.44482   3.45253   3.46349
 Alpha virt. eigenvalues --    3.46471   3.46728   3.47036   3.47097   3.47813
 Alpha virt. eigenvalues --    3.48702   3.49310   3.49397   3.49790   3.50103
 Alpha virt. eigenvalues --    3.50795   3.51234   3.51802   3.52493   3.52714
 Alpha virt. eigenvalues --    3.53467   3.54159   3.54582   3.55223   3.55919
 Alpha virt. eigenvalues --    3.56190   3.57104   3.57126   3.57668   3.58357
 Alpha virt. eigenvalues --    3.59245   3.59513   3.59699   3.60165   3.60985
 Alpha virt. eigenvalues --    3.61350   3.61439   3.61967   3.62299   3.62734
 Alpha virt. eigenvalues --    3.62932   3.63613   3.63833   3.64394   3.64800
 Alpha virt. eigenvalues --    3.65640   3.65783   3.66261   3.66319   3.67363
 Alpha virt. eigenvalues --    3.68174   3.68546   3.69217   3.69671   3.70690
 Alpha virt. eigenvalues --    3.71725   3.72306   3.72648   3.73203   3.73656
 Alpha virt. eigenvalues --    3.74226   3.74647   3.75176   3.75703   3.76596
 Alpha virt. eigenvalues --    3.77288   3.77788   3.78354   3.79287   3.80049
 Alpha virt. eigenvalues --    3.80323   3.80568   3.81864   3.82245   3.82986
 Alpha virt. eigenvalues --    3.83965   3.84711   3.85647   3.85833   3.86626
 Alpha virt. eigenvalues --    3.87190   3.87451   3.87560   3.88129   3.88505
 Alpha virt. eigenvalues --    3.89623   3.90059   3.90497   3.90918   3.92161
 Alpha virt. eigenvalues --    3.92431   3.93196   3.93902   3.95186   3.95548
 Alpha virt. eigenvalues --    3.95976   3.96580   3.97355   3.97813   3.98370
 Alpha virt. eigenvalues --    3.98998   3.99486   4.00328   4.02100   4.02507
 Alpha virt. eigenvalues --    4.02572   4.03061   4.04153   4.04603   4.04753
 Alpha virt. eigenvalues --    4.05340   4.05825   4.06438   4.07685   4.07812
 Alpha virt. eigenvalues --    4.08104   4.08231   4.09703   4.09967   4.10577
 Alpha virt. eigenvalues --    4.11324   4.11451   4.11825   4.12157   4.13363
 Alpha virt. eigenvalues --    4.13692   4.14785   4.16586   4.17191   4.18203
 Alpha virt. eigenvalues --    4.18573   4.18704   4.19606   4.20612   4.20997
 Alpha virt. eigenvalues --    4.21450   4.21667   4.22316   4.22894   4.23470
 Alpha virt. eigenvalues --    4.24664   4.24971   4.25431   4.26307   4.27169
 Alpha virt. eigenvalues --    4.28008   4.28993   4.30127   4.30185   4.30647
 Alpha virt. eigenvalues --    4.30727   4.31659   4.32101   4.32779   4.33439
 Alpha virt. eigenvalues --    4.34308   4.34764   4.35107   4.35747   4.37236
 Alpha virt. eigenvalues --    4.37577   4.38831   4.39754   4.40497   4.41163
 Alpha virt. eigenvalues --    4.42032   4.42460   4.43477   4.44104   4.44472
 Alpha virt. eigenvalues --    4.45630   4.46297   4.47152   4.47967   4.50995
 Alpha virt. eigenvalues --    4.51531   4.52193   4.53548   4.54204   4.55958
 Alpha virt. eigenvalues --    4.56786   4.57304   4.57539   4.58143   4.59719
 Alpha virt. eigenvalues --    4.60479   4.62314   4.63256   4.63866   4.64974
 Alpha virt. eigenvalues --    4.66352   4.67490   4.68133   4.69110   4.70952
 Alpha virt. eigenvalues --    4.71775   4.72452   4.72493   4.73285   4.73745
 Alpha virt. eigenvalues --    4.73925   4.75436   4.75483   4.77404   4.78045
 Alpha virt. eigenvalues --    4.79168   4.80774   4.82012   4.82305   4.83110
 Alpha virt. eigenvalues --    4.84018   4.85084   4.87112   4.88286   4.89375
 Alpha virt. eigenvalues --    4.89892   4.91144   4.91955   4.92163   4.92593
 Alpha virt. eigenvalues --    4.93715   4.95280   4.96137   4.97450   4.98180
 Alpha virt. eigenvalues --    5.01320   5.01711   5.03211   5.04621   5.05737
 Alpha virt. eigenvalues --    5.07545   5.07849   5.08988   5.10277   5.10882
 Alpha virt. eigenvalues --    5.11385   5.12806   5.13638   5.14158   5.15333
 Alpha virt. eigenvalues --    5.17930   5.22956   5.23932   5.24732   5.25652
 Alpha virt. eigenvalues --    5.25813   5.26493   5.26899   5.27900   5.28283
 Alpha virt. eigenvalues --    5.30429   5.35179   5.35546   5.37511   5.38195
 Alpha virt. eigenvalues --    5.38764   5.39268   5.40503   5.42459   5.46717
 Alpha virt. eigenvalues --    5.48472   5.49331   5.49639   5.50916   5.52332
 Alpha virt. eigenvalues --    5.54739   5.55217   5.56220   5.58856   5.63062
 Alpha virt. eigenvalues --    5.63629   5.65697   5.66345   5.74242   5.76543
 Alpha virt. eigenvalues --    5.77063   5.78955   5.87890   5.88105   5.89486
 Alpha virt. eigenvalues --    5.97034   5.97858   5.98873   6.00086   6.05778
 Alpha virt. eigenvalues --    6.11491   6.12706   6.21183   6.21555   6.28605
 Alpha virt. eigenvalues --    6.34214   6.40128   6.40809   6.51010   6.83555
 Alpha virt. eigenvalues --    7.16292   8.94873   9.11297   9.27995  19.48523
 Alpha virt. eigenvalues --   22.21999  22.25707  22.26224  22.36177  22.36919
 Alpha virt. eigenvalues --   22.42830  22.43844  22.52508  22.52610  22.73194
 Alpha virt. eigenvalues --   22.76654  22.80390  22.82427  22.82621  22.84171
 Alpha virt. eigenvalues --   22.85131  22.91965  22.92340  23.02594  23.15557
 Alpha virt. eigenvalues --   23.18997  23.19818  23.28353  23.30215  23.38833
 Alpha virt. eigenvalues --   23.39243  23.43631  23.62496  23.67194  23.67858
 Alpha virt. eigenvalues --   23.76534  32.74398  32.79119  32.80700  32.92282
 Alpha virt. eigenvalues --   43.81829
  Beta  occ. eigenvalues -- -256.43159 -89.08573 -30.24549 -26.09219 -26.09011
  Beta  occ. eigenvalues --  -26.08980 -19.29436 -14.45990 -14.45663 -14.45637
  Beta  occ. eigenvalues --  -14.45615 -10.33864 -10.33767 -10.33758 -10.33651
  Beta  occ. eigenvalues --  -10.33604 -10.33571 -10.33526 -10.33492 -10.33464
  Beta  occ. eigenvalues --  -10.30914 -10.30698 -10.30662 -10.30636 -10.30592
  Beta  occ. eigenvalues --  -10.30580 -10.30505 -10.30469 -10.30394 -10.30393
  Beta  occ. eigenvalues --  -10.30317 -10.30301 -10.29662 -10.29337 -10.28681
  Beta  occ. eigenvalues --  -10.28610 -10.28543 -10.28477 -10.28414 -10.28344
  Beta  occ. eigenvalues --  -10.28330 -10.28069  -8.11551  -6.06097  -6.05802
  Beta  occ. eigenvalues --   -6.05278  -3.56891  -2.32373  -2.31738  -2.31723
  Beta  occ. eigenvalues --   -1.17474  -1.09802  -1.08823  -1.08699  -1.07745
  Beta  occ. eigenvalues --   -0.94529  -0.93303  -0.92797  -0.92601  -0.92212
  Beta  occ. eigenvalues --   -0.91930  -0.91638  -0.91553  -0.87623  -0.86395
  Beta  occ. eigenvalues --   -0.86193  -0.85142  -0.83725  -0.82082  -0.81076
  Beta  occ. eigenvalues --   -0.79412  -0.79191  -0.78899  -0.78442  -0.76056
  Beta  occ. eigenvalues --   -0.76031  -0.73141  -0.71562  -0.70842  -0.69797
  Beta  occ. eigenvalues --   -0.69032  -0.66050  -0.65338  -0.64523  -0.64355
  Beta  occ. eigenvalues --   -0.62798  -0.62754  -0.62308  -0.60196  -0.59333
  Beta  occ. eigenvalues --   -0.59075  -0.58709  -0.57481  -0.56918  -0.55938
  Beta  occ. eigenvalues --   -0.55618  -0.55195  -0.54906  -0.54586  -0.54362
  Beta  occ. eigenvalues --   -0.54194  -0.54078  -0.53656  -0.53393  -0.53138
  Beta  occ. eigenvalues --   -0.52894  -0.52194  -0.51438  -0.51394  -0.51201
  Beta  occ. eigenvalues --   -0.51125  -0.50993  -0.50836  -0.50608  -0.50526
  Beta  occ. eigenvalues --   -0.50122  -0.50011  -0.49403  -0.49123  -0.48948
  Beta  occ. eigenvalues --   -0.48614  -0.48400  -0.48246  -0.47940  -0.47476
  Beta  occ. eigenvalues --   -0.47042  -0.46809  -0.46372  -0.45712  -0.45107
  Beta  occ. eigenvalues --   -0.44463  -0.44087  -0.43528  -0.43061  -0.42523
  Beta  occ. eigenvalues --   -0.41443  -0.40660  -0.40159  -0.38566  -0.38513
  Beta  occ. eigenvalues --   -0.35289  -0.34919  -0.33769  -0.33240  -0.30820
  Beta  occ. eigenvalues --   -0.29857
  Beta virt. eigenvalues --   -0.22529  -0.22339  -0.20677  -0.17772  -0.17726
  Beta virt. eigenvalues --   -0.17032  -0.13046  -0.12447  -0.10308  -0.09661
  Beta virt. eigenvalues --   -0.08397  -0.07791  -0.06356  -0.06197  -0.04848
  Beta virt. eigenvalues --   -0.04421  -0.03414  -0.03191  -0.03127  -0.02820
  Beta virt. eigenvalues --   -0.02157  -0.01631  -0.01055  -0.00935  -0.00525
  Beta virt. eigenvalues --   -0.00164   0.00225   0.00736   0.01016   0.01321
  Beta virt. eigenvalues --    0.01518   0.01918   0.02045   0.02406   0.02538
  Beta virt. eigenvalues --    0.02648   0.02962   0.03133   0.03250   0.03728
  Beta virt. eigenvalues --    0.03859   0.03974   0.04388   0.04520   0.04601
  Beta virt. eigenvalues --    0.05020   0.05197   0.05333   0.06081   0.06255
  Beta virt. eigenvalues --    0.06528   0.06873   0.06900   0.07040   0.07178
  Beta virt. eigenvalues --    0.07376   0.07687   0.07960   0.08193   0.08475
  Beta virt. eigenvalues --    0.08560   0.08837   0.09183   0.09661   0.09849
  Beta virt. eigenvalues --    0.10132   0.10441   0.10646   0.10818   0.10984
  Beta virt. eigenvalues --    0.11178   0.11737   0.11905   0.12100   0.12457
  Beta virt. eigenvalues --    0.12534   0.12998   0.13028   0.13412   0.14000
  Beta virt. eigenvalues --    0.14180   0.14667   0.15059   0.15436   0.15602
  Beta virt. eigenvalues --    0.15983   0.16032   0.16579   0.16790   0.16887
  Beta virt. eigenvalues --    0.16973   0.17280   0.17799   0.17943   0.18235
  Beta virt. eigenvalues --    0.18752   0.18971   0.19130   0.19777   0.19927
  Beta virt. eigenvalues --    0.20163   0.20299   0.20411   0.20542   0.20827
  Beta virt. eigenvalues --    0.21150   0.21272   0.21972   0.22149   0.22277
  Beta virt. eigenvalues --    0.22549   0.23015   0.23095   0.23754   0.23832
  Beta virt. eigenvalues --    0.24291   0.24688   0.25061   0.25147   0.25456
  Beta virt. eigenvalues --    0.25548   0.26058   0.26652   0.27040   0.27247
  Beta virt. eigenvalues --    0.27641   0.27897   0.28293   0.28465   0.28694
  Beta virt. eigenvalues --    0.28908   0.29084   0.29239   0.29563   0.29604
  Beta virt. eigenvalues --    0.29857   0.30108   0.30182   0.30591   0.30809
  Beta virt. eigenvalues --    0.31092   0.31506   0.31638   0.32090   0.32209
  Beta virt. eigenvalues --    0.32350   0.32705   0.33012   0.33217   0.33524
  Beta virt. eigenvalues --    0.33706   0.33960   0.34199   0.34393   0.34815
  Beta virt. eigenvalues --    0.35250   0.35446   0.35672   0.35824   0.36090
  Beta virt. eigenvalues --    0.36310   0.36826   0.36994   0.37135   0.37371
  Beta virt. eigenvalues --    0.37549   0.37724   0.37992   0.38276   0.38527
  Beta virt. eigenvalues --    0.38811   0.38939   0.39033   0.39655   0.39975
  Beta virt. eigenvalues --    0.40283   0.40305   0.40633   0.40786   0.41208
  Beta virt. eigenvalues --    0.41310   0.41520   0.41706   0.41948   0.42163
  Beta virt. eigenvalues --    0.42413   0.42492   0.42770   0.43024   0.43335
  Beta virt. eigenvalues --    0.43597   0.43698   0.43959   0.44240   0.44597
  Beta virt. eigenvalues --    0.44871   0.45209   0.45287   0.45606   0.45888
  Beta virt. eigenvalues --    0.46284   0.46347   0.46598   0.47052   0.47415
  Beta virt. eigenvalues --    0.47714   0.47793   0.48100   0.48332   0.48799
  Beta virt. eigenvalues --    0.49030   0.49246   0.49777   0.50346   0.50429
  Beta virt. eigenvalues --    0.50981   0.51301   0.51469   0.52368   0.52651
  Beta virt. eigenvalues --    0.52966   0.53085   0.53127   0.53321   0.53666
  Beta virt. eigenvalues --    0.53843   0.53972   0.54562   0.54866   0.55199
  Beta virt. eigenvalues --    0.55390   0.55858   0.55959   0.56316   0.56539
  Beta virt. eigenvalues --    0.56960   0.57484   0.57774   0.57870   0.58325
  Beta virt. eigenvalues --    0.58696   0.59073   0.59211   0.59713   0.60067
  Beta virt. eigenvalues --    0.60535   0.60708   0.61010   0.61296   0.61848
  Beta virt. eigenvalues --    0.62085   0.62537   0.62700   0.63071   0.63237
  Beta virt. eigenvalues --    0.63418   0.63849   0.64096   0.64639   0.65075
  Beta virt. eigenvalues --    0.65442   0.65731   0.65920   0.66072   0.66627
  Beta virt. eigenvalues --    0.67036   0.67527   0.67851   0.67962   0.68647
  Beta virt. eigenvalues --    0.68811   0.69133   0.69329   0.69734   0.70367
  Beta virt. eigenvalues --    0.70780   0.70820   0.71493   0.71980   0.72476
  Beta virt. eigenvalues --    0.72548   0.73327   0.73643   0.74273   0.74847
  Beta virt. eigenvalues --    0.75476   0.75680   0.76177   0.76486   0.76839
  Beta virt. eigenvalues --    0.77569   0.77788   0.78113   0.78670   0.79196
  Beta virt. eigenvalues --    0.79325   0.79546   0.80458   0.80610   0.80983
  Beta virt. eigenvalues --    0.81788   0.81842   0.82165   0.82439   0.83021
  Beta virt. eigenvalues --    0.83670   0.84134   0.84419   0.84955   0.85296
  Beta virt. eigenvalues --    0.85376   0.85725   0.86183   0.86459   0.87023
  Beta virt. eigenvalues --    0.87200   0.88143   0.88309   0.88601   0.88740
  Beta virt. eigenvalues --    0.89312   0.89382   0.90145   0.90313   0.90538
  Beta virt. eigenvalues --    0.90843   0.91335   0.91556   0.91672   0.92075
  Beta virt. eigenvalues --    0.92441   0.92656   0.93079   0.93252   0.93418
  Beta virt. eigenvalues --    0.93766   0.94359   0.94698   0.95012   0.95482
  Beta virt. eigenvalues --    0.96059   0.96235   0.96782   0.97018   0.97630
  Beta virt. eigenvalues --    0.97837   0.98552   0.99198   0.99727   0.99790
  Beta virt. eigenvalues --    1.00235   1.00617   1.01848   1.01896   1.02991
  Beta virt. eigenvalues --    1.03669   1.04006   1.04620   1.05114   1.05369
  Beta virt. eigenvalues --    1.06057   1.06630   1.06842   1.07211   1.07598
  Beta virt. eigenvalues --    1.08135   1.08342   1.08735   1.09520   1.09891
  Beta virt. eigenvalues --    1.10097   1.10651   1.10872   1.11191   1.11446
  Beta virt. eigenvalues --    1.12240   1.12815   1.13226   1.13483   1.14343
  Beta virt. eigenvalues --    1.14924   1.15341   1.15443   1.15955   1.16005
  Beta virt. eigenvalues --    1.16708   1.16984   1.17106   1.17305   1.17532
  Beta virt. eigenvalues --    1.18473   1.18536   1.19134   1.19284   1.20297
  Beta virt. eigenvalues --    1.20425   1.21028   1.21472   1.21847   1.22242
  Beta virt. eigenvalues --    1.24389   1.25270   1.25683   1.26022   1.26548
  Beta virt. eigenvalues --    1.26754   1.27344   1.28113   1.29119   1.29207
  Beta virt. eigenvalues --    1.30182   1.30462   1.31114   1.31625   1.32688
  Beta virt. eigenvalues --    1.32921   1.33494   1.33748   1.34373   1.34843
  Beta virt. eigenvalues --    1.35338   1.35745   1.36035   1.36411   1.36464
  Beta virt. eigenvalues --    1.37153   1.37598   1.37846   1.38367   1.38619
  Beta virt. eigenvalues --    1.39125   1.39299   1.39837   1.40065   1.40851
  Beta virt. eigenvalues --    1.41029   1.41251   1.41431   1.41816   1.42096
  Beta virt. eigenvalues --    1.42280   1.42660   1.43381   1.43539   1.44179
  Beta virt. eigenvalues --    1.44233   1.44505   1.45181   1.45305   1.45464
  Beta virt. eigenvalues --    1.45866   1.45986   1.46403   1.46497   1.46703
  Beta virt. eigenvalues --    1.46925   1.47077   1.47426   1.47577   1.47913
  Beta virt. eigenvalues --    1.48561   1.48612   1.48976   1.49509   1.49764
  Beta virt. eigenvalues --    1.50163   1.50333   1.50720   1.50882   1.50908
  Beta virt. eigenvalues --    1.51678   1.51958   1.52264   1.52337   1.53097
  Beta virt. eigenvalues --    1.53465   1.53886   1.53958   1.54066   1.54464
  Beta virt. eigenvalues --    1.55272   1.55407   1.55495   1.55835   1.56331
  Beta virt. eigenvalues --    1.56497   1.57179   1.57319   1.58042   1.58120
  Beta virt. eigenvalues --    1.58558   1.58725   1.59101   1.59568   1.59702
  Beta virt. eigenvalues --    1.59811   1.60218   1.60870   1.61219   1.61487
  Beta virt. eigenvalues --    1.61544   1.62334   1.62590   1.62989   1.63171
  Beta virt. eigenvalues --    1.63612   1.63880   1.64430   1.65435   1.66013
  Beta virt. eigenvalues --    1.66272   1.67342   1.67600   1.68142   1.68844
  Beta virt. eigenvalues --    1.69613   1.70204   1.70348   1.70941   1.71573
  Beta virt. eigenvalues --    1.72333   1.72758   1.72897   1.73839   1.74303
  Beta virt. eigenvalues --    1.74656   1.74800   1.75831   1.75870   1.76242
  Beta virt. eigenvalues --    1.76588   1.76687   1.77392   1.77535   1.77930
  Beta virt. eigenvalues --    1.78278   1.78766   1.79280   1.79939   1.80716
  Beta virt. eigenvalues --    1.80834   1.81037   1.81455   1.82357   1.82585
  Beta virt. eigenvalues --    1.83293   1.83837   1.85245   1.85532   1.86015
  Beta virt. eigenvalues --    1.86434   1.87115   1.87606   1.87900   1.88355
  Beta virt. eigenvalues --    1.88778   1.89015   1.89556   1.90021   1.90349
  Beta virt. eigenvalues --    1.90393   1.90629   1.91133   1.91741   1.91908
  Beta virt. eigenvalues --    1.93257   1.93368   1.94339   1.94858   1.95324
  Beta virt. eigenvalues --    1.95861   1.96052   1.97226   1.97844   1.98207
  Beta virt. eigenvalues --    1.98517   1.98964   1.99145   2.00020   2.00602
  Beta virt. eigenvalues --    2.00846   2.01484   2.01706   2.02162   2.02713
  Beta virt. eigenvalues --    2.03072   2.03229   2.03705   2.04368   2.04787
  Beta virt. eigenvalues --    2.05280   2.05981   2.06479   2.07308   2.07912
  Beta virt. eigenvalues --    2.08427   2.08983   2.09028   2.09326   2.10051
  Beta virt. eigenvalues --    2.10687   2.11248   2.12305   2.12731   2.13523
  Beta virt. eigenvalues --    2.14046   2.14505   2.14722   2.14980   2.15126
  Beta virt. eigenvalues --    2.15734   2.16441   2.16962   2.17425   2.17666
  Beta virt. eigenvalues --    2.18228   2.18469   2.18513   2.19386   2.19608
  Beta virt. eigenvalues --    2.20296   2.21148   2.21591   2.22413   2.22694
  Beta virt. eigenvalues --    2.23124   2.23902   2.24600   2.25554   2.25674
  Beta virt. eigenvalues --    2.25857   2.26338   2.26485   2.27157   2.27359
  Beta virt. eigenvalues --    2.27442   2.27868   2.28295   2.28682   2.28806
  Beta virt. eigenvalues --    2.29131   2.29863   2.30002   2.30665   2.31931
  Beta virt. eigenvalues --    2.32053   2.32505   2.32867   2.33263   2.34148
  Beta virt. eigenvalues --    2.34586   2.34703   2.35003   2.35409   2.35970
  Beta virt. eigenvalues --    2.36169   2.36608   2.36907   2.37436   2.37676
  Beta virt. eigenvalues --    2.38170   2.39143   2.39749   2.40513   2.41797
  Beta virt. eigenvalues --    2.42334   2.42979   2.43072   2.43328   2.43724
  Beta virt. eigenvalues --    2.43905   2.44106   2.44645   2.45244   2.45924
  Beta virt. eigenvalues --    2.46074   2.46649   2.46840   2.46924   2.47335
  Beta virt. eigenvalues --    2.47811   2.48006   2.48556   2.48745   2.49582
  Beta virt. eigenvalues --    2.49776   2.50257   2.50824   2.50903   2.51124
  Beta virt. eigenvalues --    2.51752   2.52062   2.52551   2.52793   2.53452
  Beta virt. eigenvalues --    2.53927   2.54416   2.54678   2.55130   2.55260
  Beta virt. eigenvalues --    2.55960   2.56175   2.56731   2.57146   2.57366
  Beta virt. eigenvalues --    2.57941   2.58404   2.58960   2.59104   2.59547
  Beta virt. eigenvalues --    2.59761   2.60255   2.60822   2.61061   2.61784
  Beta virt. eigenvalues --    2.62060   2.62734   2.63502   2.63816   2.63900
  Beta virt. eigenvalues --    2.64451   2.64976   2.65221   2.65582   2.66085
  Beta virt. eigenvalues --    2.66548   2.67301   2.67530   2.68067   2.68460
  Beta virt. eigenvalues --    2.68895   2.69349   2.70544   2.70859   2.71319
  Beta virt. eigenvalues --    2.71549   2.72151   2.72323   2.72681   2.72834
  Beta virt. eigenvalues --    2.73388   2.74291   2.74820   2.74942   2.75386
  Beta virt. eigenvalues --    2.75440   2.76217   2.76863   2.77061   2.77264
  Beta virt. eigenvalues --    2.77611   2.78566   2.78742   2.79377   2.79741
  Beta virt. eigenvalues --    2.80003   2.80414   2.80857   2.80949   2.81485
  Beta virt. eigenvalues --    2.82202   2.82446   2.83060   2.83901   2.84329
  Beta virt. eigenvalues --    2.84486   2.84777   2.85669   2.85855   2.86226
  Beta virt. eigenvalues --    2.86757   2.87229   2.87744   2.88330   2.88338
  Beta virt. eigenvalues --    2.88907   2.89316   2.89519   2.90013   2.90740
  Beta virt. eigenvalues --    2.91137   2.91296   2.92476   2.92720   2.92921
  Beta virt. eigenvalues --    2.93552   2.93878   2.94773   2.95070   2.95448
  Beta virt. eigenvalues --    2.95798   2.96082   2.96211   2.96957   2.97088
  Beta virt. eigenvalues --    2.97475   2.98099   2.98707   2.98757   2.99437
  Beta virt. eigenvalues --    2.99902   3.00183   3.00319   3.00478   3.01155
  Beta virt. eigenvalues --    3.01667   3.02099   3.02489   3.02649   3.03063
  Beta virt. eigenvalues --    3.03276   3.03520   3.03829   3.04476   3.04992
  Beta virt. eigenvalues --    3.05706   3.06218   3.06513   3.06640   3.06839
  Beta virt. eigenvalues --    3.07052   3.07470   3.08114   3.08490   3.08721
  Beta virt. eigenvalues --    3.09159   3.09412   3.09811   3.09989   3.10152
  Beta virt. eigenvalues --    3.10426   3.10983   3.11778   3.11897   3.12071
  Beta virt. eigenvalues --    3.12612   3.12917   3.13374   3.13581   3.13660
  Beta virt. eigenvalues --    3.14423   3.14668   3.15081   3.15113   3.15339
  Beta virt. eigenvalues --    3.15885   3.16100   3.16338   3.16977   3.17148
  Beta virt. eigenvalues --    3.17500   3.17758   3.18166   3.18385   3.18599
  Beta virt. eigenvalues --    3.18881   3.19355   3.19503   3.20027   3.20139
  Beta virt. eigenvalues --    3.20486   3.21033   3.21247   3.21787   3.21908
  Beta virt. eigenvalues --    3.22378   3.22733   3.22951   3.23260   3.23739
  Beta virt. eigenvalues --    3.23929   3.24136   3.24311   3.24465   3.24960
  Beta virt. eigenvalues --    3.25423   3.25801   3.25962   3.26154   3.26550
  Beta virt. eigenvalues --    3.26895   3.27074   3.27441   3.27556   3.28013
  Beta virt. eigenvalues --    3.28205   3.28654   3.28712   3.29172   3.29776
  Beta virt. eigenvalues --    3.30093   3.30198   3.30894   3.31146   3.31605
  Beta virt. eigenvalues --    3.32021   3.32528   3.32794   3.33150   3.33414
  Beta virt. eigenvalues --    3.33741   3.34004   3.34719   3.34890   3.35050
  Beta virt. eigenvalues --    3.35570   3.35896   3.36366   3.37202   3.37669
  Beta virt. eigenvalues --    3.38275   3.38772   3.39353   3.39452   3.39876
  Beta virt. eigenvalues --    3.40460   3.41734   3.42082   3.43059   3.43647
  Beta virt. eigenvalues --    3.43777   3.44234   3.44695   3.45474   3.46575
  Beta virt. eigenvalues --    3.46704   3.46850   3.47219   3.47381   3.48073
  Beta virt. eigenvalues --    3.48907   3.49625   3.49714   3.50120   3.50510
  Beta virt. eigenvalues --    3.51052   3.51859   3.51988   3.52818   3.53208
  Beta virt. eigenvalues --    3.53628   3.54680   3.54890   3.55490   3.56258
  Beta virt. eigenvalues --    3.56776   3.57313   3.57467   3.58519   3.59122
  Beta virt. eigenvalues --    3.59573   3.59738   3.60352   3.60859   3.61178
  Beta virt. eigenvalues --    3.61640   3.61835   3.62438   3.63177   3.63273
  Beta virt. eigenvalues --    3.63638   3.64044   3.64154   3.64796   3.65491
  Beta virt. eigenvalues --    3.65995   3.66032   3.67015   3.67372   3.68385
  Beta virt. eigenvalues --    3.68632   3.69760   3.70055   3.70636   3.71772
  Beta virt. eigenvalues --    3.72966   3.73156   3.73447   3.74039   3.74621
  Beta virt. eigenvalues --    3.75103   3.75460   3.76414   3.77140   3.77700
  Beta virt. eigenvalues --    3.77963   3.78375   3.79367   3.80298   3.81025
  Beta virt. eigenvalues --    3.81327   3.81883   3.82570   3.84181   3.84646
  Beta virt. eigenvalues --    3.85661   3.86561   3.87308   3.87456   3.88083
  Beta virt. eigenvalues --    3.88323   3.88708   3.89249   3.89838   3.90437
  Beta virt. eigenvalues --    3.91482   3.92358   3.92828   3.93068   3.93842
  Beta virt. eigenvalues --    3.94364   3.95348   3.95725   3.96182   3.96973
  Beta virt. eigenvalues --    3.98265   3.98881   3.99282   3.99668   4.00364
  Beta virt. eigenvalues --    4.01163   4.02469   4.02541   4.03277   4.03736
  Beta virt. eigenvalues --    4.04424   4.04785   4.04968   4.05645   4.06083
  Beta virt. eigenvalues --    4.06752   4.07451   4.07696   4.08356   4.08875
  Beta virt. eigenvalues --    4.09216   4.10071   4.11004   4.12001   4.12767
  Beta virt. eigenvalues --    4.13397   4.13722   4.14117   4.14858   4.14940
  Beta virt. eigenvalues --    4.16330   4.17147   4.17685   4.17971   4.19325
  Beta virt. eigenvalues --    4.19390   4.20084   4.21182   4.21344   4.21664
  Beta virt. eigenvalues --    4.22253   4.23212   4.23345   4.24293   4.25152
  Beta virt. eigenvalues --    4.25669   4.26019   4.26212   4.27239   4.28532
  Beta virt. eigenvalues --    4.29006   4.30283   4.30622   4.31026   4.31571
  Beta virt. eigenvalues --    4.31809   4.32529   4.32779   4.33429   4.34013
  Beta virt. eigenvalues --    4.34846   4.34954   4.35424   4.36003   4.37484
  Beta virt. eigenvalues --    4.37931   4.39054   4.39898   4.40743   4.41416
  Beta virt. eigenvalues --    4.42186   4.42590   4.43715   4.44276   4.44656
  Beta virt. eigenvalues --    4.45733   4.46443   4.47311   4.48263   4.51115
  Beta virt. eigenvalues --    4.51961   4.52734   4.53989   4.55269   4.56073
  Beta virt. eigenvalues --    4.56983   4.57472   4.57739   4.58454   4.60390
  Beta virt. eigenvalues --    4.60780   4.62519   4.63374   4.64009   4.65255
  Beta virt. eigenvalues --    4.66525   4.67715   4.69034   4.69700   4.71132
  Beta virt. eigenvalues --    4.72031   4.72604   4.72828   4.73481   4.73874
  Beta virt. eigenvalues --    4.74178   4.75595   4.75606   4.77630   4.78273
  Beta virt. eigenvalues --    4.79421   4.81019   4.82518   4.82881   4.83547
  Beta virt. eigenvalues --    4.84442   4.85378   4.87494   4.88576   4.89683
  Beta virt. eigenvalues --    4.90341   4.91518   4.92396   4.92519   4.93044
  Beta virt. eigenvalues --    4.94055   4.95454   4.96319   4.97690   4.98383
  Beta virt. eigenvalues --    5.01524   5.01826   5.03613   5.04969   5.05902
  Beta virt. eigenvalues --    5.07956   5.08045   5.09487   5.10537   5.11507
  Beta virt. eigenvalues --    5.11803   5.13467   5.14149   5.14750   5.15876
  Beta virt. eigenvalues --    5.18503   5.23135   5.24331   5.25073   5.26083
  Beta virt. eigenvalues --    5.26180   5.26834   5.27293   5.28325   5.28559
  Beta virt. eigenvalues --    5.30657   5.35658   5.36046   5.37844   5.38616
  Beta virt. eigenvalues --    5.39186   5.39631   5.40737   5.43138   5.46902
  Beta virt. eigenvalues --    5.48773   5.49487   5.49888   5.51166   5.52762
  Beta virt. eigenvalues --    5.55055   5.55548   5.56521   5.59124   5.63327
  Beta virt. eigenvalues --    5.63932   5.65900   5.66592   5.74642   5.76961
  Beta virt. eigenvalues --    5.77450   5.79622   5.88317   5.88527   5.89906
  Beta virt. eigenvalues --    5.97907   5.98504   5.99785   6.01004   6.05978
  Beta virt. eigenvalues --    6.11731   6.13236   6.21392   6.21770   6.28755
  Beta virt. eigenvalues --    6.34624   6.40459   6.41078   6.51636   6.83889
  Beta virt. eigenvalues --    7.16534   8.95021   9.11716   9.28232  19.48731
  Beta virt. eigenvalues --   22.22001  22.25718  22.26236  22.36179  22.36920
  Beta virt. eigenvalues --   22.42833  22.43847  22.52509  22.52611  22.73205
  Beta virt. eigenvalues --   22.76660  22.80407  22.82455  22.82650  22.84189
  Beta virt. eigenvalues --   22.85158  22.91967  22.92342  23.02594  23.15598
  Beta virt. eigenvalues --   23.19033  23.19852  23.28386  23.30247  23.38869
  Beta virt. eigenvalues --   23.39279  23.43671  23.62532  23.67226  23.67890
  Beta virt. eigenvalues --   23.76565  32.74734  32.79461  32.81036  32.92625
  Beta virt. eigenvalues --   43.81993
          Condensed to atoms (all electrons):
          Atomic-Atomic Spin Densities.
 Mulliken charges and spin densities:
               1          2
     1  Fe  -0.046994   4.320226
[...]
  1263. RY*(   1) H  68                  0.00041     0.86265   
  1264. RY*(   2) H  68                  0.00017     2.25868   
  1265. RY*(   3) H  68                  0.00005     2.17539   
  1266. RY*(   4) H  68                  0.00002     2.58205   
  1267. RY*(   5) H  68                  0.00001     2.34697   
  1268. RY*(   1) H  69                  0.00020     1.20512   
  1269. RY*(   2) H  69                  0.00009     1.16609   
  1270. RY*(   3) H  69                  0.00006     1.99777   
  1271. RY*(   4) H  69                  0.00003     2.07780   
  1272. RY*(   5) H  69                  0.00000     2.83368   
  1273. RY*(   1) H  70                  0.00028     0.80745   
  1274. RY*(   2) H  70                  0.00013     2.14810   
  1275. RY*(   3) H  70                  0.00004     2.09664   
  1276. RY*(   4) H  70                  0.00002     1.98556   
  1277. RY*(   5) H  70                  0.00001     2.85296   
  1278. RY*(   1) S  71                  0.00200     0.53068   
  1279. RY*(   2) S  71                  0.00151     0.65061   
  1280. RY*(   3) S  71                  0.00110     0.58959   
  1281. RY*(   4) S  71                  0.00056     1.12119   
  1282. RY*(   5) S  71                  0.00028     0.79069   
  1283. RY*(   6) S  71                  0.00023     0.60568   
  1284. RY*(   7) S  71                  0.00021     1.54747   
  1285. RY*(   8) S  71                  0.00014     1.09735   
  1286. RY*(   9) S  71                  0.00006     0.79732   
  1287. RY*(  10) S  71                  0.00005     1.70343   
  1288. RY*(  11) S  71                  0.00006     1.74381   
  1289. RY*(  12) S  71                  0.00001     2.65421   
  1290. RY*(  13) S  71                  0.00001     1.62816   
  1291. RY*(  14) S  71                  0.00000    18.47336   
  1292. RY*(  15) S  71                  0.00000     2.30855   
  1293. RY*(  16) S  71                  0.00001     1.47214   
  1294. RY*(  17) S  71                  0.00001     1.60333   
  1295. RY*(  18) S  71                  0.00001     2.50939   
  1296. RY*(  19) S  71                  0.00000     8.31671   
  1297. RY*(  20) S  71                  0.00000     8.47428   
  1298. RY*(  21) S  71                  0.00000     8.27201   
  1299. RY*(  22) S  71                  0.00001     2.02049   
  1300. RY*(  23) S  71                  0.00000     1.95947   
  1301. RY*(  24) S  71                  0.00000     1.91659   
  1302. RY*(  25) S  71                  0.00000     2.06099   
  1303. RY*(  26) S  71                  0.00001     1.74166   
  1304. RY*(  27) S  71                  0.00000     2.04938   
  1305. RY*(  28) S  71                  0.00000     2.13389   
  1306. RY*(   1) H  72                  0.00067     1.04069   
  1307. RY*(   2) H  72                  0.00013     1.41505   
  1308. RY*(   3) H  72                  0.00009     0.79897   
  1309. RY*(   4) H  72                  0.00004     1.75805   
  1310. RY*(   5) H  72                  0.00002     2.45378   
  1311. BD*(   1)Fe   1 - N   2          0.03218     0.24279   
  1312. BD*(   1)Fe   1 - N   3          0.02819     0.24719   
  1313. BD*(   1)Fe   1 - N   4          0.03182     0.24060   
  1314. BD*(   1)Fe   1 - N   5          0.02968     0.25387   
  1315. BD*(   1)Fe   1 - S  71          0.02423     0.11331   
  1316. BD*(   1) N   2 - C   6          0.01413     0.39002   
  1317. BD*(   2) N   2 - C   6          0.32494    -0.10840  1362(v),1336(v),1331(v)
                                                    143(v),283(g),144(v),284(g)
                                                    698(v),181(g),179(g)
  1318. BD*(   1) N   2 - C   9          0.01430     0.38900   
  1319. BD*(   1) N   3 - C  10          0.01455     0.37754   
  1320. BD*(   2) N   3 - C  10          0.33907    -0.11628  1336(v),1340(v),1345(v)
                                                    388(g),142(v),205(g),144(v)
                                                    728(v),466(v)
  1321. BD*(   1) N   3 - C  13          0.01391     0.38245   
  1322. BD*(   1) N   4 - C  14          0.01413     0.38417   
  1323. BD*(   2) N   4 - C  14          0.33993    -0.11332  1345(v),1349(v),146(v)
                                                    143(v),491(g),144(v),231(g)
                                                    492(g)
  1324. BD*(   1) N   4 - C  17          0.01365     0.39252   
  1325. BD*(   1) N   5 - C  18          0.01413     0.39135   
  1326. BD*(   2) N   5 - C  18          0.32784    -0.10604  1362(v),1357(v),142(v)
                                                    595(g),144(v),258(g),790(v)
                                                    259(g)
  1327. BD*(   1) N   5 - C  21          0.01408     0.38981   
  1328. BD*(   1) C   6 - C   7          0.01759     0.37480   
  1329. BD*(   1) C   6 - C  22          0.01020     0.45195   
  1330. BD*(   1) C   7 - C   8          0.01151     0.49877   
  1331. BD*(   2) C   7 - C   8          0.11820    -0.04049  1336(v),1317(v),1371(v)
                                                    1369(v),1368(v),1370(v)
  1332. BD*(   1) C   7 - C  34          0.00803     0.31183   
  1333. BD*(   1) C   8 - C   9          0.01740     0.37566   
  1334. BD*(   1) C   8 - C  30          0.00803     0.31120   
  1335. BD*(   1) C   9 - C  24          0.01013     0.45907   
  1336. BD*(   2) C   9 - C  24          0.19277    -0.06847  1320(v),1331(v),1317(v)
                                                    1362(r),728(g),1345(r)
                                                    364(g)
  1337. BD*(   1) C  10 - C  11          0.01693     0.38407   
  1338. BD*(   1) C  10 - C  24          0.01034     0.45143   
  1339. BD*(   1) C  11 - C  12          0.01263     0.47927   
  1340. BD*(   2) C  11 - C  12          0.14136    -0.04632  1378(v),1345(v),1320(v)
                                                    1374(v),1373(v)
  1341. BD*(   1) C  11 - C  38          0.00764     0.31234   
  1342. BD*(   1) C  12 - C  13          0.01689     0.37401   
  1343. BD*(   1) C  12 - C  42          0.01324     0.39087   
  1344. BD*(   1) C  13 - C  26          0.01010     0.45796   
  1345. BD*(   2) C  13 - C  26          0.19855    -0.07065  1323(v),1340(v),1320(v)
                                                    1336(r),759(g),468(g)
  1346. BD*(   1) C  14 - C  15          0.01736     0.38562   
  1347. BD*(   1) C  14 - C  26          0.01046     0.45527   
  1348. BD*(   1) C  15 - C  16          0.01265     0.48396   
  1349. BD*(   2) C  15 - C  16          0.13684    -0.04256  1386(v),1323(v),146(v)
                                                    1382(v),1381(v)
  1350. BD*(   1) C  15 - C  47          0.00766     0.31495   
  1351. BD*(   1) C  16 - C  17          0.01694     0.37521   
  1352. BD*(   1) C  16 - C  51          0.01324     0.39440   
  1353. BD*(   1) C  17 - C  28          0.01015     0.45812   
  1354. BD*(   1) C  18 - C  19          0.01725     0.37475   
  1355. BD*(   1) C  18 - C  28          0.01004     0.46075   
  1356. BD*(   1) C  19 - C  20          0.01143     0.50142   
  1357. BD*(   2) C  19 - C  20          0.11548    -0.03827  1362(v),1326(v),1389(v)
                                                    1394(v),1392(v),1390(v)
  1358. BD*(   1) C  19 - C  56          0.00793     0.31389   
  1359. BD*(   1) C  20 - C  21          0.01736     0.37442   
  1360. BD*(   1) C  20 - C  60          0.00797     0.31301   
  1361. BD*(   1) C  21 - C  22          0.01005     0.45315   
  1362. BD*(   2) C  21 - C  22          0.19426    -0.06728  1317(v),1357(v),1326(v)
                                                    1336(r),698(g),676(g)
  1363. BD*(   1) C  22 - H  23          0.00608     0.32366   
  1364. BD*(   1) C  24 - H  25          0.00627     0.32318   
  1365. BD*(   1) C  26 - H  27          0.00645     0.32332   
  1366. BD*(   1) C  28 - H  29          0.00623     0.32312   
  1367. BD*(   1) C  30 - H  31          0.00298     0.29880   
  1368. BD*(   1) C  30 - H  32          0.00438     0.28564   
  1369. BD*(   1) C  30 - H  33          0.00442     0.28391   
  1370. BD*(   1) C  34 - H  35          0.00424     0.28586   
  1371. BD*(   1) C  34 - H  36          0.00462     0.28566   
  1372. BD*(   1) C  34 - H  37          0.00297     0.29945   
  1373. BD*(   1) C  38 - H  39          0.00440     0.28876   
  1374. BD*(   1) C  38 - H  40          0.00517     0.28381   
  1375. BD*(   1) C  38 - H  41          0.00364     0.29918   
  1376. BD*(   1) C  42 - H  43          0.01030     0.32486   
  1377. BD*(   1) C  42 - C  44          0.00362     0.53659   
  1378. BD*(   2) C  42 - C  44          0.02782    -0.03587   
  1379. BD*(   1) C  44 - H  45          0.00507     0.34240   
  1380. BD*(   1) C  44 - H  46          0.00380     0.34769   
  1381. BD*(   1) C  47 - H  48          0.00423     0.29109   
  1382. BD*(   1) C  47 - H  49          0.00519     0.28635   
  1383. BD*(   1) C  47 - H  50          0.00362     0.30119   
  1384. BD*(   1) C  51 - H  52          0.01020     0.32927   
  1385. BD*(   1) C  51 - C  53          0.00363     0.54029   
  1386. BD*(   2) C  51 - C  53          0.02768    -0.03270   
  1387. BD*(   1) C  53 - H  54          0.00510     0.34572   
  1388. BD*(   1) C  53 - H  55          0.00382     0.35054   
  1389. BD*(   1) C  56 - H  57          0.00457     0.30745   
  1390. BD*(   1) C  56 - H  58          0.00411     0.28928   
  1391. BD*(   1) C  56 - H  59          0.00297     0.30904   
  1392. BD*(   1) C  60 - H  61          0.00436     0.31197   
  1393. BD*(   1) C  60 - H  62          0.00296     0.30060   
  1394. BD*(   1) C  60 - H  63          0.00438     0.28746   
  1397. BD*(   1) C  67 - H  68          0.00553     0.26951   
  1398. BD*(   1) C  67 - H  69          0.00397     0.25749   
  1399. BD*(   1) C  67 - H  70          0.00351     0.25720   
  1400. BD*(   1) C  67 - S  71          0.00531     0.03349   
  1401. BD*(   1) S  71 - H  72          0.00759     2.01900   
       -------------------------------
              Total Lewis  137.09879  ( 97.1511%)
        Valence non-Lewis    3.77555  (  2.6754%)
        Rydberg non-Lewis    0.24482  (  0.1735%)
       -------------------------------
            Total unit  1  141.11916  (100.0000%)
           Charge unit  1    2.88084
 
 Molecular unit  2  (H2O)
    85. BD (   1) O  64 - H  65          0.99157    -0.93823  144(r),142(r),1315(r),145(r)
                                                    1234(v),1232(v),152(r)
                                                    1314(r),157(r),259(r),153(r)
                                                    1311(r),179(r),1282(r)
                                                    154(r),232(r),260(r),1312(r)
                                                    162(r)
    86. BD (   1) O  64 - H  66          0.99649    -1.00292  144(r),1315(r),1229(v)
                                                    145(r),142(r),1395(g),152(r)
                                                    207(r),208(r),157(r),204(r)
                                                    154(r),180(r),234(r),212(r)
                                                    162(r),232(r),182(r),1314(r)
                                                    205(r),233(r)
   135. CR (   1) O  64                  0.99991   -19.08003  144(r),1315(r),1229(v)
                                                    145(r),153(r),1314(r)
                                                    1311(r),1312(r),1313(r)
                                                    154(r),157(r)
   148. LP (   1) O  64                  0.98176    -0.45411  143(r),1313(r),1311(r)
                                                    1233(v),1228(v),154(r)
                                                    1323(r),231(r),182(r)
                                                    1317(r)
   149. LP (   2) O  64                  0.90190    -0.60653  144(r),145(r),1315(r)
                                                    1395(g),1234(v),1396(g)
                                                    1229(v),157(r),142(r),230(r)
                                                    180(r),207(r),259(r),231(r)
                                                    178(r),151(r),179(r),204(r)
                                                    143(r),205(r),1284(r)
                                                    1316(r),1321(r),1318(r)
                                                    1327(r),1322(r),1319(r)
                                                    1325(r),1324(r),256(r)
  1201. RY*(   1) O  64                  0.00132     1.03667   
  1202. RY*(   2) O  64                  0.00072     0.53033   
  1203. RY*(   3) O  64                  0.00037     0.99253   
  1204. RY*(   4) O  64                  0.00009     1.15849   
  1205. RY*(   5) O  64                  0.00002     4.68083   
  1206. RY*(   6) O  64                  0.00002     2.00938   
  1207. RY*(   7) O  64                  0.00003     2.36535   
  1208. RY*(   8) O  64                  0.00000     2.76338   
  1209. RY*(   9) O  64                  0.00001     3.00816   
  1210. RY*(  10) O  64                  0.00001     2.80068   
  1211. RY*(  11) O  64                  0.00000     6.26701   
  1212. RY*(  12) O  64                  0.00000    41.60348   
  1213. RY*(  13) O  64                  0.00000     6.33897   
  1214. RY*(  14) O  64                  0.00000     3.09765   
  1215. RY*(  15) O  64                  0.00000     6.39950   
  1216. RY*(  16) O  64                  0.00000     2.22763   
  1217. RY*(  17) O  64                  0.00000     6.10731   
  1218. RY*(  18) O  64                  0.00000     2.35440   
  1219. RY*(  19) O  64                  0.00000     6.34691   
  1220. RY*(  20) O  64                  0.00000     5.20252   
  1221. RY*(  21) O  64                  0.00000     5.20964   
  1222. RY*(  22) O  64                  0.00000     5.50609   
  1223. RY*(  23) O  64                  0.00000     5.24496   
  1224. RY*(  24) O  64                  0.00000     5.49187   
  1225. RY*(  25) O  64                  0.00000     5.52563   
  1226. RY*(  26) O  64                  0.00000     5.22611   
  1227. RY*(   1) H  65                  0.00046     0.66345   
  1228. RY*(   2) H  65                  0.00037     1.85643   
  1229. RY*(   3) H  65                  0.00027     2.20852   
  1230. RY*(   4) H  65                  0.00009     2.02832   
  1231. RY*(   5) H  65                  0.00001     2.79438   
  1232. RY*(   1) H  66                  0.00049     0.96357   
  1233. RY*(   2) H  66                  0.00042     1.90141   
  1234. RY*(   3) H  66                  0.00031     1.68748   
  1235. RY*(   4) H  66                  0.00012     2.06631   
  1236. RY*(   5) H  66                  0.00000     2.89365   
  1395. BD*(   1) O  64 - H  65          0.00243     0.31291   
  1396. BD*(   1) O  64 - H  66          0.00152     0.47002   
       -------------------------------
              Total Lewis    4.87164  ( 99.8133%)
        Valence non-Lewis    0.00395  (  0.0810%)
        Rydberg non-Lewis    0.00516  (  0.1057%)
       -------------------------------
            Total unit  2    4.88075  (100.0000%)
           Charge unit  2    0.11925
 Unable to Open any file for archive entry.
 1\1\GINC-BGN1025\SP\UAPFD\def2TZVP\C31H34Fe1N4O1S1(1+,6)\BECSLEIP\15-N
 ov-2024\0\\# apfd/def2TZVP guess=read scf=maxcycle=999 geom=check pop=
 nbo\\6u3k_III_H\\1,6\Fe,0,3.4554758568,-3.051416618,15.1804757309\N,0,
 2.1037782174,-3.1910131412,16.6316881921\N,0,4.1819116446,-4.865308325
 1,15.6776579599\N,0,4.967014565,-2.8655735248,13.8563018948\N,0,2.8860
 961707,-1.1925680608,14.808641991\C,0,1.0843110354,-2.3252545081,16.86
 48887554\C,0,0.2157383387,-2.8299144607,17.9061307394\C,0,0.7407260359
 ,-4.0214883457,18.2977845805\C,0,1.9184958204,-4.2326705468,17.4845537
 841\C,0,3.7592993946,-5.6585261429,16.7041287066\C,0,4.4729097178,-6.9
 075910076,16.7126415282\C,0,5.3486539638,-6.8591380098,15.6588987628\C
 ,0,5.1421670155,-5.5743333165,15.0239893852\C,0,5.7117285259,-3.882950
 0038,13.3399406902\C,0,6.3982089633,-3.4701920235,12.1447341521\C,0,6.
 0554587083,-2.1598158912,11.9426427959\C,0,5.1449594282,-1.8151448883,
 13.0159349784\C,0,3.4989765532,-0.2941342094,13.9964067773\C,0,2.82380
 52343,0.9856422661,14.0497830794\C,0,1.7726719018,0.8268669553,14.8962
 463023\C,0,1.8308287843,-0.542354185,15.3622680132\C,0,0.939786052,-1.
 0871711193,16.2669486823\H,0,0.1058860859,-0.4769445129,16.5776584272\
 C,0,2.7219606734,-5.3525889147,17.5706788571\H,0,2.4829671851,-6.07653
 76524,18.3341243812\C,0,5.8438597633,-5.1336377059,13.9176889984\H,0,6
 .5461142083,-5.8181703608,13.46791101\C,0,4.5603845518,-0.5696686173,1
 3.1580162947\H,0,4.8997544138,0.2210098517,12.5070804872\C,0,0.2583805
 016,-4.971409084,19.3395604439\H,0,-0.6400380307,-4.5935406518,19.8208
 064551\H,0,1.0202248283,-5.1202660683,20.1050211837\H,0,0.028959952,-5
 .941626351,18.8977372701\C,0,-1.0006318892,-2.1250804294,18.3993384359
 \H,0,-1.6854687962,-1.9210308145,17.5762116281\H,0,-0.73144929,-1.1734
 095139,18.8583901401\H,0,-1.522815431,-2.7261076511,19.1397266723\C,0,
 4.2254776539,-8.0302344392,17.6584114327\H,0,3.1604140103,-8.139851669
 3,17.8588440214\H,0,4.730685341,-7.8557532577,18.6100370977\H,0,4.5978
 868998,-8.9616548679,17.237088908\C,0,6.2924745424,-7.8580510309,15.20
 7375328\H,0,6.4495867078,-7.9052769136,14.1358303431\C,0,6.9680959461,
 -8.6888018892,15.9942339043\H,0,6.8893685833,-8.6544023947,17.06691865
 59\H,0,7.6485038627,-9.4192515447,15.5892337466\C,0,7.241252726,-4.353
 7868131,11.2938096293\H,0,6.8266039243,-5.3597662654,11.2521313532\H,0
 ,8.2556920852,-4.422810496,11.6898637248\H,0,7.294199544,-3.956076757,
 10.2826687239\C,0,6.4452724186,-1.2674158896,10.8727111935\H,0,5.69489
 41299,-0.5476529369,10.5679450915\C,0,7.6261294578,-1.2686952525,10.26
 33143968\H,0,8.4221201268,-1.930539848,10.5570991726\H,0,7.8469272672,
 -0.5837995968,9.461504799\C,0,3.2520435417,2.1920560197,13.2880369055\
 H,0,3.1554645549,2.0201961994,12.2155708452\H,0,4.2943915935,2.4293954
 118,13.4997779124\H,0,2.6424832481,3.0527570051,13.5518692007\C,0,0.73
 51885426,1.8119132212,15.3119913588\H,0,-0.2581968318,1.4611499248,15.
 0316950519\H,0,0.9042767263,2.7749023905,14.836849134\H,0,0.7513430759
 ,1.9534652568,16.3928320012\O,0,4.896,-2.319,16.721\H,0,5.399,-3.111,1
 6.911\H,0,5.019,-1.518,17.086\C,0,0.9925850436,-5.1911536941,14.326263
 6417\H,0,1.56646058,-5.7602040872,15.0495139262\H,0,0.5640562205,-5.83
 54530185,13.5648334687\H,0,0.2094345542,-4.6370579805,14.8327937193\S,
 0,2.0723710223,-3.9516023657,13.5249952932\H,0,2.9311255339,-4.8506907
 035,13.0286022071\\Version=ES64L-G16RevC.02\State=6-A\HF=-3156.992133\
 S2=8.762059\S2-1=0.\S2A=8.750043\RMSD=7.936e-09\Dipole=-0.4230919,-0.1
 826209,0.4204496\Quadrupole=-3.1266082,9.1369156,-6.0103074,-8.3523025
 ,-16.9372184,-8.4022999\PG=C01 [X(C31H34Fe1N4O1S1)]\\@
 The archive entry for this job was punched.


            THE IRISH PIG
 'TWAS AN EVENING IN NOVEMBER,
 AS I VERY WELL REMEMBER
 I WAS STROLLING DOWN THE STREET IN DRUNKEN PRIDE,
 BUT MY KNEES WERE ALL A'FLUTTER
 SO I LANDED IN THE GUTTER,
 AND A PIG CAME UP AND LAY DOWN BY MY SIDE.

 YES, I LAY THERE IN THE GUTTER
 THINKING THOUGHTS I COULD NOT UTTER
 WHEN A COLLEEN PASSING BY DID SOFTLY SAY,
 'YE CAN TELL A MAN THAT BOOZES
 BY THE COMPANY THAT HE CHOOSES.' -
 AT THAT, THE PIG GOT UP AND WALKED AWAY!
     -- THE ECONOMIST, AUGUST 23, 1986
 Job cpu time:       0 days 21 hours  4 minutes  5.6 seconds.
 Elapsed time:       0 days  0 hours 19 minutes 23.2 seconds.
 File lengths (MBytes):  RWF=   1815 Int=      0 D2E=      0 Chk=    164 Scr=      1
 Normal termination of Gaussian 16 at Fri Nov 15 14:51:04 2024.
