 Entering Gaussian System, Link 0=g16
 Input=6upg05re.com
 Output=6upg05re.log
 Initial command:
 /sw/chem/gaussian/g16_C02/a100/g16/l1.exe "/local/becsleip_8081523/Gau-1413057.inp" -scrdir="/local/becsleip_8081523/"
 Entering Link 1 = /sw/chem/gaussian/g16_C02/a100/g16/l1.exe PID=   1413058.
  
 Copyright (c) 1988-2021, Gaussian, Inc.  All Rights Reserved.
  
 This is part of the Gaussian(R) 16 program.  It is based on
 the Gaussian(R) 09 system (copyright 2009, Gaussian, Inc.),
 the Gaussian(R) 03 system (copyright 2003, Gaussian, Inc.),
 the Gaussian(R) 98 system (copyright 1998, Gaussian, Inc.),
 the Gaussian(R) 94 system (copyright 1995, Gaussian, Inc.),
 the Gaussian 92(TM) system (copyright 1992, Gaussian, Inc.),
 the Gaussian 90(TM) system (copyright 1990, Gaussian, Inc.),
 the Gaussian 88(TM) system (copyright 1988, Gaussian, Inc.),
 the Gaussian 86(TM) system (copyright 1986, Carnegie Mellon
 University), and the Gaussian 82(TM) system (copyright 1983,
 Carnegie Mellon University). Gaussian is a federally registered
 trademark of Gaussian, Inc.
  
 This software contains proprietary and confidential information,
 including trade secrets, belonging to Gaussian, Inc.
  
 This software is provided under written license and may be
 used, copied, transmitted, or stored only in accord with that
 written license.
  
 The following legend is applicable only to US Government
 contracts under FAR:
  
                    RESTRICTED RIGHTS LEGEND
  
 Use, reproduction and disclosure by the US Government is
 subject to restrictions as set forth in subparagraphs (a)
 and (c) of the Commercial Computer Software - Restricted
 Rights clause in FAR 52.227-19.
  
 Gaussian, Inc.
 340 Quinnipiac St., Bldg. 40, Wallingford CT 06492
  
  
 ---------------------------------------------------------------
 Warning -- This program may not be used in any manner that
 competes with the business of Gaussian, Inc. or will provide
 assistance to any competitor of Gaussian, Inc.  The licensee
 of this program is prohibited from giving any competitor of
 Gaussian, Inc. access to this program.  By using this program,
 the user acknowledges that Gaussian, Inc. is engaged in the
 business of creating and licensing software in the field of
 computational chemistry and represents and warrants to the
 licensee that it is not a competitor of Gaussian, Inc. and that
 it will not use this program in any manner prohibited above.
 ---------------------------------------------------------------
  

 Cite this work as:
 Gaussian 16, Revision C.02,
 M. J. Frisch, G. W. Trucks, H. B. Schlegel, G. E. Scuseria, 
 M. A. Robb, J. R. Cheeseman, G. Scalmani, V. Barone, 
 G. A. Petersson, H. Nakatsuji, X. Li, M. Caricato, A. V. Marenich, 
 J. Bloino, B. G. Janesko, R. Gomperts, B. Mennucci, H. P. Hratchian, 
 J. V. Ortiz, A. F. Izmaylov, J. L. Sonnenberg, D. Williams-Young, 
 F. Ding, F. Lipparini, F. Egidi, J. Goings, B. Peng, A. Petrone, 
 T. Henderson, D. Ranasinghe, V. G. Zakrzewski, J. Gao, N. Rega, 
 G. Zheng, W. Liang, M. Hada, M. Ehara, K. Toyota, R. Fukuda, 
 J. Hasegawa, M. Ishida, T. Nakajima, Y. Honda, O. Kitao, H. Nakai, 
 T. Vreven, K. Throssell, J. A. Montgomery, Jr., J. E. Peralta, 
 F. Ogliaro, M. J. Bearpark, J. J. Heyd, E. N. Brothers, K. N. Kudin, 
 V. N. Staroverov, T. A. Keith, R. Kobayashi, J. Normand, 
 K. Raghavachari, A. P. Rendell, J. C. Burant, S. S. Iyengar, 
 J. Tomasi, M. Cossi, J. M. Millam, M. Klene, C. Adamo, R. Cammi, 
 J. W. Ochterski, R. L. Martin, K. Morokuma, O. Farkas, 
 J. B. Foresman, and D. J. Fox, Gaussian, Inc., Wallingford CT, 2019.
 
 ******************************************
 Gaussian 16:  ES64L-G16RevC.02  7-Dec-2021
                14-Nov-2024 
 ******************************************
 %mem=16GB
 %CPU=0-71
 SetSPE:  set environment variable "OMP_PROC_BIND" = "true"
 SetSPE:  set environment variable "OMP_PLACES" = "{0},{1},{2},{3},{4},{5},{6},{7},{8},{9},{10},{11},{12},{13},{14},{15},{16},{17},{18},{19},{20},{21},{22},{23},{24},{25},{26},{27},{28},{29},{30},{31},{32},{33},{34},{35},{36},{37},{38},{39},{40},{41},{42},{43},{44},{45},{46},{47},{48},{49},{50},{51},{52},{53},{54},{55},{56},{57},{58},{59},{60},{61},{62},{63},{64},{65},{66},{67},{68},{69},{70},{71}"
 Will use up to   72 processors via shared memory.
 %gpucpu=0,1,2,3=0,1,2,3
 Will use    4 GPUs:
 Thread  CPU   GPU
      0    0     0
      1    1     1
      2    2     2
      3    3     3
      4    4    -1
      5    5    -1
      6    6    -1
      7    7    -1
      8    8    -1
      9    9    -1
     10   10    -1
     11   11    -1
     12   12    -1
     13   13    -1
     14   14    -1
     15   15    -1
     16   16    -1
     17   17    -1
     18   18    -1
     19   19    -1
     20   20    -1
     21   21    -1
     22   22    -1
     23   23    -1
     24   24    -1
     25   25    -1
     26   26    -1
     27   27    -1
     28   28    -1
     29   29    -1
     30   30    -1
     31   31    -1
     32   32    -1
     33   33    -1
     34   34    -1
     35   35    -1
     36   36    -1
     37   37    -1
     38   38    -1
     39   39    -1
     40   40    -1
     41   41    -1
     42   42    -1
     43   43    -1
     44   44    -1
     45   45    -1
     46   46    -1
     47   47    -1
     48   48    -1
     49   49    -1
     50   50    -1
     51   51    -1
     52   52    -1
     53   53    -1
     54   54    -1
     55   55    -1
     56   56    -1
     57   57    -1
     58   58    -1
     59   59    -1
     60   60    -1
     61   61    -1
     62   62    -1
     63   63    -1
     64   64    -1
     65   65    -1
     66   66    -1
     67   67    -1
     68   68    -1
     69   69    -1
     70   70    -1
     71   71    -1
 SetGPE:  set environment variable "OMP_PROC_BIND" = "true"
 SetGPE:  set environment variable "OMP_PLACES" = "{0},{1},{2},{3},{4},{5},{6},{7},{8},{9},{10},{11},{12},{13},{14},{15},{16},{17},{18},{19},{20},{21},{22},{23},{24},{25},{26},{27},{28},{29},{30},{31},{32},{33},{34},{35},{36},{37},{38},{39},{40},{41},{42},{43},{44},{45},{46},{47},{48},{49},{50},{51},{52},{53},{54},{55},{56},{57},{58},{59},{60},{61},{62},{63},{64},{65},{66},{67},{68},{69},{70},{71}"
 %oldchk=6upg_II_S.chk
 %chk=6upg_II_Sre.chk
 Properties for Device   0
 Minimum vector length:                              32
 Maximum vector length:                            1024
 Number of SMPs:                                    108
 Maximum number of threads per SMP:                2048
 Number of ASync Engines:                             5
 Memory:                                           9207742464
 Properties for Device   1
 Minimum vector length:                              32
 Maximum vector length:                            1024
 Number of SMPs:                                    108
 Maximum number of threads per SMP:                2048
 Number of ASync Engines:                             5
 Memory:                                           9207742464
 Properties for Device   2
 Minimum vector length:                              32
 Maximum vector length:                            1024
 Number of SMPs:                                    108
 Maximum number of threads per SMP:                2048
 Number of ASync Engines:                             5
 Memory:                                           9207742464
 Properties for Device   3
 Minimum vector length:                              32
 Maximum vector length:                            1024
 Number of SMPs:                                    108
 Maximum number of threads per SMP:                2048
 Number of ASync Engines:                             5
 Memory:                                           9207742464
   8286968217 words of memory will be used on each GPU.
 Copying data from "6upg_II_S.chk" to current chk file "6upg_II_Sre.chk"
 IOpt=  2 FromEx=T IUOpen= 4 IOptOp= 5 NList=   0 IFRang= 0 IUIn= 4 IUOut= 2.
 --------------------------------------
 # apfd/gen scf=maxcycle=999 geom=check
 --------------------------------------
 1/29=2,38=1,172=1/1;
 2/12=2,40=1/2;
 3/5=7,11=2,14=-4,25=1,30=1,74=-44/1,2,3;
 4//1;
 5/5=2,7=999,38=5/2;
 6/7=2,8=2,9=2,10=2,28=1/1;
 99/5=1,9=1/99;
 ---------
 6upg_II_Q
 ---------
 Structure from the checkpoint file:  "6upg_II_Sre.chk"
 Charge =  0 Multiplicity = 5
 Z-Matrix found in chk file.
 Fe,0,-5.8559079232,24.9917437678,7.4144596804
 N,0,-4.1750796384,23.9266719124,7.1891637977
 N,0,-5.5917673817,24.912997316,9.3868674505
 N,0,-7.6883089754,25.7362259753,7.6822372119
 N,0,-6.3075305854,24.6671329529,5.5048240271
 C,0,-3.5915258349,23.5974758233,6.0042106088
 C,0,-2.2980418376,22.9893130526,6.2183244218
 C,0,-2.1138717259,22.946487457,7.5651673674
 C,0,-3.2939689313,23.5368306007,8.1534357274
 C,0,-4.5549987655,24.3581179619,10.0814140588
 C,0,-4.6646968304,24.6398379178,11.4880354533
 C,0,-5.7920139158,25.4026742462,11.6412958536
 C,0,-6.3506917633,25.5631066044,10.3151695435
 C,0,-8.1073558167,26.3833689009,8.8094415147
 C,0,-9.3117540184,27.1299380815,8.5608907411
 C,0,-9.6384426932,26.9030256559,7.249818056
 C,0,-8.6039634353,26.0371933285,6.7239867371
 C,0,-7.4809307816,24.9266892251,4.8624292446
 C,0,-7.4082205522,24.5388505179,3.4715213645
 C,0,-6.1539646704,24.0540974933,3.2775263275
 C,0,-5.4857112397,24.1346878116,4.5577306469
 C,0,-4.1830367667,23.7280612411,4.7629445375
 H,0,-3.6211531537,23.3948148107,3.904545581
 C,0,-3.4872214101,23.6869312715,9.5112194302
 H,0,-2.7212486704,23.3107259261,10.1710997696
 C,0,-7.4972697265,26.2850290764,10.0466497239
 H,0,-7.9633262981,26.8001452702,10.8722637557
 C,0,-8.5630443045,25.5749034176,5.4220854611
 H,0,-9.407323787,25.784521922,4.7843150817
 C,0,-0.966040287,22.4086359418,8.3473223848
 H,0,-0.1992750305,22.0141415565,7.6855890433
 H,0,-1.2958313877,21.6054834356,9.0063493791
 H,0,-0.5204742782,23.1904687457,8.9630573932
 C,0,-1.4021685323,22.5169523514,5.1262527811
 H,0,-1.2005384504,23.3220400715,4.4199533894
 H,0,-1.8669384638,21.6958947218,4.5799532244
 H,0,-0.4548419313,22.1666342568,5.5280567125
 C,0,-3.7478743451,24.1164347041,12.5368334681
 H,0,-2.8468825509,24.7283857832,12.6084436042
 H,0,-3.445609402,23.0956481927,12.3084171898
 H,0,-4.2457546955,24.1247381128,13.5041329397
 C,0,-6.3722230115,25.9442739167,12.8510460116
 H,0,-7.4544817268,25.9925525838,12.8696985596
 C,0,-5.6870659029,26.3765904539,13.9040970533
 H,0,-4.6111621323,26.3931916396,13.9209753833
 H,0,-6.1838347066,26.7559654291,14.7813102681
 C,0,-9.9930296637,28.0086240767,9.5499663581
 H,0,-9.265793003,28.5152137977,10.1827247883
 H,0,-10.65574445,27.4280889151,10.1937221249
 H,0,-10.588323857,28.7581898342,9.0327195999
 C,0,-10.7481441542,27.4176003467,6.4772954915
 H,0,-10.5454019392,27.5880410114,5.4266751554
 C,0,-11.9610104011,27.6796394008,6.9525126963
 H,0,-12.230738587,27.4854988396,7.9758250485
 H,0,-12.7391979634,28.0740108511,6.3205369286
 C,0,-8.5320344312,24.6755907431,2.5041011284
 H,0,-8.7745156816,25.7269047719,2.3461357978
 H,0,-9.4235385474,24.1751119862,2.8809584336
 H,0,-8.2710191078,24.2370720208,1.5443107115
 C,0,-5.5294878118,23.5161308747,2.0369970111
 H,0,-4.6430618284,24.0929204337,1.7732124464
 H,0,-6.226651197,23.5605837078,1.2043680233
 H,0,-5.2289662079,22.4780738982,2.1794336468
 C,0,-3.2110743148,27.0017399335,7.8817998696
 H,0,-2.8508410167,28.0113791786,8.0519325119
 H,0,-2.5847687149,26.4983098298,7.1524412585
 H,0,-3.2344810121,26.4288545759,8.8029809623
 S,0,-4.8919941005,27.0782370111,7.1603625454
 H,0,-5.4358137409,27.7135525263,8.2104255012
 Recover connectivity data from disk.
 Stoichiometry    C31H32FeN4S(5)
 Framework group  C1[X(C31H32FeN4S)]
 Deg. of freedom   201
 Full point group                 C1      NOp   1
 Largest Abelian subgroup         C1      NOp   1
 Largest concise Abelian subgroup C1      NOp   1
                         Standard orientation:                         
 ---------------------------------------------------------------------
 Center     Atomic      Atomic             Coordinates (Angstroms)
 Number     Number       Type             X           Y           Z
 ---------------------------------------------------------------------
      1         26           0       -0.002911   -0.200494   -0.081498
      2          7           0       -1.604560   -1.392145   -0.239640
      3          7           0       -1.190377    1.367176   -0.395663
      4          7           0        1.603482    0.967357   -0.279683
      5          7           0        1.183407   -1.791286   -0.215944
      6          6           0       -1.617113   -2.740953   -0.056393
      7          6           0       -2.970056   -3.249196   -0.062939
      8          6           0       -3.780640   -2.176167   -0.266165
      9          6           0       -2.911230   -1.027231   -0.372314
     10          6           0       -2.546554    1.384226   -0.555877
     11          6           0       -3.044045    2.732991   -0.613487
     12          6           0       -1.955844    3.551566   -0.465148
     13          6           0       -0.811329    2.675574   -0.326602
     14          6           0        1.607179    2.321185   -0.100459
     15          6           0        2.946382    2.817250    0.073243
     16          6           0        3.773249    1.729695   -0.029918
     17          6           0        2.908093    0.588175   -0.241456
     18          6           0        2.535250   -1.820183   -0.385039
     19          6           0        3.022696   -3.180227   -0.439893
     20          6           0        1.935968   -3.979834   -0.280431
     21          6           0        0.798189   -3.096349   -0.150452
     22          6           0       -0.495601   -3.542893    0.025964
     23          1           0       -0.648280   -4.605017    0.136401
     24          6           0       -3.357470    0.262679   -0.573449
     25          1           0       -4.419370    0.413373   -0.688974
     26          6           0        0.482354    3.124487   -0.145554
     27          1           0        0.628430    4.189064   -0.047942
     28          6           0        3.355875   -0.710728   -0.392041
     29          1           0        4.419851   -0.873924   -0.461479
     30          6           0       -5.264744   -2.118376   -0.378685
     31          1           0       -5.698934   -3.108688   -0.268193
     32          1           0       -5.558953   -1.722042   -1.350536
     33          1           0       -5.683731   -1.470788    0.392029
     34          6           0       -3.327902   -4.684055    0.114431
     35          1           0       -2.905206   -5.073429    1.040387
     36          1           0       -2.938611   -5.279190   -0.711921
     37          1           0       -4.406852   -4.811751    0.148476
     38          6           0       -4.461953    3.109215   -0.863451
     39          1           0       -5.046392    3.062191    0.057211
     40          1           0       -4.916701    2.434562   -1.587047
     41          1           0       -4.514712    4.124197   -1.251587
     42          6           0       -1.892139    4.997046   -0.464602
     43          1           0       -0.997688    5.425904   -0.900493
     44          6           0       -2.825871    5.806295    0.023776
     45          1           0       -3.712054    5.433651    0.507456
     46          1           0       -2.721383    6.877411   -0.020946
     47          6           0        3.303334    4.231876    0.366353
     48          1           0        2.559694    4.691875    1.015422
     49          1           0        3.358711    4.817048   -0.552963
     50          1           0        4.272345    4.275890    0.859150
     51          6           0        5.214221    1.657842    0.077095
     52          1           0        5.604603    0.743671    0.508200
     53          6           0        6.063073    2.603318   -0.311577
     54          1           0        5.733441    3.509982   -0.787933
     55          1           0        7.127240    2.487586   -0.190535
     56          6           0        4.451717   -3.550457   -0.635817
     57          1           0        5.052205   -3.218203    0.211551
     58          1           0        4.847750   -3.081847   -1.536285
     59          1           0        4.562058   -4.627628   -0.731482
     60          6           0        1.851814   -5.466590   -0.252724
     61          1           0        1.429342   -5.808787    0.691966
     62          1           0        2.837339   -5.910330   -0.367258
     63          1           0        1.215236   -5.828594   -1.060117
     64          6           0       -1.775694   -0.040821    2.761982
     65          1           0       -1.840295    0.337731    3.777171
     66          1           0       -2.095879   -1.077136    2.727368
     67          1           0       -2.375858    0.551586    2.079209
     68         16           0       -0.026003   -0.018139    2.223575
     69          1           0        0.113465    1.310815    2.351747
 ---------------------------------------------------------------------
 Rotational constants (GHZ):           0.1117281           0.1095535           0.0599426
 General basis read from cards:  (5D, 7F)
 There are   644 symmetry adapted cartesian basis functions of A   symmetry.
 There are   605 symmetry adapted basis functions of A   symmetry.
   605 basis functions,  1246 primitive gaussians,   644 cartesian basis functions
   146 alpha electrons      142 beta electrons
       nuclear repulsion energy      5043.9585703450 Hartrees.
 NAtoms=   69 NActive=   69 NUniq=   69 SFac= 1.00D+00 NAtFMM=   60 NAOKFM=T Big=T
 Integral buffers will be    131072 words long.
 Raffenetti 2 integral format.
 Two-electron integral symmetry is turned on.
 R6APFD:  NTU= -4 IXU= 1 FactS= 1.050
 Nuclear repulsion after empirical dispersion term =     5043.8260836191 Hartrees.
 One-electron integrals computed using PRISM.
 NBasis=   605 RedAO= T EigKep=  2.57D-04  NBF=   605
 NBsUse=   605 1.00D-06 EigRej= -1.00D+00 NBFU=   605
 ExpMin= 4.20D-02 ExpMax= 3.01D+05 ExpMxC= 3.30D+03 IAcc=3 IRadAn=         5 AccDes= 0.00D+00
 Harris functional with IExCor= 3731 and IRadAn=       5 diagonalized for initial guess.
 HarFok:  IExCor= 3731 AccDes= 0.00D+00 IRadAn=         5 IDoV= 1 UseB2=F ITyADJ=14
 ICtDFT=  3500011 ScaDFX=  1.000000  1.000000  1.000000  1.000000
 FoFCou: FMM=F IPFlag=           0 FMFlag=      100000 FMFlg1=        2001
         NFxFlg=           0 DoJE=T BraDBF=F KetDBF=T FulRan=T
         wScrn=  0.000000 ICntrl=       500 IOpCl=  0 I1Cent=   200000004 NGrid=           0
         NMat0=    1 NMatS0=      1 NMatT0=    0 NMatD0=    1 NMtDS0=    0 NMtDT0=    0
 Petite list used in FoFCou.
 Initial guess <Sx>= 0.0000 <Sy>= 0.0000 <Sz>= 2.0000 <S**2>= 6.0000 S= 2.0000
 Requested convergence on RMS density matrix=1.00D-08 within 999 cycles.
 Requested convergence on MAX density matrix=1.00D-06.
 Requested convergence on             energy=1.00D-06.
 No special actions if energy rises.
 EnCoef did   100 forward-backward iterations
 EnCoef did   100 forward-backward iterations
 EnCoef did   100 forward-backward iterations
 EnCoef did    16 forward-backward iterations
 EnCoef did     7 forward-backward iterations
 Restarting incremental Fock formation.
 Restarting incremental Fock formation.
 Restarting incremental Fock formation.
 SCF Done:  E(UAPFD) =  -3080.24095397     A.U. after   67 cycles
            NFock= 67  Conv=0.43D-08     -V/T= 2.0030
 <Sx>= 0.0000 <Sy>= 0.0000 <Sz>= 2.0000 <S**2>= 6.0613 S= 2.0122
 <L.S>=  0.00000000000    
 Annihilation of the first spin contaminant:
 S**2 before annihilation     6.0613,   after     6.0003

 **********************************************************************

            Population analysis using the SCF Density.

 **********************************************************************

 Orbital symmetries:
 Alpha Orbitals:
       Occupied  (A) (A) (A) (A) (A) (A) (A) (A) (A) (A) (A) (A)
                 (A) (A) (A) (A) (A) (A) (A) (A) (A) (A) (A) (A)
                 (A) (A) (A) (A) (A) (A) (A) (A) (A) (A) (A) (A)
                 (A) (A) (A) (A) (A) (A) (A) (A) (A) (A) (A) (A)
                 (A) (A) (A) (A) (A) (A) (A) (A) (A) (A) (A) (A)
                 (A) (A) (A) (A) (A) (A) (A) (A) (A) (A) (A) (A)
                 (A) (A) (A) (A) (A) (A) (A) (A) (A) (A) (A) (A)
                 (A) (A) (A) (A) (A) (A) (A) (A) (A) (A) (A) (A)
                 (A) (A) (A) (A) (A) (A) (A) (A) (A) (A) (A) (A)
                 (A) (A) (A) (A) (A) (A) (A) (A) (A) (A) (A) (A)
                 (A) (A) (A) (A) (A) (A) (A) (A) (A) (A) (A) (A)
                 (A) (A) (A) (A) (A) (A) (A) (A) (A) (A) (A) (A)
                 (A) (A)
       Virtual   (A) (A) (A) (A) (A) (A) (A) (A) (A) (A) (A) (A)
                 (A) (A) (A) (A) (A) (A) (A) (A) (A) (A) (A) (A)
                 (A) (A) (A) (A) (A) (A) (A) (A) (A) (A) (A) (A)
                 (A) (A) (A) (A) (A) (A) (A) (A) (A) (A) (A) (A)
                 (A) (A) (A) (A) (A) (A) (A) (A) (A) (A) (A) (A)
                 (A) (A) (A) (A) (A) (A) (A) (A) (A) (A) (A) (A)
                 (A) (A) (A) (A) (A) (A) (A) (A) (A) (A) (A) (A)
                 (A) (A) (A) (A) (A) (A) (A) (A) (A) (A) (A) (A)
                 (A) (A) (A) (A) (A) (A) (A) (A) (A) (A) (A) (A)
                 (A) (A) (A) (A) (A) (A) (A) (A) (A) (A) (A) (A)
                 (A) (A) (A) (A) (A) (A) (A) (A) (A) (A) (A) (A)
                 (A) (A) (A) (A) (A) (A) (A) (A) (A) (A) (A) (A)
                 (A) (A) (A) (A) (A) (A) (A) (A) (A) (A) (A) (A)
                 (A) (A) (A) (A) (A) (A) (A) (A) (A) (A) (A) (A)
                 (A) (A) (A) (A) (A) (A) (A) (A) (A) (A) (A) (A)
                 (A) (A) (A) (A) (A) (A) (A) (A) (A) (A) (A) (A)
                 (A) (A) (A) (A) (A) (A) (A) (A) (A) (A) (A) (A)
                 (A) (A) (A) (A) (A) (A) (A) (A) (A) (A) (A) (A)
                 (A) (A) (A) (A) (A) (A) (A) (A) (A) (A) (A) (A)
                 (A) (A) (A) (A) (A) (A) (A) (A) (A) (A) (A) (A)
                 (A) (A) (A) (A) (A) (A) (A) (A) (A) (A) (A) (A)
                 (A) (A) (A) (A) (A) (A) (A) (A) (A) (A) (A) (A)
                 (A) (A) (A) (A) (A) (A) (A) (A) (A) (A) (A) (A)
                 (A) (A) (A) (A) (A) (A) (A) (A) (A) (A) (A) (A)
                 (A) (A) (A) (A) (A) (A) (A) (A) (A) (A) (A) (A)
                 (A) (A) (A) (A) (A) (A) (A) (A) (A) (A) (A) (A)
                 (A) (A) (A) (A) (A) (A) (A) (A) (A) (A) (A) (A)
                 (A) (A) (A) (A) (A) (A) (A) (A) (A) (A) (A) (A)
                 (A) (A) (A) (A) (A) (A) (A) (A) (A) (A) (A) (A)
                 (A) (A) (A) (A) (A) (A) (A) (A) (A) (A) (A) (A)
                 (A) (A) (A) (A) (A) (A) (A) (A) (A) (A) (A) (A)
                 (A) (A) (A) (A) (A) (A) (A) (A) (A) (A) (A) (A)
                 (A) (A) (A) (A) (A) (A) (A) (A) (A) (A) (A) (A)
                 (A) (A) (A) (A) (A) (A) (A) (A) (A) (A) (A) (A)
                 (A) (A) (A) (A) (A) (A) (A) (A) (A) (A) (A) (A)
                 (A) (A) (A) (A) (A) (A) (A) (A) (A) (A) (A) (A)
                 (A) (A) (A) (A) (A) (A) (A) (A) (A) (A) (A) (A)
                 (A) (A) (A) (A) (A) (A) (A) (A) (A) (A) (A) (A)
                 (A) (A) (A)
 Beta  Orbitals:
       Occupied  (A) (A) (A) (A) (A) (A) (A) (A) (A) (A) (A) (A)
                 (A) (A) (A) (A) (A) (A) (A) (A) (A) (A) (A) (A)
                 (A) (A) (A) (A) (A) (A) (A) (A) (A) (A) (A) (A)
                 (A) (A) (A) (A) (A) (A) (A) (A) (A) (A) (A) (A)
                 (A) (A) (A) (A) (A) (A) (A) (A) (A) (A) (A) (A)
                 (A) (A) (A) (A) (A) (A) (A) (A) (A) (A) (A) (A)
                 (A) (A) (A) (A) (A) (A) (A) (A) (A) (A) (A) (A)
                 (A) (A) (A) (A) (A) (A) (A) (A) (A) (A) (A) (A)
                 (A) (A) (A) (A) (A) (A) (A) (A) (A) (A) (A) (A)
                 (A) (A) (A) (A) (A) (A) (A) (A) (A) (A) (A) (A)
                 (A) (A) (A) (A) (A) (A) (A) (A) (A) (A) (A) (A)
                 (A) (A) (A) (A) (A) (A) (A) (A) (A) (A)
       Virtual   (A) (A) (A) (A) (A) (A) (A) (A) (A) (A) (A) (A)
                 (A) (A) (A) (A) (A) (A) (A) (A) (A) (A) (A) (A)
                 (A) (A) (A) (A) (A) (A) (A) (A) (A) (A) (A) (A)
                 (A) (A) (A) (A) (A) (A) (A) (A) (A) (A) (A) (A)
                 (A) (A) (A) (A) (A) (A) (A) (A) (A) (A) (A) (A)
                 (A) (A) (A) (A) (A) (A) (A) (A) (A) (A) (A) (A)
                 (A) (A) (A) (A) (A) (A) (A) (A) (A) (A) (A) (A)
                 (A) (A) (A) (A) (A) (A) (A) (A) (A) (A) (A) (A)
                 (A) (A) (A) (A) (A) (A) (A) (A) (A) (A) (A) (A)
                 (A) (A) (A) (A) (A) (A) (A) (A) (A) (A) (A) (A)
                 (A) (A) (A) (A) (A) (A) (A) (A) (A) (A) (A) (A)
                 (A) (A) (A) (A) (A) (A) (A) (A) (A) (A) (A) (A)
                 (A) (A) (A) (A) (A) (A) (A) (A) (A) (A) (A) (A)
                 (A) (A) (A) (A) (A) (A) (A) (A) (A) (A) (A) (A)
                 (A) (A) (A) (A) (A) (A) (A) (A) (A) (A) (A) (A)
                 (A) (A) (A) (A) (A) (A) (A) (A) (A) (A) (A) (A)
                 (A) (A) (A) (A) (A) (A) (A) (A) (A) (A) (A) (A)
                 (A) (A) (A) (A) (A) (A) (A) (A) (A) (A) (A) (A)
                 (A) (A) (A) (A) (A) (A) (A) (A) (A) (A) (A) (A)
                 (A) (A) (A) (A) (A) (A) (A) (A) (A) (A) (A) (A)
                 (A) (A) (A) (A) (A) (A) (A) (A) (A) (A) (A) (A)
                 (A) (A) (A) (A) (A) (A) (A) (A) (A) (A) (A) (A)
                 (A) (A) (A) (A) (A) (A) (A) (A) (A) (A) (A) (A)
                 (A) (A) (A) (A) (A) (A) (A) (A) (A) (A) (A) (A)
                 (A) (A) (A) (A) (A) (A) (A) (A) (A) (A) (A) (A)
                 (A) (A) (A) (A) (A) (A) (A) (A) (A) (A) (A) (A)
                 (A) (A) (A) (A) (A) (A) (A) (A) (A) (A) (A) (A)
                 (A) (A) (A) (A) (A) (A) (A) (A) (A) (A) (A) (A)
                 (A) (A) (A) (A) (A) (A) (A) (A) (A) (A) (A) (A)
                 (A) (A) (A) (A) (A) (A) (A) (A) (A) (A) (A) (A)
                 (A) (A) (A) (A) (A) (A) (A) (A) (A) (A) (A) (A)
                 (A) (A) (A) (A) (A) (A) (A) (A) (A) (A) (A) (A)
                 (A) (A) (A) (A) (A) (A) (A) (A) (A) (A) (A) (A)
                 (A) (A) (A) (A) (A) (A) (A) (A) (A) (A) (A) (A)
                 (A) (A) (A) (A) (A) (A) (A) (A) (A) (A) (A) (A)
                 (A) (A) (A) (A) (A) (A) (A) (A) (A) (A) (A) (A)
                 (A) (A) (A) (A) (A) (A) (A) (A) (A) (A) (A) (A)
                 (A) (A) (A) (A) (A) (A) (A) (A) (A) (A) (A) (A)
                 (A) (A) (A) (A) (A) (A) (A)
 The electronic state is 5-A.
 Alpha  occ. eigenvalues -- -256.19171 -88.95635 -30.08357 -25.93051 -25.90989
 Alpha  occ. eigenvalues --  -25.90527 -14.34883 -14.34732 -14.34614 -14.34520
 Alpha  occ. eigenvalues --  -10.22735 -10.22689 -10.22409 -10.22346 -10.22332
 Alpha  occ. eigenvalues --  -10.22254 -10.22160 -10.22095 -10.22083 -10.20681
 Alpha  occ. eigenvalues --  -10.20397 -10.20368 -10.20004 -10.19888 -10.19879
 Alpha  occ. eigenvalues --  -10.19873 -10.19830 -10.19778 -10.19760 -10.19731
 Alpha  occ. eigenvalues --  -10.19605 -10.19556 -10.19503 -10.19497 -10.19481
 Alpha  occ. eigenvalues --  -10.19395 -10.19359 -10.19351 -10.19347 -10.19126
 Alpha  occ. eigenvalues --  -10.19090  -7.98959  -5.93553  -5.93257  -5.92690
 Alpha  occ. eigenvalues --   -3.54010  -2.34089  -2.29462  -2.28801  -0.97658
 Alpha  occ. eigenvalues --   -0.96670  -0.96599  -0.95630  -0.82847  -0.82389
 Alpha  occ. eigenvalues --   -0.81955  -0.81290  -0.80964  -0.80816  -0.80154
 Alpha  occ. eigenvalues --   -0.80080  -0.77168  -0.76109  -0.74731  -0.74512
 Alpha  occ. eigenvalues --   -0.73601  -0.71509  -0.70650  -0.68798  -0.68478
 Alpha  occ. eigenvalues --   -0.68339  -0.66971  -0.64613  -0.64559  -0.61089
 Alpha  occ. eigenvalues --   -0.60448  -0.58235  -0.57269  -0.54945  -0.54148
 Alpha  occ. eigenvalues --   -0.53794  -0.53222  -0.51557  -0.51497  -0.50956
 Alpha  occ. eigenvalues --   -0.49459  -0.48265  -0.48037  -0.47109  -0.45852
 Alpha  occ. eigenvalues --   -0.45582  -0.45093  -0.45079  -0.44577  -0.44121
 Alpha  occ. eigenvalues --   -0.43948  -0.43840  -0.43577  -0.43277  -0.43105
 Alpha  occ. eigenvalues --   -0.42730  -0.42115  -0.41817  -0.41655  -0.41286
 Alpha  occ. eigenvalues --   -0.41128  -0.40692  -0.40544  -0.40146  -0.40074
 Alpha  occ. eigenvalues --   -0.39852  -0.39504  -0.39333  -0.39005  -0.38948
 Alpha  occ. eigenvalues --   -0.38596  -0.38197  -0.38024  -0.37519  -0.37232
 Alpha  occ. eigenvalues --   -0.36947  -0.36665  -0.36134  -0.35114  -0.34748
 Alpha  occ. eigenvalues --   -0.34097  -0.33983  -0.33714  -0.32633  -0.31713
 Alpha  occ. eigenvalues --   -0.31459  -0.31188  -0.30234  -0.29654  -0.29374
 Alpha  occ. eigenvalues --   -0.28155  -0.26726  -0.26295  -0.24831  -0.22644
 Alpha  occ. eigenvalues --   -0.22065  -0.21832  -0.21314  -0.18084  -0.17932
 Alpha  occ. eigenvalues --   -0.16489
 Alpha virt. eigenvalues --   -0.06756  -0.06668  -0.01723   0.01283   0.02534
 Alpha virt. eigenvalues --    0.03074   0.06022   0.06293   0.08359   0.09135
 Alpha virt. eigenvalues --    0.09505   0.10322   0.10570   0.10811   0.11651
 Alpha virt. eigenvalues --    0.11791   0.12614   0.13085   0.13686   0.13903
 Alpha virt. eigenvalues --    0.14591   0.14729   0.15007   0.15166   0.15479
 Alpha virt. eigenvalues --    0.15895   0.16018   0.16438   0.16729   0.16854
 Alpha virt. eigenvalues --    0.17182   0.17324   0.17447   0.17670   0.18421
 Alpha virt. eigenvalues --    0.18539   0.18758   0.19008   0.19522   0.20132
 Alpha virt. eigenvalues --    0.20573   0.21049   0.21227   0.21617   0.22282
 Alpha virt. eigenvalues --    0.22323   0.23036   0.24021   0.24276   0.24604
 Alpha virt. eigenvalues --    0.25425   0.25560   0.26026   0.26487   0.26686
 Alpha virt. eigenvalues --    0.27043   0.27339   0.27600   0.29376   0.29816
 Alpha virt. eigenvalues --    0.30501   0.31399   0.32454   0.32861   0.32991
 Alpha virt. eigenvalues --    0.34064   0.34919   0.35318   0.35616   0.36091
 Alpha virt. eigenvalues --    0.36137   0.36717   0.37748   0.38164   0.38850
 Alpha virt. eigenvalues --    0.39645   0.42602   0.43058   0.43457   0.43734
 Alpha virt. eigenvalues --    0.44082   0.44939   0.46032   0.46488   0.48051
 Alpha virt. eigenvalues --    0.48175   0.48457   0.49478   0.50075   0.50634
 Alpha virt. eigenvalues --    0.51092   0.51490   0.51553   0.52429   0.52835
 Alpha virt. eigenvalues --    0.52986   0.53248   0.53798   0.54361   0.54849
 Alpha virt. eigenvalues --    0.55262   0.55587   0.56116   0.56498   0.57764
 Alpha virt. eigenvalues --    0.58124   0.58186   0.58571   0.59693   0.59735
 Alpha virt. eigenvalues --    0.59936   0.60414   0.60680   0.61040   0.62010
 Alpha virt. eigenvalues --    0.62469   0.62652   0.62825   0.63373   0.63662
 Alpha virt. eigenvalues --    0.64688   0.64882   0.65300   0.65590   0.66141
 Alpha virt. eigenvalues --    0.66587   0.66826   0.67410   0.67592   0.68019
 Alpha virt. eigenvalues --    0.68277   0.69093   0.69844   0.70320   0.70628
 Alpha virt. eigenvalues --    0.70796   0.71862   0.72185   0.72449   0.72874
 Alpha virt. eigenvalues --    0.74391   0.74624   0.75052   0.75337   0.75935
 Alpha virt. eigenvalues --    0.76167   0.76605   0.76729   0.77536   0.78045
 Alpha virt. eigenvalues --    0.78156   0.78569   0.78710   0.79110   0.79387
 Alpha virt. eigenvalues --    0.79784   0.80494   0.80903   0.81341   0.81699
 Alpha virt. eigenvalues --    0.82525   0.82893   0.83616   0.84146   0.85101
 Alpha virt. eigenvalues --    0.86150   0.86433   0.86740   0.87157   0.87357
 Alpha virt. eigenvalues --    0.87498   0.87580   0.88423   0.88750   0.89258
 Alpha virt. eigenvalues --    0.89335   0.89972   0.90435   0.91046   0.91319
 Alpha virt. eigenvalues --    0.91882   0.92277   0.92454   0.92894   0.93122
 Alpha virt. eigenvalues --    0.93321   0.93725   0.93996   0.94717   0.94959
 Alpha virt. eigenvalues --    0.95447   0.96060   0.96594   0.97410   0.98461
 Alpha virt. eigenvalues --    0.98549   0.98692   0.99320   0.99642   0.99753
 Alpha virt. eigenvalues --    1.00185   1.00613   1.00772   1.00969   1.01031
 Alpha virt. eigenvalues --    1.02039   1.02838   1.03624   1.04755   1.04811
 Alpha virt. eigenvalues --    1.05119   1.05981   1.06753   1.07304   1.07609
 Alpha virt. eigenvalues --    1.08881   1.09063   1.10181   1.10373   1.12083
 Alpha virt. eigenvalues --    1.14124   1.15016   1.15406   1.16315   1.16878
 Alpha virt. eigenvalues --    1.17454   1.17728   1.18193   1.18643   1.19715
 Alpha virt. eigenvalues --    1.20011   1.20682   1.20925   1.21946   1.22713
 Alpha virt. eigenvalues --    1.22814   1.23941   1.24753   1.25608   1.26166
 Alpha virt. eigenvalues --    1.26855   1.27113   1.28597   1.28965   1.29359
 Alpha virt. eigenvalues --    1.30376   1.31038   1.31594   1.33367   1.34011
 Alpha virt. eigenvalues --    1.35459   1.35674   1.36853   1.37011   1.37612
 Alpha virt. eigenvalues --    1.38048   1.38604   1.39124   1.39219   1.39578
 Alpha virt. eigenvalues --    1.39999   1.41281   1.43066   1.44750   1.45080
 Alpha virt. eigenvalues --    1.46633   1.47014   1.47762   1.48559   1.49982
 Alpha virt. eigenvalues --    1.52457   1.53166   1.53939   1.54234   1.54784
 Alpha virt. eigenvalues --    1.55171   1.55485   1.56701   1.56950   1.59152
 Alpha virt. eigenvalues --    1.59423   1.60756   1.61535   1.62423   1.63523
 Alpha virt. eigenvalues --    1.64093   1.64624   1.66301   1.67900   1.69213
 Alpha virt. eigenvalues --    1.69600   1.70779   1.71153   1.71688   1.73236
 Alpha virt. eigenvalues --    1.74810   1.77440   1.77915   1.79075   1.79399
 Alpha virt. eigenvalues --    1.79784   1.80258   1.80819   1.81705   1.82246
 Alpha virt. eigenvalues --    1.82732   1.83025   1.83319   1.84044   1.84361
 Alpha virt. eigenvalues --    1.85689   1.86411   1.87265   1.87719   1.88135
 Alpha virt. eigenvalues --    1.88916   1.90313   1.91190   1.91960   1.92305
 Alpha virt. eigenvalues --    1.92705   1.93053   1.93618   1.94540   1.94782
 Alpha virt. eigenvalues --    1.95094   1.95879   1.97925   1.99831   1.99895
 Alpha virt. eigenvalues --    2.00224   2.00718   2.01385   2.01779   2.02134
 Alpha virt. eigenvalues --    2.03552   2.04528   2.05108   2.05521   2.06194
 Alpha virt. eigenvalues --    2.07032   2.08055   2.08554   2.09256   2.11160
 Alpha virt. eigenvalues --    2.12537   2.12978   2.13785   2.15088   2.15449
 Alpha virt. eigenvalues --    2.16045   2.16761   2.17674   2.18406   2.19432
 Alpha virt. eigenvalues --    2.20708   2.21631   2.22328   2.22963   2.23479
 Alpha virt. eigenvalues --    2.23621   2.24414   2.25466   2.25730   2.26290
 Alpha virt. eigenvalues --    2.26434   2.27035   2.27533   2.27740   2.28566
 Alpha virt. eigenvalues --    2.29592   2.29852   2.30078   2.30606   2.31131
 Alpha virt. eigenvalues --    2.31964   2.32148   2.33023   2.34785   2.35439
 Alpha virt. eigenvalues --    2.35757   2.36072   2.36576   2.37416   2.37881
 Alpha virt. eigenvalues --    2.38504   2.40307   2.40835   2.41612   2.42442
 Alpha virt. eigenvalues --    2.42848   2.43286   2.43888   2.44627   2.45368
 Alpha virt. eigenvalues --    2.45818   2.48090   2.49121   2.50599   2.52647
 Alpha virt. eigenvalues --    2.52980   2.53154   2.53369   2.53941   2.55582
 Alpha virt. eigenvalues --    2.56199   2.56780   2.57519   2.58288   2.60949
 Alpha virt. eigenvalues --    2.61304   2.62797   2.65087   2.66201   2.66705
 Alpha virt. eigenvalues --    2.68789   2.68884   2.71200   2.71792   2.72942
 Alpha virt. eigenvalues --    2.75862   2.77165   2.79110   2.80320   2.80387
 Alpha virt. eigenvalues --    2.81339   2.87353   2.88332   2.89397   2.91063
 Alpha virt. eigenvalues --    2.92243   2.92511   2.95641   2.96426   2.97304
 Alpha virt. eigenvalues --    2.97641   2.99098   2.99625   3.00719   3.05274
 Alpha virt. eigenvalues --    3.05805   3.13248   3.14271   3.20717   3.23438
 Alpha virt. eigenvalues --    3.24080   3.30028   3.30245   3.34467   3.39449
 Alpha virt. eigenvalues --    3.39843   3.41023   3.46156   3.46570   3.52786
 Alpha virt. eigenvalues --    3.55491   3.81980   3.98259   4.11086
  Beta  occ. eigenvalues -- -256.19036 -88.95579 -30.00381 -25.85405 -25.84858
  Beta  occ. eigenvalues --  -25.84317 -14.34720 -14.34541 -14.34413 -14.34350
  Beta  occ. eigenvalues --  -10.22746 -10.22665 -10.22416 -10.22328 -10.22314
  Beta  occ. eigenvalues --  -10.22251 -10.22186 -10.22108 -10.22101 -10.20677
  Beta  occ. eigenvalues --  -10.20402 -10.20341 -10.20022 -10.19875 -10.19869
  Beta  occ. eigenvalues --  -10.19862 -10.19836 -10.19784 -10.19760 -10.19718
  Beta  occ. eigenvalues --  -10.19582 -10.19554 -10.19505 -10.19494 -10.19471
  Beta  occ. eigenvalues --  -10.19394 -10.19359 -10.19354 -10.19347 -10.19122
  Beta  occ. eigenvalues --  -10.19079  -7.98894  -5.93508  -5.93192  -5.92563
  Beta  occ. eigenvalues --   -3.34875  -2.10893  -2.10413  -2.09780  -0.97450
  Beta  occ. eigenvalues --   -0.96471  -0.96392  -0.95415  -0.82831  -0.82314
  Beta  occ. eigenvalues --   -0.81895  -0.81201  -0.80868  -0.80634  -0.80113
  Beta  occ. eigenvalues --   -0.80055  -0.77146  -0.76079  -0.74707  -0.74483
  Beta  occ. eigenvalues --   -0.73591  -0.71457  -0.70576  -0.68704  -0.68373
  Beta  occ. eigenvalues --   -0.68297  -0.66820  -0.64584  -0.64532  -0.61028
  Beta  occ. eigenvalues --   -0.60382  -0.58189  -0.57064  -0.54891  -0.54078
  Beta  occ. eigenvalues --   -0.53718  -0.52975  -0.51437  -0.51386  -0.50855
  Beta  occ. eigenvalues --   -0.49088  -0.48197  -0.47670  -0.46949  -0.45642
  Beta  occ. eigenvalues --   -0.45256  -0.45020  -0.44782  -0.44480  -0.44061
  Beta  occ. eigenvalues --   -0.43798  -0.43761  -0.43511  -0.43206  -0.43057
  Beta  occ. eigenvalues --   -0.42674  -0.42058  -0.41818  -0.41654  -0.40999
  Beta  occ. eigenvalues --   -0.40669  -0.40509  -0.40406  -0.39953  -0.39793
  Beta  occ. eigenvalues --   -0.39556  -0.39298  -0.38892  -0.38807  -0.38243
  Beta  occ. eigenvalues --   -0.37993  -0.37373  -0.37265  -0.36841  -0.36585
  Beta  occ. eigenvalues --   -0.36216  -0.35645  -0.35105  -0.34708  -0.34377
  Beta  occ. eigenvalues --   -0.34032  -0.32120  -0.31562  -0.30644  -0.30375
  Beta  occ. eigenvalues --   -0.29715  -0.29151  -0.28236  -0.26875  -0.26605
  Beta  occ. eigenvalues --   -0.24003  -0.23201  -0.22731  -0.22094  -0.18779
  Beta  occ. eigenvalues --   -0.18052  -0.16031
  Beta virt. eigenvalues --   -0.07468  -0.06210  -0.01730  -0.01058  -0.00879
  Beta virt. eigenvalues --    0.01258   0.01851   0.02808   0.03169   0.05648
  Beta virt. eigenvalues --    0.07111   0.08540   0.08807   0.09357   0.09700
  Beta virt. eigenvalues --    0.10623   0.10781   0.11557   0.11683   0.12354
  Beta virt. eigenvalues --    0.12668   0.13619   0.13764   0.13958   0.14705
  Beta virt. eigenvalues --    0.14796   0.15144   0.15240   0.15651   0.15970
  Beta virt. eigenvalues --    0.16080   0.16488   0.16798   0.16964   0.17248
  Beta virt. eigenvalues --    0.17379   0.17491   0.17743   0.18462   0.18593
  Beta virt. eigenvalues --    0.18826   0.19061   0.19567   0.20148   0.20587
  Beta virt. eigenvalues --    0.21067   0.21266   0.21626   0.22349   0.22511
  Beta virt. eigenvalues --    0.23393   0.24140   0.24564   0.25215   0.25653
  Beta virt. eigenvalues --    0.26002   0.26247   0.26715   0.27066   0.27194
  Beta virt. eigenvalues --    0.27471   0.29562   0.29987   0.30546   0.30667
  Beta virt. eigenvalues --    0.31854   0.32752   0.33109   0.33577   0.34495
  Beta virt. eigenvalues --    0.35151   0.35715   0.35807   0.36307   0.36496
  Beta virt. eigenvalues --    0.37057   0.38128   0.38477   0.39188   0.39805
  Beta virt. eigenvalues --    0.42919   0.43293   0.43589   0.43828   0.44207
  Beta virt. eigenvalues --    0.45502   0.46185   0.46900   0.48184   0.48312
  Beta virt. eigenvalues --    0.48653   0.49673   0.50256   0.51059   0.51153
  Beta virt. eigenvalues --    0.51624   0.52036   0.52612   0.52965   0.53040
  Beta virt. eigenvalues --    0.53377   0.53959   0.54441   0.54879   0.55460
  Beta virt. eigenvalues --    0.55653   0.56254   0.56916   0.57821   0.58174
  Beta virt. eigenvalues --    0.58228   0.58591   0.59748   0.59816   0.59973
  Beta virt. eigenvalues --    0.60515   0.60763   0.61086   0.62087   0.62513
  Beta virt. eigenvalues --    0.62714   0.62985   0.63470   0.63738   0.64820
  Beta virt. eigenvalues --    0.65119   0.65355   0.65649   0.66270   0.66654
  Beta virt. eigenvalues --    0.66941   0.67597   0.67676   0.68118   0.68347
  Beta virt. eigenvalues --    0.69154   0.70055   0.70468   0.70827   0.70993
  Beta virt. eigenvalues --    0.72108   0.72358   0.72670   0.73256   0.74449
  Beta virt. eigenvalues --    0.74669   0.75278   0.75838   0.76149   0.76343
  Beta virt. eigenvalues --    0.76795   0.76950   0.77616   0.78138   0.78226
  Beta virt. eigenvalues --    0.78672   0.79095   0.79242   0.79692   0.79986
  Beta virt. eigenvalues --    0.80672   0.80966   0.81763   0.82122   0.82743
  Beta virt. eigenvalues --    0.83013   0.83700   0.84328   0.85942   0.86644
  Beta virt. eigenvalues --    0.86653   0.87093   0.87424   0.87463   0.87838
  Beta virt. eigenvalues --    0.87906   0.88762   0.89116   0.89363   0.89886
  Beta virt. eigenvalues --    0.90420   0.90881   0.91243   0.91508   0.91971
  Beta virt. eigenvalues --    0.92380   0.92740   0.93001   0.93367   0.93466
  Beta virt. eigenvalues --    0.93797   0.94176   0.94850   0.95022   0.95582
  Beta virt. eigenvalues --    0.96242   0.96692   0.97512   0.98557   0.98719
  Beta virt. eigenvalues --    0.98896   0.99397   0.99690   0.99919   1.00246
  Beta virt. eigenvalues --    1.00797   1.00832   1.01002   1.01167   1.02175
  Beta virt. eigenvalues --    1.02920   1.03687   1.04820   1.04966   1.05733
  Beta virt. eigenvalues --    1.06401   1.06868   1.07447   1.07973   1.09203
  Beta virt. eigenvalues --    1.09358   1.10390   1.10587   1.13388   1.14315
  Beta virt. eigenvalues --    1.15099   1.15823   1.16504   1.17171   1.17561
  Beta virt. eigenvalues --    1.17878   1.18370   1.19020   1.19766   1.20155
  Beta virt. eigenvalues --    1.20861   1.21064   1.22047   1.22845   1.23087
  Beta virt. eigenvalues --    1.24164   1.25029   1.26153   1.26489   1.27390
  Beta virt. eigenvalues --    1.27787   1.28854   1.29513   1.30736   1.31220
  Beta virt. eigenvalues --    1.31707   1.32574   1.33519   1.34104   1.35645
  Beta virt. eigenvalues --    1.35710   1.37097   1.37131   1.37721   1.38166
  Beta virt. eigenvalues --    1.38761   1.39196   1.39367   1.39729   1.40192
  Beta virt. eigenvalues --    1.41444   1.43284   1.44870   1.45230   1.46741
  Beta virt. eigenvalues --    1.47069   1.47964   1.48918   1.50360   1.53071
  Beta virt. eigenvalues --    1.53571   1.54011   1.54540   1.55068   1.55607
  Beta virt. eigenvalues --    1.55762   1.57037   1.57215   1.59385   1.59731
  Beta virt. eigenvalues --    1.61044   1.61889   1.62962   1.63637   1.64463
  Beta virt. eigenvalues --    1.64830   1.66364   1.68283   1.69320   1.69662
  Beta virt. eigenvalues --    1.70863   1.71279   1.71784   1.73386   1.74999
  Beta virt. eigenvalues --    1.77689   1.78162   1.79175   1.79465   1.79974
  Beta virt. eigenvalues --    1.80316   1.80935   1.81987   1.82307   1.83007
  Beta virt. eigenvalues --    1.83192   1.83599   1.84266   1.84537   1.85893
  Beta virt. eigenvalues --    1.86577   1.87350   1.87824   1.88185   1.89012
  Beta virt. eigenvalues --    1.90417   1.91630   1.92078   1.92493   1.92883
  Beta virt. eigenvalues --    1.93263   1.94095   1.94667   1.94958   1.95219
  Beta virt. eigenvalues --    1.96014   1.99759   1.99907   2.00105   2.00404
  Beta virt. eigenvalues --    2.00898   2.01451   2.01950   2.02882   2.03799
  Beta virt. eigenvalues --    2.04656   2.05332   2.05638   2.06401   2.07324
  Beta virt. eigenvalues --    2.08235   2.08706   2.09385   2.11970   2.13053
  Beta virt. eigenvalues --    2.13827   2.14819   2.15168   2.15733   2.16167
  Beta virt. eigenvalues --    2.16904   2.17728   2.18502   2.19632   2.20759
  Beta virt. eigenvalues --    2.21760   2.22561   2.23449   2.23840   2.24711
  Beta virt. eigenvalues --    2.24917   2.26080   2.26254   2.26566   2.27086
  Beta virt. eigenvalues --    2.27471   2.27707   2.28764   2.29739   2.29838
  Beta virt. eigenvalues --    2.30638   2.30718   2.30836   2.31573   2.32288
  Beta virt. eigenvalues --    2.32752   2.33338   2.35004   2.35460   2.36022
  Beta virt. eigenvalues --    2.36112   2.36725   2.37705   2.38148   2.38584
  Beta virt. eigenvalues --    2.40378   2.40981   2.41759   2.42548   2.42976
  Beta virt. eigenvalues --    2.43383   2.43941   2.44907   2.45650   2.45915
  Beta virt. eigenvalues --    2.48599   2.49657   2.50993   2.52787   2.53091
  Beta virt. eigenvalues --    2.53386   2.53540   2.54109   2.55762   2.56398
  Beta virt. eigenvalues --    2.56951   2.57602   2.58687   2.61008   2.61378
  Beta virt. eigenvalues --    2.62845   2.65168   2.66671   2.66775   2.68951
  Beta virt. eigenvalues --    2.69051   2.71354   2.71912   2.73054   2.75935
  Beta virt. eigenvalues --    2.77244   2.79348   2.80376   2.80571   2.81474
  Beta virt. eigenvalues --    2.87480   2.88417   2.89517   2.91186   2.92354
  Beta virt. eigenvalues --    2.92678   2.95798   2.96838   2.97418   2.98113
  Beta virt. eigenvalues --    2.99173   2.99692   3.00756   3.05395   3.05936
  Beta virt. eigenvalues --    3.13416   3.14459   3.20795   3.23573   3.24424
  Beta virt. eigenvalues --    3.30068   3.30281   3.38142   3.39782   3.41832
  Beta virt. eigenvalues --    3.44549   3.46458   3.47042   3.62237   3.65372
  Beta virt. eigenvalues --    3.93369   4.09679   4.21724
          Condensed to atoms (all electrons):
          Atomic-Atomic Spin Densities.
 Mulliken charges and spin densities:
               1          2
     1  Fe   0.818543   3.772032
     2  N   -0.693476   0.053338
     3  N   -0.722471   0.032522
     4  N   -0.689234   0.050502
     5  N   -0.737521   0.035207
     6  C    0.314081  -0.001493
     7  C    0.029009  -0.008025
     8  C    0.035217   0.008462
     9  C    0.313023  -0.017438
    10  C    0.308159  -0.012255
    11  C    0.035440   0.016316
    12  C   -0.004216  -0.003988
    13  C    0.312049   0.010307
    14  C    0.290885   0.007570
    15  C    0.039163  -0.014770
    16  C   -0.002633   0.015558
    17  C    0.320658  -0.022727
    18  C    0.329629  -0.016333
    19  C    0.036335   0.017860
    20  C    0.033082  -0.005251
    21  C    0.338060   0.005658
    22  C   -0.315509  -0.000190
    23  H    0.166095   0.000193
    24  C   -0.315183   0.010303
    25  H    0.166171  -0.000172
    26  C   -0.303568  -0.003743
    27  H    0.169008   0.000309
    28  C   -0.304235   0.008705
    29  H    0.169749  -0.000072
    30  C   -0.608848   0.000110
    31  H    0.185268   0.000318
    32  H    0.193136  -0.000052
    33  H    0.187168  -0.000043
    34  C   -0.609024   0.001339
    35  H    0.188053  -0.000698
    36  H    0.192639  -0.000717
    37  H    0.184686   0.000275
    38  C   -0.612483  -0.000818
    39  H    0.186577   0.000660
    40  H    0.188782   0.000491
    41  H    0.198236   0.000346
    42  C   -0.147705   0.002090
    43  H    0.170320  -0.000128
    44  C   -0.402383  -0.002644
    45  H    0.174032   0.000132
    46  H    0.169056   0.000277
    47  C   -0.612724   0.001893
    48  H    0.183593  -0.000697
    49  H    0.190907  -0.000966
    50  H    0.196734   0.000167
    51  C   -0.146182  -0.004534
    52  H    0.166350   0.000170
    53  C   -0.401411   0.007682
    54  H    0.175848  -0.000383
    55  H    0.167869  -0.000404
    56  C   -0.610273  -0.000906
    57  H    0.191534   0.000681
    58  H    0.195307   0.000563
    59  H    0.185345   0.000368
    60  C   -0.609441   0.000873
    61  H    0.190092  -0.000265
    62  H    0.185368   0.000294
    63  H    0.192719  -0.000257
    64  C   -0.677648  -0.003421
    65  H    0.211441   0.000802
    66  H    0.231613   0.000022
    67  H    0.238937   0.001737
    68  S    0.027015   0.068132
    69  H    0.153189  -0.010877
 Sum of Mulliken charges =  -0.00000   4.00000
 Mulliken charges and spin densities with hydrogens summed into heavy atoms:
               1          2
     1  Fe   0.818543   3.772032
     2  N   -0.693476   0.053338
     3  N   -0.722471   0.032522
     4  N   -0.689234   0.050502
     5  N   -0.737521   0.035207
     6  C    0.314081  -0.001493
     7  C    0.029009  -0.008025
     8  C    0.035217   0.008462
     9  C    0.313023  -0.017438
    10  C    0.308159  -0.012255
    11  C    0.035440   0.016316
    12  C   -0.004216  -0.003988
    13  C    0.312049   0.010307
    14  C    0.290885   0.007570
    15  C    0.039163  -0.014770
    16  C   -0.002633   0.015558
    17  C    0.320658  -0.022727
    18  C    0.329629  -0.016333
    19  C    0.036335   0.017860
    20  C    0.033082  -0.005251
    21  C    0.338060   0.005658
    22  C   -0.149414   0.000004
    24  C   -0.149012   0.010132
    26  C   -0.134559  -0.003434
    28  C   -0.134486   0.008633
    30  C   -0.043277   0.000334
    34  C   -0.043646   0.000200
    38  C   -0.038888   0.000678
    42  C    0.022615   0.001962
    44  C   -0.059295  -0.002235
    47  C   -0.041490   0.000397
    51  C    0.020169  -0.004364
    53  C   -0.057694   0.006896
    56  C   -0.038087   0.000707
    60  C   -0.041262   0.000645
    64  C    0.004343  -0.000860
    68  S    0.180204   0.057255
 Electronic spatial extent (au):  <R**2>=          18039.2717
 Charge=             -0.0000 electrons
 Dipole moment (field-independent basis, Debye):
    X=             -1.4820    Y=             -0.5223    Z=              2.0352  Tot=              2.5712
 Quadrupole moment (field-independent basis, Debye-Ang):
   XX=           -206.6997   YY=           -206.4997   ZZ=           -232.6988
   XY=             -0.3392   XZ=             -4.2072   YZ=              1.6685
 Traceless Quadrupole moment (field-independent basis, Debye-Ang):
   XX=              8.5997   YY=              8.7997   ZZ=            -17.3994
   XY=             -0.3392   XZ=             -4.2072   YZ=              1.6685
 Octapole moment (field-independent basis, Debye-Ang**2):
  XXX=             -7.1574  YYY=            -27.0814  ZZZ=             21.1350  XYY=              8.4939
  XXY=            -17.7290  XXZ=              1.0605  XZZ=            -19.9499  YZZ=             -2.7135
  YYZ=             -2.3833  XYZ=             -1.3816
 Hexadecapole moment (field-independent basis, Debye-Ang**3):
 XXXX=         -11198.4501 YYYY=         -10935.5766 ZZZZ=          -1172.0442 XXXY=            -14.7298
 XXXZ=             11.5014 YYYX=             -1.2042 YYYZ=            -20.1259 ZZZX=            -49.0880
 ZZZY=             26.2162 XXYY=          -3701.5635 XXZZ=          -2246.9692 YYZZ=          -2208.9367
 XXYZ=             10.8048 YYXZ=            -62.2834 ZZXY=              2.3634
 N-N= 5.043826083619D+03 E-N=-1.734011886036D+04  KE= 3.071042474934D+03
                          Isotropic Fermi Contact Couplings
        Atom                 a.u.       MegaHertz       Gauss      10(-4) cm-1
     1  Fe(57)             0.49406      17.91454       6.39235       5.97565
     2  N(14)              0.09615       7.76644       2.77126       2.59061
     3  N(14)              0.08982       7.25567       2.58900       2.42023
     4  N(14)              0.09437       7.62251       2.71990       2.54260
     5  N(14)              0.09089       7.34147       2.61962       2.44885
     6  C(13)              0.00411       1.15627       0.41258       0.38569
     7  C(13)              0.00179       0.50281       0.17941       0.16772
     8  C(13)              0.00453       1.27412       0.45464       0.42500
     9  C(13)              0.00276       0.77659       0.27711       0.25904
    10  C(13)              0.00410       1.15278       0.41134       0.38453
    11  C(13)              0.00558       1.56883       0.55980       0.52331
    12  C(13)              0.00221       0.62070       0.22148       0.20704
    13  C(13)              0.00671       1.88689       0.67329       0.62940
    14  C(13)              0.00580       1.63127       0.58208       0.54413
    15  C(13)              0.00081       0.22807       0.08138       0.07608
    16  C(13)              0.00550       1.54690       0.55197       0.51599
    17  C(13)              0.00205       0.57728       0.20599       0.19256
    18  C(13)              0.00333       0.93619       0.33406       0.31228
    19  C(13)              0.00580       1.62913       0.58132       0.54342
    20  C(13)              0.00212       0.59710       0.21306       0.19917
    21  C(13)              0.00623       1.75035       0.62457       0.58385
    22  C(13)             -0.00055      -0.15514      -0.05536      -0.05175
    23  H(1)               0.00006       0.06606       0.02357       0.02204
    24  C(13)              0.00154       0.43404       0.15487       0.14478
    25  H(1)              -0.00005      -0.05877      -0.02097      -0.01960
    26  C(13)             -0.00113      -0.31770      -0.11336      -0.10597
    27  H(1)               0.00009       0.09563       0.03412       0.03190
    28  C(13)              0.00133       0.37500       0.13381       0.12509
    29  H(1)              -0.00002      -0.02687      -0.00959      -0.00896
    30  C(13)              0.00048       0.13523       0.04825       0.04511
    31  H(1)               0.00010       0.10668       0.03807       0.03559
    32  H(1)               0.00009       0.10129       0.03614       0.03379
    33  H(1)               0.00008       0.09414       0.03359       0.03140
    34  C(13)              0.00087       0.24499       0.08742       0.08172
    35  H(1)              -0.00022      -0.24644      -0.08793      -0.08220
    36  H(1)              -0.00020      -0.22657      -0.08085      -0.07558
    37  H(1)               0.00008       0.09191       0.03279       0.03066
    38  C(13)              0.00007       0.01930       0.00689       0.00644
    39  H(1)               0.00031       0.34157       0.12188       0.11394
    40  H(1)               0.00020       0.22015       0.07856       0.07344
    41  H(1)               0.00010       0.11324       0.04041       0.03777
    42  C(13)              0.00077       0.21781       0.07772       0.07265
    43  H(1)              -0.00006      -0.06520      -0.02327      -0.02175
    44  C(13)             -0.00018      -0.05060      -0.01806      -0.01688
    45  H(1)               0.00005       0.05457       0.01947       0.01820
    46  H(1)               0.00008       0.09430       0.03365       0.03145
    47  C(13)              0.00109       0.30656       0.10939       0.10226
    48  H(1)              -0.00020      -0.21881      -0.07808      -0.07299
    49  H(1)              -0.00041      -0.46272      -0.16511      -0.15435
    50  H(1)               0.00002       0.01987       0.00709       0.00663
    51  C(13)             -0.00037      -0.10381      -0.03704      -0.03463
    52  H(1)               0.00012       0.13171       0.04700       0.04393
    53  C(13)              0.00115       0.32292       0.11523       0.10772
    54  H(1)              -0.00013      -0.14207      -0.05069      -0.04739
    55  H(1)              -0.00011      -0.12731      -0.04543      -0.04247
    56  C(13)              0.00005       0.01341       0.00479       0.00447
    57  H(1)               0.00031       0.34786       0.12412       0.11603
    58  H(1)               0.00024       0.26400       0.09420       0.08806
    59  H(1)               0.00012       0.13061       0.04661       0.04357
    60  C(13)              0.00068       0.19036       0.06793       0.06350
    61  H(1)              -0.00015      -0.17119      -0.06108      -0.05710
    62  H(1)               0.00009       0.09644       0.03441       0.03217
    63  H(1)              -0.00013      -0.14310      -0.05106      -0.04773
    64  C(13)             -0.00539      -1.51411      -0.54027      -0.50505
    65  H(1)               0.00120       1.34418       0.47964       0.44837
    66  H(1)               0.00011       0.11859       0.04232       0.03956
    67  H(1)               0.00064       0.71230       0.25417       0.23760
    68  S(33)              0.12468      10.70579       3.82009       3.57107
    69  H(1)              -0.00361      -4.03187      -1.43867      -1.34489
 --------------------------------------------------------
       Center         ----  Spin Dipole Couplings  ----
                      3XX-RR        3YY-RR        3ZZ-RR
 --------------------------------------------------------
     1   Atom        1.018042      0.367596     -1.385638
     2   Atom        0.066436     -0.015644     -0.050792
     3   Atom       -0.003439      0.086990     -0.083551
     4   Atom        0.068255     -0.017459     -0.050796
     5   Atom       -0.009206      0.089232     -0.080026
     6   Atom       -0.005195      0.034312     -0.029117
     7   Atom        0.011879      0.008806     -0.020685
     8   Atom        0.009182     -0.002803     -0.006379
     9   Atom        0.054932     -0.009602     -0.045330
    10   Atom        0.040561     -0.001810     -0.038751
    11   Atom       -0.002443     -0.000892      0.003335
    12   Atom        0.001172      0.013322     -0.014494
    13   Atom       -0.023433      0.042094     -0.018661
    14   Atom       -0.009665      0.029253     -0.019588
    15   Atom        0.013975      0.011268     -0.025243
    16   Atom        0.006160     -0.006974      0.000814
    17   Atom        0.057117     -0.007170     -0.049947
    18   Atom        0.042885      0.000955     -0.043840
    19   Atom       -0.003542     -0.000692      0.004234
    20   Atom        0.002138      0.014078     -0.016216
    21   Atom       -0.021890      0.044721     -0.022831
    22   Atom       -0.010661      0.029208     -0.018547
    23   Atom       -0.005982      0.012596     -0.006615
    24   Atom        0.023746     -0.015676     -0.008070
    25   Atom        0.012552     -0.006397     -0.006155
    26   Atom       -0.009946      0.030473     -0.020526
    27   Atom       -0.005971      0.012803     -0.006832
    28   Atom        0.025661     -0.014072     -0.011589
    29   Atom        0.012546     -0.006181     -0.006365
    30   Atom        0.006127     -0.002712     -0.003416
    31   Atom        0.003055     -0.000749     -0.002306
    32   Atom        0.004775     -0.002327     -0.002447
    33   Atom        0.005438     -0.002522     -0.002916
    34   Atom       -0.000148      0.003672     -0.003524
    35   Atom       -0.000713      0.003350     -0.002636
    36   Atom       -0.000721      0.003478     -0.002757
    37   Atom        0.001026      0.001265     -0.002290
    38   Atom        0.003965     -0.000388     -0.003577
    39   Atom        0.003290     -0.000503     -0.002787
    40   Atom        0.003774     -0.001264     -0.002510
    41   Atom        0.001336      0.000854     -0.002190
    42   Atom       -0.002963      0.005974     -0.003012
    43   Atom       -0.002771      0.005732     -0.002962
    44   Atom       -0.001133      0.004316     -0.003183
    45   Atom       -0.000358      0.002268     -0.001909
    46   Atom       -0.000765      0.002090     -0.001325
    47   Atom        0.000042      0.003651     -0.003693
    48   Atom       -0.001168      0.004040     -0.002872
    49   Atom       -0.000127      0.002712     -0.002585
    50   Atom        0.001016      0.001241     -0.002257
    51   Atom        0.008416     -0.001686     -0.006730
    52   Atom        0.006041     -0.002898     -0.003143
    53   Atom       -0.000619     -0.002326      0.002945
    54   Atom        0.001571      0.000073     -0.001644
    55   Atom        0.002614     -0.001207     -0.001407
    56   Atom        0.003957     -0.000329     -0.003628
    57   Atom        0.003733     -0.000790     -0.002944
    58   Atom        0.003380     -0.000924     -0.002456
    59   Atom        0.001352      0.000998     -0.002351
    60   Atom       -0.002614      0.006584     -0.003970
    61   Atom       -0.002445      0.005258     -0.002813
    62   Atom       -0.000996      0.003387     -0.002391
    63   Atom       -0.002583      0.005345     -0.002762
    64   Atom       -0.003361     -0.014817      0.018178
    65   Atom       -0.002245     -0.007489      0.009734
    66   Atom        0.000579     -0.010225      0.009646
    67   Atom        0.008805     -0.013666      0.004861
    68   Atom       -0.184716     -0.155233      0.339949
    69   Atom       -0.026114     -0.001117      0.027231
 --------------------------------------------------------
                        XY            XZ            YZ
 --------------------------------------------------------
     1   Atom       -1.658483      0.049678      0.002454
     2   Atom        0.145562      0.007292      0.020828
     3   Atom       -0.149532      0.019091     -0.033114
     4   Atom        0.142114      0.006191     -0.003393
     5   Atom       -0.150039     -0.014158      0.027987
     6   Atom        0.027693      0.000422     -0.006411
     7   Atom        0.012684     -0.001559     -0.003459
     8   Atom        0.011440     -0.000149      0.000617
     9   Atom        0.010952      0.005208     -0.003052
    10   Atom       -0.026366      0.009476     -0.004392
    11   Atom       -0.012776     -0.001212     -0.000827
    12   Atom       -0.011352      0.002570     -0.001481
    13   Atom       -0.011825      0.000292     -0.002436
    14   Atom        0.027620     -0.000578      0.007017
    15   Atom        0.012268      0.005214      0.006321
    16   Atom        0.011129      0.002224      0.001208
    17   Atom        0.009573      0.006635      0.003612
    18   Atom       -0.027533     -0.008506      0.002731
    19   Atom       -0.012536      0.001004      0.002790
    20   Atom       -0.011239     -0.001400      0.000464
    21   Atom       -0.010838     -0.000217      0.002995
    22   Atom        0.006327     -0.000701     -0.002320
    23   Atom        0.003075     -0.000165     -0.000973
    24   Atom       -0.005207      0.005771     -0.000267
    25   Atom       -0.002434      0.002568     -0.000302
    26   Atom        0.006178      0.000744      0.000161
    27   Atom        0.003010      0.000045      0.000240
    28   Atom       -0.005862     -0.004278     -0.001591
    29   Atom       -0.002639     -0.001544      0.000140
    30   Atom        0.003175      0.000565      0.000250
    31   Atom        0.002794      0.000161      0.000064
    32   Atom        0.002083      0.001826      0.000413
    33   Atom        0.001835     -0.000786     -0.000087
    34   Atom        0.005049     -0.000299     -0.000477
    35   Atom        0.003845     -0.000852     -0.001508
    36   Atom        0.003661      0.000423      0.000825
    37   Atom        0.003288     -0.000157     -0.000193
    38   Atom       -0.004989      0.001376     -0.000834
    39   Atom       -0.003747     -0.000290      0.000101
    40   Atom       -0.003467      0.002205     -0.001055
    41   Atom       -0.003530      0.000988     -0.000960
    42   Atom       -0.002870      0.000937     -0.000425
    43   Atom       -0.001367      0.000192     -0.001312
    44   Atom       -0.002179     -0.002099      0.000590
    45   Atom       -0.002745     -0.000267      0.000572
    46   Atom       -0.001388     -0.000096      0.000080
    47   Atom        0.005145      0.000459      0.000980
    48   Atom        0.003885      0.000861      0.001703
    49   Atom        0.003616     -0.000298     -0.000519
    50   Atom        0.003324      0.000722      0.000765
    51   Atom        0.003179     -0.000294     -0.002022
    52   Atom        0.001593      0.000932      0.000143
    53   Atom        0.002066     -0.000756      0.004169
    54   Atom        0.002213     -0.000315     -0.000482
    55   Atom        0.001194      0.000080      0.000137
    56   Atom       -0.005000     -0.001005      0.000671
    57   Atom       -0.003715      0.000499     -0.000198
    58   Atom       -0.003585     -0.002039      0.001045
    59   Atom       -0.003539     -0.000548      0.000510
    60   Atom       -0.002931     -0.000098      0.000119
    61   Atom       -0.002018      0.000249     -0.001203
    62   Atom       -0.002664     -0.000147      0.000253
    63   Atom       -0.001681     -0.000275      0.001487
    64   Atom       -0.002015     -0.019676      0.002357
    65   Atom       -0.001225     -0.008297      0.002563
    66   Atom        0.005461     -0.015966     -0.006655
    67   Atom       -0.007630     -0.022324      0.006866
    68   Atom       -0.000880      0.043735      0.065551
    69   Atom        0.002511      0.003095      0.030926
 --------------------------------------------------------


 ---------------------------------------------------------------------------------
              Anisotropic Spin Dipole Couplings in Principal Axis System
 ---------------------------------------------------------------------------------

       Atom             a.u.   MegaHertz   Gauss  10(-4) cm-1        Axes

              Baa    -1.3889   -24.045    -8.580    -8.021 -0.0616 -0.0596  0.9963
     1 Fe(57) Bbb    -0.9944   -17.216    -6.143    -5.743  0.6324  0.7699  0.0851
              Bcc     2.3832    41.261    14.723    13.763  0.7722 -0.6353  0.0098
 
              Baa    -0.1278    -4.929    -1.759    -1.644 -0.5883  0.7929 -0.1587
     2 N(14)  Bbb    -0.0503    -1.940    -0.692    -0.647 -0.1595  0.0787  0.9841
              Bcc     0.1781     6.869     2.451     2.291  0.7928  0.6042  0.0802
 
              Baa    -0.1152    -4.442    -1.585    -1.482  0.7807  0.6038  0.1611
     3 N(14)  Bbb    -0.0879    -3.389    -1.209    -1.130 -0.2077  0.0076  0.9782
              Bcc     0.2030     7.830     2.794     2.612 -0.5894  0.7971 -0.1314
 
              Baa    -0.1236    -4.767    -1.701    -1.590 -0.5947  0.7991  0.0878
     4 N(14)  Bbb    -0.0503    -1.939    -0.692    -0.647  0.0419 -0.0783  0.9961
              Bcc     0.1739     6.706     2.393     2.237  0.8028  0.5961  0.0131
 
              Baa    -0.1186    -4.573    -1.632    -1.526  0.7941  0.5919 -0.1381
     5 N(14)  Bbb    -0.0827    -3.191    -1.139    -1.065  0.1761 -0.0066  0.9844
              Bcc     0.2013     7.765     2.771     2.590 -0.5817  0.8060  0.1094
 
              Baa    -0.0305    -4.092    -1.460    -1.365 -0.2244  0.1904  0.9557
     6 C(13)  Bbb    -0.0185    -2.479    -0.884    -0.827  0.8624 -0.4178  0.2858
              Bcc     0.0490     6.571     2.345     2.192  0.4537  0.8884 -0.0705
 
              Baa    -0.0211    -2.829    -1.010    -0.944  0.0033  0.1136  0.9935
     7 C(13)  Bbb    -0.0023    -0.309    -0.110    -0.103 -0.6693  0.7384 -0.0822
              Bcc     0.0234     3.139     1.120     1.047  0.7430  0.6647 -0.0784
 
              Baa    -0.0098    -1.319    -0.471    -0.440 -0.5088  0.8434 -0.1725
     8 C(13)  Bbb    -0.0063    -0.842    -0.300    -0.281 -0.0966  0.1432  0.9850
              Bcc     0.0161     2.161     0.771     0.721  0.8554  0.5178  0.0085
 
              Baa    -0.0460    -6.169    -2.201    -2.058 -0.0623  0.1021  0.9928
     9 C(13)  Bbb    -0.0110    -1.473    -0.526    -0.491 -0.1544  0.9818 -0.1107
              Bcc     0.0570     7.642     2.727     2.549  0.9860  0.1602  0.0454
 
              Baa    -0.0399    -5.357    -1.912    -1.787 -0.1028  0.0434  0.9938
    10 C(13)  Bbb    -0.0144    -1.939    -0.692    -0.647  0.4315  0.9021  0.0052
              Bcc     0.0544     7.296     2.603     2.434  0.8962 -0.4293  0.1115
 
              Baa    -0.0146    -1.957    -0.698    -0.653  0.7263  0.6826  0.0806
    11 C(13)  Bbb     0.0034     0.462     0.165     0.154 -0.0384 -0.0769  0.9963
              Bcc     0.0111     1.495     0.533     0.499 -0.6863  0.7267  0.0296
 
              Baa    -0.0149    -2.001    -0.714    -0.667 -0.1689 -0.0162  0.9855
    12 C(13)  Bbb    -0.0054    -0.725    -0.259    -0.242  0.8398  0.5211  0.1525
              Bcc     0.0203     2.726     0.973     0.909 -0.5160  0.8533 -0.0744
 
              Baa    -0.0255    -3.422    -1.221    -1.142  0.9847  0.1730  0.0195
    13 C(13)  Bbb    -0.0188    -2.517    -0.898    -0.839 -0.0259  0.0350  0.9991
              Bcc     0.0443     5.939     2.119     1.981 -0.1721  0.9843 -0.0389
 
              Baa    -0.0263    -3.525    -1.258    -1.176  0.7377 -0.4325  0.5184
    14 C(13)  Bbb    -0.0179    -2.399    -0.856    -0.800 -0.4998  0.1664  0.8500
              Bcc     0.0441     5.923     2.114     1.976  0.4539  0.8861  0.0935
 
              Baa    -0.0266    -3.566    -1.272    -1.189 -0.0854 -0.1372  0.9869
    15 C(13)  Bbb     0.0003     0.045     0.016     0.015 -0.6772  0.7346  0.0435
              Bcc     0.0262     3.521     1.256     1.175  0.7309  0.6645  0.1556
 
              Baa    -0.0133    -1.789    -0.638    -0.597 -0.4962  0.8682  0.0039
    16 C(13)  Bbb     0.0003     0.039     0.014     0.013 -0.1741 -0.1039  0.9792
              Bcc     0.0130     1.750     0.624     0.584  0.8506  0.4852  0.2027
 
              Baa    -0.0506    -6.786    -2.421    -2.264 -0.0551 -0.0707  0.9960
    17 C(13)  Bbb    -0.0084    -1.128    -0.402    -0.376 -0.1504  0.9867  0.0618
              Bcc     0.0590     7.914     2.824     2.640  0.9871  0.1464  0.0650
 
              Baa    -0.0447    -5.994    -2.139    -1.999  0.0962 -0.0015  0.9954
    18 C(13)  Bbb    -0.0126    -1.695    -0.605    -0.565  0.4389  0.8976 -0.0411
              Bcc     0.0573     7.689     2.744     2.565  0.8934 -0.4408 -0.0870
 
              Baa    -0.0151    -2.025    -0.722    -0.675  0.7343  0.6655 -0.1343
    19 C(13)  Bbb     0.0043     0.573     0.205     0.191  0.2449 -0.0752  0.9666
              Bcc     0.0108     1.451     0.518     0.484 -0.6332  0.7426  0.2182
 
              Baa    -0.0163    -2.191    -0.782    -0.731  0.0855  0.0164  0.9962
    20 C(13)  Bbb    -0.0045    -0.609    -0.217    -0.203  0.8523  0.5166 -0.0816
              Bcc     0.0209     2.800     0.999     0.934 -0.5160  0.8561  0.0302
 
              Baa    -0.0237    -3.180    -1.135    -1.061  0.9314  0.1618 -0.3260
    21 C(13)  Bbb    -0.0229    -3.069    -1.095    -1.024  0.3287  0.0109  0.9444
              Bcc     0.0466     6.249     2.230     2.084 -0.1564  0.9868  0.0431
 
              Baa    -0.0187    -2.507    -0.894    -0.836  0.0548  0.0411  0.9976
    22 C(13)  Bbb    -0.0116    -1.560    -0.557    -0.520  0.9867 -0.1556 -0.0478
              Bcc     0.0303     4.067     1.451     1.357  0.1533  0.9870 -0.0491
 
              Baa    -0.0067    -3.556    -1.269    -1.186  0.0524  0.0420  0.9977
    23 H(1)   Bbb    -0.0065    -3.456    -1.233    -1.153  0.9859 -0.1612 -0.0450
              Bcc     0.0131     7.012     2.502     2.339  0.1590  0.9860 -0.0499
 
              Baa    -0.0164    -2.198    -0.784    -0.733  0.1374  0.9885 -0.0637
    24 C(13)  Bbb    -0.0090    -1.212    -0.432    -0.404 -0.1596  0.0856  0.9835
              Bcc     0.0254     3.410     1.217     1.137  0.9776 -0.1250  0.1695
 
              Baa    -0.0067    -3.579    -1.277    -1.194  0.1388  0.9844 -0.1080
    25 H(1)   Bbb    -0.0065    -3.467    -1.237    -1.156 -0.1169  0.1245  0.9853
              Bcc     0.0132     7.046     2.514     2.350  0.9834 -0.1241  0.1324
 
              Baa    -0.0206    -2.762    -0.985    -0.921 -0.0730  0.0057  0.9973
    26 C(13)  Bbb    -0.0108    -1.452    -0.518    -0.484  0.9863 -0.1479  0.0731
              Bcc     0.0314     4.213     1.503     1.405  0.1479  0.9890  0.0052
 
              Baa    -0.0068    -3.647    -1.301    -1.216 -0.0192 -0.0093  0.9998
    27 H(1)   Bbb    -0.0064    -3.437    -1.226    -1.146  0.9878 -0.1547  0.0175
              Bcc     0.0133     7.084     2.528     2.363  0.1545  0.9879  0.0122
 
              Baa    -0.0161    -2.158    -0.770    -0.720  0.1698  0.8669  0.4688
    28 C(13)  Bbb    -0.0108    -1.455    -0.519    -0.485  0.0258 -0.4794  0.8772
              Bcc     0.0269     3.613     1.289     1.205  0.9851 -0.1368 -0.1038
 
              Baa    -0.0066    -3.519    -1.256    -1.174  0.1574  0.8145  0.5585
    29 H(1)   Bbb    -0.0064    -3.436    -1.226    -1.146 -0.0112 -0.5640  0.8257
              Bcc     0.0130     6.955     2.482     2.320  0.9875 -0.1362 -0.0796
 
              Baa    -0.0037    -0.503    -0.179    -0.168 -0.2881  0.9338 -0.2121
    30 C(13)  Bbb    -0.0034    -0.461    -0.165    -0.154 -0.1190  0.1849  0.9755
              Bcc     0.0072     0.964     0.344     0.322  0.9502  0.3063  0.0579
 
              Baa    -0.0023    -1.235    -0.441    -0.412 -0.1203  0.1749  0.9772
    31 H(1)   Bbb    -0.0022    -1.186    -0.423    -0.396 -0.4523  0.8666 -0.2108
              Bcc     0.0045     2.421     0.864     0.807  0.8837  0.4674  0.0252
 
              Baa    -0.0030    -1.580    -0.564    -0.527 -0.3369  0.6866  0.6442
    32 H(1)   Bbb    -0.0028    -1.496    -0.534    -0.499  0.0109 -0.6813  0.7319
              Bcc     0.0058     3.077     1.098     1.026  0.9415  0.2536  0.2220
 
              Baa    -0.0030    -1.624    -0.579    -0.542  0.1932 -0.5428  0.8173
    33 H(1)   Bbb    -0.0029    -1.530    -0.546    -0.510 -0.1257  0.8125  0.5693
              Bcc     0.0059     3.154     1.125     1.052  0.9731  0.2127 -0.0887
 
              Baa    -0.0036    -0.489    -0.174    -0.163  0.7833 -0.5584 -0.2730
    34 C(13)  Bbb    -0.0035    -0.476    -0.170    -0.159  0.2536 -0.1139  0.9606
              Bcc     0.0072     0.965     0.344     0.322  0.5675  0.8217 -0.0524
 
              Baa    -0.0031    -1.632    -0.582    -0.545  0.6757 -0.5267 -0.5157
    35 H(1)   Bbb    -0.0030    -1.576    -0.562    -0.526  0.5368 -0.1279  0.8340
              Bcc     0.0060     3.208     1.145     1.070  0.5052  0.8404 -0.1963
 
              Baa    -0.0029    -1.546    -0.552    -0.516  0.5128 -0.3932  0.7632
    36 H(1)   Bbb    -0.0028    -1.495    -0.534    -0.499  0.6995 -0.3240 -0.6369
              Bcc     0.0057     3.041     1.085     1.014  0.4977  0.8605  0.1089
 
              Baa    -0.0023    -1.228    -0.438    -0.410 -0.0720  0.1201  0.9902
    37 H(1)   Bbb    -0.0021    -1.143    -0.408    -0.381  0.7168 -0.6841  0.1351
              Bcc     0.0044     2.371     0.846     0.791  0.6936  0.7194 -0.0368
 
              Baa    -0.0038    -0.514    -0.183    -0.171 -0.2799 -0.1770  0.9436
    38 C(13)  Bbb    -0.0036    -0.488    -0.174    -0.163  0.4854  0.8219  0.2981
              Bcc     0.0075     1.002     0.357     0.334  0.8283 -0.5415  0.1441
 
              Baa    -0.0029    -1.530    -0.546    -0.510  0.4032  0.6098  0.6823
    39 H(1)   Bbb    -0.0027    -1.460    -0.521    -0.487 -0.3351 -0.5954  0.7302
              Bcc     0.0056     2.990     1.067     0.997  0.8516 -0.5231 -0.0357
 
              Baa    -0.0032    -1.714    -0.612    -0.572 -0.3679 -0.1586  0.9163
    40 H(1)   Bbb    -0.0030    -1.607    -0.573    -0.536  0.3564  0.8861  0.2965
              Bcc     0.0062     3.321     1.185     1.108  0.8589 -0.4356  0.2694
 
              Baa    -0.0025    -1.322    -0.472    -0.441  0.3099  0.5515  0.7745
    41 H(1)   Bbb    -0.0024    -1.293    -0.461    -0.431  0.6245  0.4961 -0.6032
              Bcc     0.0049     2.615     0.933     0.872  0.7169 -0.6706  0.1906
 
              Baa    -0.0043    -0.576    -0.206    -0.192  0.8213  0.2076 -0.5313
    42 C(13)  Bbb    -0.0026    -0.345    -0.123    -0.115  0.4937  0.2079  0.8444
              Bcc     0.0069     0.921     0.329     0.307 -0.2857  0.9559 -0.0682
 
              Baa    -0.0032    -1.684    -0.601    -0.562  0.0549  0.1541  0.9865
    43 H(1)   Bbb    -0.0030    -1.592    -0.568    -0.531  0.9867  0.1432 -0.0773
              Bcc     0.0061     3.276     1.169     1.093 -0.1531  0.9776 -0.1441
 
              Baa    -0.0045    -0.610    -0.218    -0.204  0.5596  0.0827  0.8246
    44 C(13)  Bbb    -0.0007    -0.098    -0.035    -0.033  0.7450  0.3856 -0.5443
              Bcc     0.0053     0.708     0.253     0.236 -0.3630  0.9190  0.1541
 
              Baa    -0.0021    -1.135    -0.405    -0.379  0.7283  0.5138 -0.4535
    45 H(1)   Bbb    -0.0019    -1.032    -0.368    -0.344  0.4355  0.1640  0.8851
              Bcc     0.0041     2.168     0.774     0.723 -0.5291  0.8421  0.1043
 
              Baa    -0.0014    -0.740    -0.264    -0.247  0.6639  0.2488  0.7052
    46 H(1)   Bbb    -0.0013    -0.678    -0.242    -0.226 -0.6462 -0.2839  0.7084
              Bcc     0.0027     1.418     0.506     0.473 -0.3765  0.9260  0.0277
 
              Baa    -0.0039    -0.525    -0.187    -0.175  0.3842 -0.3708  0.8455
    47 C(13)  Bbb    -0.0035    -0.468    -0.167    -0.156  0.7229 -0.4489 -0.5253
              Bcc     0.0074     0.993     0.354     0.331  0.5743  0.8130  0.0956
 
              Baa    -0.0033    -1.757    -0.627    -0.586  0.4759 -0.4302  0.7671
    48 H(1)   Bbb    -0.0032    -1.712    -0.611    -0.571  0.7493 -0.2584 -0.6098
              Bcc     0.0065     3.469     1.238     1.157  0.4605  0.8650  0.1994
 
              Baa    -0.0027    -1.420    -0.507    -0.474 -0.4238  0.3653  0.8288
    49 H(1)   Bbb    -0.0026    -1.367    -0.488    -0.456  0.7109 -0.4329  0.5543
              Bcc     0.0052     2.786     0.994     0.929  0.5612  0.8241 -0.0762
 
              Baa    -0.0024    -1.291    -0.461    -0.431 -0.0644 -0.1479  0.9869
    50 H(1)   Bbb    -0.0022    -1.172    -0.418    -0.391  0.7240 -0.6876 -0.0558
              Bcc     0.0046     2.463     0.879     0.821  0.6868  0.7109  0.1514
 
              Baa    -0.0075    -1.004    -0.358    -0.335 -0.0537  0.3551  0.9333
    51 C(13)  Bbb    -0.0019    -0.254    -0.091    -0.085 -0.2846  0.8904 -0.3551
              Bcc     0.0094     1.258     0.449     0.420  0.9571  0.2847 -0.0532
 
              Baa    -0.0032    -1.729    -0.617    -0.577 -0.1369  0.2345  0.9624
    52 H(1)   Bbb    -0.0032    -1.691    -0.603    -0.564 -0.1400  0.9572 -0.2532
              Bcc     0.0064     3.420     1.220     1.141  0.9806  0.1694  0.0983
 
              Baa    -0.0056    -0.748    -0.267    -0.250 -0.4022  0.8078 -0.4309
    53 C(13)  Bbb     0.0003     0.042     0.015     0.014  0.9135  0.3223 -0.2484
              Bcc     0.0053     0.706     0.252     0.236  0.0618  0.4935  0.8676
 
              Baa    -0.0018    -0.980    -0.350    -0.327 -0.2423  0.4920  0.8362
    54 H(1)   Bbb    -0.0014    -0.737    -0.263    -0.246 -0.5418  0.6464 -0.5373
              Bcc     0.0032     1.717     0.613     0.573  0.8048  0.5833 -0.1099
 
              Baa    -0.0016    -0.859    -0.307    -0.287 -0.2298  0.8455 -0.4820
    55 H(1)   Bbb    -0.0013    -0.720    -0.257    -0.240 -0.1553  0.4570  0.8758
              Bcc     0.0030     1.579     0.564     0.527  0.9608  0.2761  0.0263
 
              Baa    -0.0038    -0.505    -0.180    -0.168  0.0616 -0.1044  0.9926
    56 C(13)  Bbb    -0.0036    -0.486    -0.174    -0.162  0.5546  0.8304  0.0530
              Bcc     0.0074     0.991     0.354     0.331  0.8298 -0.5472 -0.1091
 
              Baa    -0.0030    -1.608    -0.574    -0.536 -0.2750 -0.3808  0.8828
    57 H(1)   Bbb    -0.0028    -1.515    -0.540    -0.505  0.4083  0.7850  0.4658
              Bcc     0.0059     3.123     1.114     1.042  0.8704 -0.4886  0.0604
 
              Baa    -0.0031    -1.666    -0.595    -0.556  0.4326  0.3017  0.8496
    58 H(1)   Bbb    -0.0029    -1.549    -0.553    -0.517  0.3235  0.8277 -0.4586
              Bcc     0.0060     3.216     1.147     1.073  0.8416 -0.4732 -0.2605
 
              Baa    -0.0024    -1.297    -0.463    -0.432  0.1636  0.0221  0.9863
    59 H(1)   Bbb    -0.0024    -1.263    -0.451    -0.421  0.6737  0.7279 -0.1281
              Bcc     0.0048     2.559     0.913     0.854  0.7207 -0.6854 -0.1042
 
              Baa    -0.0040    -0.534    -0.191    -0.178  0.1176  0.0215  0.9928
    60 C(13)  Bbb    -0.0035    -0.464    -0.166    -0.155  0.9528  0.2794 -0.1189
              Bcc     0.0074     0.998     0.356     0.333 -0.2800  0.9599  0.0124
 
              Baa    -0.0030    -1.608    -0.574    -0.536  0.4885  0.2412  0.8386
    61 H(1)   Bbb    -0.0029    -1.555    -0.555    -0.519  0.8401  0.1298 -0.5267
              Bcc     0.0059     3.162     1.128     1.055 -0.2359  0.9618 -0.1392
 
              Baa    -0.0024    -1.284    -0.458    -0.428  0.1607  0.0308  0.9865
    62 H(1)   Bbb    -0.0022    -1.200    -0.428    -0.400  0.8899  0.4277 -0.1583
              Bcc     0.0047     2.485     0.887     0.829 -0.4268  0.9034  0.0414
 
              Baa    -0.0030    -1.617    -0.577    -0.539 -0.2053 -0.2109  0.9557
    63 H(1)   Bbb    -0.0029    -1.557    -0.556    -0.519  0.9589  0.1520  0.2395
              Bcc     0.0059     3.174     1.133     1.059 -0.1958  0.9656  0.1710
 
              Baa    -0.0156    -2.087    -0.745    -0.696  0.6316  0.7067  0.3190
    64 C(13)  Bbb    -0.0145    -1.945    -0.694    -0.649 -0.5846  0.7043 -0.4028
              Bcc     0.0300     4.032     1.439     1.345 -0.5094  0.0679  0.8579
 
              Baa    -0.0079    -4.195    -1.497    -1.399  0.0097  0.9902 -0.1397
    65 H(1)   Bbb    -0.0065    -3.460    -1.235    -1.154  0.8924  0.0545  0.4480
              Bcc     0.0143     7.655     2.731     2.553 -0.4511  0.1290  0.8831
 
              Baa    -0.0125    -6.672    -2.381    -2.225 -0.3883  0.9215 -0.0030
    66 H(1)   Bbb    -0.0114    -6.069    -2.166    -2.024  0.7108  0.3016  0.6354
              Bcc     0.0239    12.741     4.546     4.250 -0.5864 -0.2446  0.7722
 
              Baa    -0.0160    -8.543    -3.049    -2.850  0.2915  0.9566 -0.0029
    67 H(1)   Bbb    -0.0156    -8.303    -2.963    -2.769  0.6303 -0.1898  0.7528
              Bcc     0.0316    16.846     6.011     5.619  0.7196 -0.2213 -0.6582
 
              Baa    -0.1898    -7.783    -2.777    -2.596  0.9672  0.2298 -0.1083
    68 S(33)  Bbb    -0.1621    -6.648    -2.372    -2.217 -0.2410  0.9648 -0.1050
              Bcc     0.3520    14.430     5.149     4.813  0.0804  0.1276  0.9886
 
              Baa    -0.0264   -14.067    -5.019    -4.692  0.9952 -0.0975 -0.0012
    69 H(1)   Bbb    -0.0209   -11.165    -3.984    -3.724  0.0813  0.8363 -0.5423
              Bcc     0.0473    25.232     9.003     8.416  0.0539  0.5396  0.8402
 

 ---------------------------------------------------------------------------------

 Unable to Open any file for archive entry.
 1\1\GINC-BGN1036\SP\UAPFD\Gen\C31H32Fe1N4S1(5)\BECSLEIP\14-Nov-2024\0\
 \# apfd/gen scf=maxcycle=999 geom=check\\6upg_II_Q\\0,5\Fe,0,-5.855907
 9232,24.9917437678,7.4144596804\N,0,-4.1750796384,23.9266719124,7.1891
 637977\N,0,-5.5917673817,24.912997316,9.3868674505\N,0,-7.6883089754,2
 5.7362259753,7.6822372119\N,0,-6.3075305854,24.6671329529,5.5048240271
 \C,0,-3.5915258349,23.5974758233,6.0042106088\C,0,-2.2980418376,22.989
 3130526,6.2183244218\C,0,-2.1138717259,22.946487457,7.5651673674\C,0,-
 3.2939689313,23.5368306007,8.1534357274\C,0,-4.5549987655,24.358117961
 9,10.0814140588\C,0,-4.6646968304,24.6398379178,11.4880354533\C,0,-5.7
 920139158,25.4026742462,11.6412958536\C,0,-6.3506917633,25.5631066044,
 10.3151695435\C,0,-8.1073558167,26.3833689009,8.8094415147\C,0,-9.3117
 540184,27.1299380815,8.5608907411\C,0,-9.6384426932,26.9030256559,7.24
 9818056\C,0,-8.6039634353,26.0371933285,6.7239867371\C,0,-7.4809307816
 ,24.9266892251,4.8624292446\C,0,-7.4082205522,24.5388505179,3.47152136
 45\C,0,-6.1539646704,24.0540974933,3.2775263275\C,0,-5.4857112397,24.1
 346878116,4.5577306469\C,0,-4.1830367667,23.7280612411,4.7629445375\H,
 0,-3.6211531537,23.3948148107,3.904545581\C,0,-3.4872214101,23.6869312
 715,9.5112194302\H,0,-2.7212486704,23.3107259261,10.1710997696\C,0,-7.
 4972697265,26.2850290764,10.0466497239\H,0,-7.9633262981,26.8001452702
 ,10.8722637557\C,0,-8.5630443045,25.5749034176,5.4220854611\H,0,-9.407
 323787,25.784521922,4.7843150817\C,0,-0.966040287,22.4086359418,8.3473
 223848\H,0,-0.1992750305,22.0141415565,7.6855890433\H,0,-1.2958313877,
 21.6054834356,9.0063493791\H,0,-0.5204742782,23.1904687457,8.963057393
 2\C,0,-1.4021685323,22.5169523514,5.1262527811\H,0,-1.2005384504,23.32
 20400715,4.4199533894\H,0,-1.8669384638,21.6958947218,4.5799532244\H,0
 ,-0.4548419313,22.1666342568,5.5280567125\C,0,-3.7478743451,24.1164347
 041,12.5368334681\H,0,-2.8468825509,24.7283857832,12.6084436042\H,0,-3
 .445609402,23.0956481927,12.3084171898\H,0,-4.2457546955,24.1247381128
 ,13.5041329397\C,0,-6.3722230115,25.9442739167,12.8510460116\H,0,-7.45
 44817268,25.9925525838,12.8696985596\C,0,-5.6870659029,26.3765904539,1
 3.9040970533\H,0,-4.6111621323,26.3931916396,13.9209753833\H,0,-6.1838
 347066,26.7559654291,14.7813102681\C,0,-9.9930296637,28.0086240767,9.5
 499663581\H,0,-9.265793003,28.5152137977,10.1827247883\H,0,-10.6557444
 5,27.4280889151,10.1937221249\H,0,-10.588323857,28.7581898342,9.032719
 5999\C,0,-10.7481441542,27.4176003467,6.4772954915\H,0,-10.5454019392,
 27.5880410114,5.4266751554\C,0,-11.9610104011,27.6796394008,6.95251269
 63\H,0,-12.230738587,27.4854988396,7.9758250485\H,0,-12.7391979634,28.
 0740108511,6.3205369286\C,0,-8.5320344312,24.6755907431,2.5041011284\H
 ,0,-8.7745156816,25.7269047719,2.3461357978\H,0,-9.4235385474,24.17511
 19862,2.8809584336\H,0,-8.2710191078,24.2370720208,1.5443107115\C,0,-5
 .5294878118,23.5161308747,2.0369970111\H,0,-4.6430618284,24.0929204337
 ,1.7732124464\H,0,-6.226651197,23.5605837078,1.2043680233\H,0,-5.22896
 62079,22.4780738982,2.1794336468\C,0,-3.2110743148,27.0017399335,7.881
 7998696\H,0,-2.8508410167,28.0113791786,8.0519325119\H,0,-2.5847687149
 ,26.4983098298,7.1524412585\H,0,-3.2344810121,26.4288545759,8.80298096
 23\S,0,-4.8919941005,27.0782370111,7.1603625454\H,0,-5.4358137409,27.7
 135525263,8.2104255012\\Version=ES64L-G16RevC.02\State=5-A\HF=-3080.24
 0954\S2=6.061333\S2-1=0.\S2A=6.000316\RMSD=4.300e-09\Dipole=0.9051165,
 0.4496903,-0.0430852\Quadrupole=4.3954196,-9.520995,5.1255754,-5.74768
 61,2.377458,5.4853346\PG=C01 [X(C31H32Fe1N4S1)]\\@
 The archive entry for this job was punched.


 THE CAUTIOUS SELDOM ERR...CONFUCIUS                   
 Job cpu time:       0 days  3 hours 12 minutes 26.5 seconds.
 Elapsed time:       0 days  0 hours  3 minutes 10.4 seconds.
 File lengths (MBytes):  RWF=    343 Int=      0 D2E=      0 Chk=    150 Scr=      1
 Normal termination of Gaussian 16 at Thu Nov 14 22:17:19 2024.
