 Entering Gaussian System, Link 0=g16
 Input=6vdq01.com
 Output=6vdq01.log
 Initial command:
 /sw/chem/gaussian/g16_C02/a100/g16/l1.exe "/local/becsleip_8081175/Gau-1614180.inp" -scrdir="/local/becsleip_8081175/"
 Entering Link 1 = /sw/chem/gaussian/g16_C02/a100/g16/l1.exe PID=   1614181.
  
 Copyright (c) 1988-2021, Gaussian, Inc.  All Rights Reserved.
  
 This is part of the Gaussian(R) 16 program.  It is based on
 the Gaussian(R) 09 system (copyright 2009, Gaussian, Inc.),
 the Gaussian(R) 03 system (copyright 2003, Gaussian, Inc.),
 the Gaussian(R) 98 system (copyright 1998, Gaussian, Inc.),
 the Gaussian(R) 94 system (copyright 1995, Gaussian, Inc.),
 the Gaussian 92(TM) system (copyright 1992, Gaussian, Inc.),
 the Gaussian 90(TM) system (copyright 1990, Gaussian, Inc.),
 the Gaussian 88(TM) system (copyright 1988, Gaussian, Inc.),
 the Gaussian 86(TM) system (copyright 1986, Carnegie Mellon
 University), and the Gaussian 82(TM) system (copyright 1983,
 Carnegie Mellon University). Gaussian is a federally registered
 trademark of Gaussian, Inc.
  
 This software contains proprietary and confidential information,
 including trade secrets, belonging to Gaussian, Inc.
  
 This software is provided under written license and may be
 used, copied, transmitted, or stored only in accord with that
 written license.
  
 The following legend is applicable only to US Government
 contracts under FAR:
  
                    RESTRICTED RIGHTS LEGEND
  
 Use, reproduction and disclosure by the US Government is
 subject to restrictions as set forth in subparagraphs (a)
 and (c) of the Commercial Computer Software - Restricted
 Rights clause in FAR 52.227-19.
  
 Gaussian, Inc.
 340 Quinnipiac St., Bldg. 40, Wallingford CT 06492
  
  
 ---------------------------------------------------------------
 Warning -- This program may not be used in any manner that
 competes with the business of Gaussian, Inc. or will provide
 assistance to any competitor of Gaussian, Inc.  The licensee
 of this program is prohibited from giving any competitor of
 Gaussian, Inc. access to this program.  By using this program,
 the user acknowledges that Gaussian, Inc. is engaged in the
 business of creating and licensing software in the field of
 computational chemistry and represents and warrants to the
 licensee that it is not a competitor of Gaussian, Inc. and that
 it will not use this program in any manner prohibited above.
 ---------------------------------------------------------------
  

 Cite this work as:
 Gaussian 16, Revision C.02,
 M. J. Frisch, G. W. Trucks, H. B. Schlegel, G. E. Scuseria, 
 M. A. Robb, J. R. Cheeseman, G. Scalmani, V. Barone, 
 G. A. Petersson, H. Nakatsuji, X. Li, M. Caricato, A. V. Marenich, 
 J. Bloino, B. G. Janesko, R. Gomperts, B. Mennucci, H. P. Hratchian, 
 J. V. Ortiz, A. F. Izmaylov, J. L. Sonnenberg, D. Williams-Young, 
 F. Ding, F. Lipparini, F. Egidi, J. Goings, B. Peng, A. Petrone, 
 T. Henderson, D. Ranasinghe, V. G. Zakrzewski, J. Gao, N. Rega, 
 G. Zheng, W. Liang, M. Hada, M. Ehara, K. Toyota, R. Fukuda, 
 J. Hasegawa, M. Ishida, T. Nakajima, Y. Honda, O. Kitao, H. Nakai, 
 T. Vreven, K. Throssell, J. A. Montgomery, Jr., J. E. Peralta, 
 F. Ogliaro, M. J. Bearpark, J. J. Heyd, E. N. Brothers, K. N. Kudin, 
 V. N. Staroverov, T. A. Keith, R. Kobayashi, J. Normand, 
 K. Raghavachari, A. P. Rendell, J. C. Burant, S. S. Iyengar, 
 J. Tomasi, M. Cossi, J. M. Millam, M. Klene, C. Adamo, R. Cammi, 
 J. W. Ochterski, R. L. Martin, K. Morokuma, O. Farkas, 
 J. B. Foresman, and D. J. Fox, Gaussian, Inc., Wallingford CT, 2019.
 
 ******************************************
 Gaussian 16:  ES64L-G16RevC.02  7-Dec-2021
                14-Nov-2024 
 ******************************************
 %mem=16GB
 %CPU=0-71
 SetSPE:  set environment variable "OMP_PROC_BIND" = "true"
 SetSPE:  set environment variable "OMP_PLACES" = "{0},{1},{2},{3},{4},{5},{6},{7},{8},{9},{10},{11},{12},{13},{14},{15},{16},{17},{18},{19},{20},{21},{22},{23},{24},{25},{26},{27},{28},{29},{30},{31},{32},{33},{34},{35},{36},{37},{38},{39},{40},{41},{42},{43},{44},{45},{46},{47},{48},{49},{50},{51},{52},{53},{54},{55},{56},{57},{58},{59},{60},{61},{62},{63},{64},{65},{66},{67},{68},{69},{70},{71}"
 Will use up to   72 processors via shared memory.
 %gpucpu=0,1,2,3=0,1,2,3
 Will use    4 GPUs:
 Thread  CPU   GPU
      0    0     0
      1    1     1
      2    2     2
      3    3     3
      4    4    -1
      5    5    -1
      6    6    -1
      7    7    -1
      8    8    -1
      9    9    -1
     10   10    -1
     11   11    -1
     12   12    -1
     13   13    -1
     14   14    -1
     15   15    -1
     16   16    -1
     17   17    -1
     18   18    -1
     19   19    -1
     20   20    -1
     21   21    -1
     22   22    -1
     23   23    -1
     24   24    -1
     25   25    -1
     26   26    -1
     27   27    -1
     28   28    -1
     29   29    -1
     30   30    -1
     31   31    -1
     32   32    -1
     33   33    -1
     34   34    -1
     35   35    -1
     36   36    -1
     37   37    -1
     38   38    -1
     39   39    -1
     40   40    -1
     41   41    -1
     42   42    -1
     43   43    -1
     44   44    -1
     45   45    -1
     46   46    -1
     47   47    -1
     48   48    -1
     49   49    -1
     50   50    -1
     51   51    -1
     52   52    -1
     53   53    -1
     54   54    -1
     55   55    -1
     56   56    -1
     57   57    -1
     58   58    -1
     59   59    -1
     60   60    -1
     61   61    -1
     62   62    -1
     63   63    -1
     64   64    -1
     65   65    -1
     66   66    -1
     67   67    -1
     68   68    -1
     69   69    -1
     70   70    -1
     71   71    -1
 SetGPE:  set environment variable "OMP_PROC_BIND" = "true"
 SetGPE:  set environment variable "OMP_PLACES" = "{0},{1},{2},{3},{4},{5},{6},{7},{8},{9},{10},{11},{12},{13},{14},{15},{16},{17},{18},{19},{20},{21},{22},{23},{24},{25},{26},{27},{28},{29},{30},{31},{32},{33},{34},{35},{36},{37},{38},{39},{40},{41},{42},{43},{44},{45},{46},{47},{48},{49},{50},{51},{52},{53},{54},{55},{56},{57},{58},{59},{60},{61},{62},{63},{64},{65},{66},{67},{68},{69},{70},{71}"
 %chk=6vdq_II_O.chk
 Properties for Device   0
 Minimum vector length:                              32
 Maximum vector length:                            1024
 Number of SMPs:                                    108
 Maximum number of threads per SMP:                2048
 Number of ASync Engines:                             5
 Memory:                                           9207742464
 Properties for Device   1
 Minimum vector length:                              32
 Maximum vector length:                            1024
 Number of SMPs:                                    108
 Maximum number of threads per SMP:                2048
 Number of ASync Engines:                             5
 Memory:                                           9207742464
 Properties for Device   2
 Minimum vector length:                              32
 Maximum vector length:                            1024
 Number of SMPs:                                    108
 Maximum number of threads per SMP:                2048
 Number of ASync Engines:                             5
 Memory:                                           9207742464
 Properties for Device   3
 Minimum vector length:                              32
 Maximum vector length:                            1024
 Number of SMPs:                                    108
 Maximum number of threads per SMP:                2048
 Number of ASync Engines:                             5
 Memory:                                           9207742464
   8286968217 words of memory will be used on each GPU.
 ------------------------------------------
 # polar def2tzvp apfd int=(grid=ultrafine)
 ------------------------------------------
 1/38=1,172=1/1;
 2/12=2,17=6,18=5,40=1/2;
 3/5=44,7=101,11=2,25=1,30=1,74=-44,75=-5/1,2,3;
 4//1;
 5/5=2,38=5,98=1/2;
 8/6=4,10=90,11=11/1;
 10/6=1,13=10/2;
 6/7=2,8=2,9=2,10=2,28=1/1;
 99/5=1,9=1/99;
 ---------
 6vdq_II_S
 ---------
 Symbolic Z-matrix:
 Charge =  0 Multiplicity = 1
 Fe                    27.158   -7.685     17.146 
 N                     25.486   -7.012     16.22 
 N                     27.385   -5.863     18.032 
 N                     28.854   -8.327     18.009 
 N                     26.975   -9.474     16.314 
 C                     24.747   -7.745     15.323 
 C                     23.55    -7.        15.007 
 C                     23.578   -5.868     15.704 
 C                     24.807   -5.849     16.471 
 C                     26.469   -4.818     17.92 
 C                     27.017   -3.641     18.548 
 C                     28.386   -4.058     19.081 
 C                     28.515   -5.45      18.72 
 C                     29.659   -7.571     18.839 
 C                     30.582   -8.436     19.521 
 C                     30.472   -9.641     18.978 
 C                     29.274   -9.628     18.164 
 C                     27.691   -10.615    16.62 
 C                     27.188   -11.711    15.811 
 C                     26.164   -11.202    15.092 
 C                     26.037   -9.805     15.379 
 C                     25.11    -8.967     14.808 
 H                     24.63    -9.293     13.885 
 C                     25.241   -4.863     17.313 
 H                     24.552   -4.044     17.519 
 C                     29.601   -6.22      19.017 
 H                     30.481   -5.722     19.424 
 C                     28.728   -10.696    17.511 
 H                     29.147   -11.682    17.713 
 C                     22.434   -7.476     14.057 
 H                     22.261   -8.455     14.554 
 H                     23.086   -7.632     13.171 
 H                     21.456   -7.055     13.74 
 C                     22.502   -4.769     15.678 
 H                     23.191   -3.94      15.409 
 H                     22.327   -4.751     16.775 
 H                     21.541   -4.628     15.138 
 C                     25.219   -11.824    14.05 
 H                     24.324   -11.703    13.403 
 H                     25.02    -12.625    14.794 
 H                     26.087   -12.102    13.415 
 C                     27.734   -13.151    15.961 
 H                     27.644   -13.823    16.805 
 C                     27.712   -14.001    14.679 
 H                     27.792   -13.524    13.691 
 H                     27.617   -15.095    14.736 
 C                     31.105   -10.919    19.569 
 H                     31.576   -11.217    18.608 
 H                     30.167   -11.498    19.705 
 H                     31.81    -11.138    20.399 
 C                     31.641   -7.957     20.544 
 H                     31.328   -7.591     21.517 
 C                     32.919   -7.576     19.768 
 H                     33.127   -8.018     18.783 
 H                     33.636   -6.858     20.192 
 C                     29.427   -3.21      19.85 
 H                     30.433   -3.274     20.316 
 H                     28.682   -2.96      20.635 
 H                     29.44    -2.417     19.072 
 C                     26.323   -2.264     18.652 
 H                     27.234   -1.739     18.294 
 H                     26.342   -2.302     19.762 
 H                     25.427   -1.706     18.306 
 C                     31.108   -7.403     13.117 
 H                     32.074   -7.044     13.534 
 H                     30.942   -6.924     12.128 
 H                     31.153   -8.507     13.001 
 N                     29.664   -5.731     14.319 
 H                     30.108   -4.935     13.907 
 C                     29.999   -7.039     14.046 
 C                     28.679   -5.702     15.197 
 H                     28.21    -4.794     15.574 
 N                     28.382   -6.944     15.519 
 C                     29.196   -7.804     14.819 
 H                     29.124   -8.877     14.939 
 C                     25.473   -8.82      22.353 
 H                     25.456   -9.88      22.685 
 H                     24.547   -8.317     22.705 
 H                     26.365   -8.32      22.787 
 N                     24.594   -9.357     20.055 
 H                     23.805   -9.874     20.387 
 C                     25.54    -8.766     20.866 
 C                     24.899   -9.131     18.794 
 H                     24.317   -9.483     17.943 
 N                     26.008   -8.421     18.76 
 C                     26.434   -8.179     20.04 
 H                     27.334   -7.611     20.241 
 
 Stoichiometry    C38H40FeN8
 Framework group  C1[X(C38H40FeN8)]
 Deg. of freedom   255
 Full point group                 C1      NOp   1
 Largest Abelian subgroup         C1      NOp   1
 Largest concise Abelian subgroup C1      NOp   1
                         Standard orientation:                         
 ---------------------------------------------------------------------
 Center     Atomic      Atomic             Coordinates (Angstroms)
 Number     Number       Type             X           Y           Z
 ---------------------------------------------------------------------
      1         26           0       -0.021860    0.239581   -0.026357
      2          7           0       -0.730934    2.132068   -0.173644
      3          7           0        1.882779    0.966574   -0.032676
      4          7           0        0.684808   -1.638829    0.048115
      5          7           0       -1.854680   -0.513223   -0.009231
      6          6           0       -2.061431    2.455836   -0.287532
      7          6           0       -2.186584    3.892724   -0.201637
      8          6           0       -0.968801    4.398970   -0.032114
      9          6           0       -0.027085    3.297962   -0.025655
     10          6           0        2.203347    2.323305   -0.020844
     11          6           0        3.629259    2.472497   -0.177481
     12          6           0        4.182868    1.053138   -0.282728
     13          6           0        3.026239    0.196006   -0.172458
     14          6           0        2.022132   -1.984703    0.067990
     15          6           0        2.149622   -3.363886    0.451239
     16          6           0        0.930155   -3.884956    0.470254
     17          6           0       -0.001538   -2.778162    0.400076
     18          6           0       -2.220012   -1.816802    0.265333
     19          6           0       -3.668525   -1.912006    0.227236
     20          6           0       -4.116314   -0.661310   -0.017431
     21          6           0       -2.996068    0.213570   -0.189881
     22          6           0       -3.083548    1.555166   -0.472868
     23          1           0       -4.026607    1.930633   -0.870700
     24          6           0        1.331458    3.372712    0.109586
     25          1           0        1.756672    4.349220    0.340981
     26          6           0        3.077178   -1.166508   -0.210731
     27          1           0        4.024616   -1.632159   -0.481994
     28          6           0       -1.361304   -2.857812    0.499278
     29          1           0       -1.793478   -3.817200    0.784517
     30          6           0       -3.514595    4.672265   -0.258499
     31          1           0       -4.022014    4.106797    0.552766
     32          1           0       -3.848981    4.272616   -1.239776
     33          1           0       -3.785547    5.746275   -0.173054
     34          6           0       -0.627286    5.892138    0.109559
     35          1           0        0.108961    5.920980   -0.721965
     36          1           0       -0.080758    5.796067    1.072074
     37          1           0       -1.217550    6.833685    0.100607
     38          6           0       -5.530847   -0.080683   -0.183696
     39          1           0       -6.167567    0.821684   -0.304503
     40          1           0       -5.783443   -0.573422    0.779705
     41          1           0       -5.726584   -0.774802   -1.028573
     42          6           0       -4.406782   -3.230621    0.559571
     43          1           0       -4.465801   -3.751444    1.506820
     44          6           0       -5.740211   -3.443145   -0.177524
     45          1           0       -5.906302   -3.000289   -1.170683
     46          1           0       -6.541866   -4.040920    0.279778
     47          6           0        0.588559   -5.269909    1.060567
     48          1           0        0.035387   -5.599505    0.155286
     49          1           0       -0.141864   -4.927884    1.824166
     50          1           0        1.177101   -6.125587    1.454673
     51          6           0        3.496686   -4.113907    0.593849
     52          1           0        4.170721   -3.867367    1.408434
     53          6           0        3.869856   -4.695373   -0.785739
     54          1           0        3.090915   -4.904370   -1.533017
     55          1           0        4.919429   -4.907237   -1.036538
     56          6           0        5.650226    0.594808   -0.458624
     57          1           0        6.274027   -0.318692   -0.556998
     58          1           0        5.958920    1.144639    0.455785
     59          1           0        5.801873    1.233040   -1.355265
     60          6           0        4.401168    3.810991   -0.211720
     61          1           0        4.958806    3.506039   -1.122628
     62          1           0        4.993888    3.529397    0.684546
     63          1           0        4.247331    4.910836   -0.235594
     64          6           0       -0.418297   -1.737770   -5.303457
     65          1           0        0.469080   -2.355286   -5.562612
     66          1           0       -0.684509   -1.104590   -6.177145
     67          1           0       -1.265181   -2.411016   -5.050819
     68          7           0        0.865631    0.112624   -4.184039
     69          1           0        1.398406    0.341198   -4.999147
     70          6           0       -0.096873   -0.871513   -4.132260
     71          6           0        0.966670    0.693332   -3.003142
     72          1           0        1.641187    1.516838   -2.772018
     73          7           0        0.120863    0.103344   -2.184007
     74          6           0       -0.555370   -0.885163   -2.860585
     75          1           0       -1.297573   -1.501822   -2.370912
     76          6           0        1.335567   -0.294637    5.369225
     77          1           0        0.742368   -0.992338    5.998067
     78          1           0        1.514646    0.641632    5.939943
     79          1           0        2.304284   -0.774238    5.113116
     80          7           0       -0.683227    0.562701    4.131786
     81          1           0       -1.199306    0.784501    4.959132
     82          6           0        0.581748    0.013463    4.122066
     83          6           0       -1.089755    0.741816    2.892078
     84          1           0       -2.053843    1.164129    2.610981
     85          7           0       -0.137738    0.324861    2.082788
     86          6           0        0.919165   -0.138198    2.822363
     87          1           0        1.811956   -0.531783    2.352213
 ---------------------------------------------------------------------
 Rotational constants (GHZ):           0.0757909           0.0736126           0.0585963
 Standard basis: def2TZVP (5D, 7F)
 There are  1948 symmetry adapted cartesian basis functions of A   symmetry.
 There are  1711 symmetry adapted basis functions of A   symmetry.
  1711 basis functions,  2768 primitive gaussians,  1948 cartesian basis functions
   175 alpha electrons      175 beta electrons
       nuclear repulsion energy      7093.8880862174 Hartrees.
 NAtoms=   87 NActive=   87 NUniq=   87 SFac= 1.00D+00 NAtFMM=   60 NAOKFM=T Big=T
 Integral buffers will be    131072 words long.
 Raffenetti 2 integral format.
 Two-electron integral symmetry is turned on.
 R6APFD:  NTU= -4 IXU= 1 FactS= 1.050
 Nuclear repulsion after empirical dispersion term =     7093.7175087124 Hartrees.
 One-electron integrals computed using PRISM.
   1 Symmetry operations used in ECPInt.
 ECPInt:  NShTT=  232221 NPrTT=  716997 LenC2=  182400 LenP2D=  369028.
 LDataN:  DoStor=T MaxTD1= 6 Len=  172
 Number of processors reduced to  20 by ecpmxn.
 NBasis=  1711 RedAO= T EigKep=  4.51D-06  NBF=  1711
 NBsUse=  1711 1.00D-06 EigRej= -1.00D+00 NBFU=  1711
 ExpMin= 4.20D-02 ExpMax= 3.01D+05 ExpMxC= 2.91D+03 IAcc=3 IRadAn=         5 AccDes= 0.00D+00
 Harris functional with IExCor= 3731 and IRadAn=       5 diagonalized for initial guess.
 HarFok:  IExCor= 3731 AccDes= 0.00D+00 IRadAn=         5 IDoV= 1 UseB2=F ITyADJ=14
 ICtDFT=  3500011 ScaDFX=  1.000000  1.000000  1.000000  1.000000
 FoFCou: FMM=F IPFlag=           0 FMFlag=      100000 FMFlg1=        2001
         NFxFlg=           0 DoJE=T BraDBF=F KetDBF=T FulRan=T
         wScrn=  0.000000 ICntrl=       500 IOpCl=  0 I1Cent=   200000004 NGrid=           0
         NMat0=    1 NMatS0=      1 NMatT0=    0 NMatD0=    1 NMtDS0=    0 NMtDT0=    0
 Petite list used in FoFCou.
 Requested convergence on RMS density matrix=1.00D-08 within 128 cycles.
 Requested convergence on MAX density matrix=1.00D-06.
 Requested convergence on             energy=1.00D-06.
 No special actions if energy rises.
 EnCoef did     1 forward-backward iterations
 EnCoef did   100 forward-backward iterations
 EnCoef did   100 forward-backward iterations
 EnCoef did   100 forward-backward iterations
 EnCoef did   100 forward-backward iterations
 EnCoef did    12 forward-backward iterations
 EnCoef did   100 forward-backward iterations
 EnCoef did     3 forward-backward iterations
 Restarting incremental Fock formation.
 SCF Done:  E(RAPFD) =  -3172.69737368     A.U. after   32 cycles
            NFock= 32  Conv=0.15D-08     -V/T= 2.0043
 DoSCS=F DFT=T ScalE2(SS,OS)=  1.000000  1.000000
 Range of M.O.s used for correlation:     1  1711
 NBasis=  1711 NAE=   175 NBE=   175 NFC=     0 NFV=     0
 NROrb=   1711 NOA=   175 NOB=   175 NVA=  1536 NVB=  1536

 **** Warning!!: The largest alpha MO coefficient is  0.65949287D+02


 **** Warning!!: The smallest alpha delta epsilon is  0.95715575D-01

          Differentiating once with respect to electric field.
                with respect to dipole field.
          Electric field/nuclear overlap derivatives assumed to be zero.
          There are     3 degrees of freedom in the 1st order CPHF.  IDoFFX=0 NUNeed=     3.
      3 vectors produced by pass  0 Test12= 8.96D-12 3.33D-08 XBig12= 2.00D+03 2.44D+01.
 AX will form     3 AO Fock derivatives at one time.
      3 vectors produced by pass  1 Test12= 8.96D-12 3.33D-08 XBig12= 1.41D+03 8.92D+00.
      3 vectors produced by pass  2 Test12= 8.96D-12 3.33D-08 XBig12= 4.44D+02 4.18D+00.
      3 vectors produced by pass  3 Test12= 8.96D-12 3.33D-08 XBig12= 6.54D+02 1.04D+01.
      3 vectors produced by pass  4 Test12= 8.96D-12 3.33D-08 XBig12= 3.78D+02 3.29D+00.
      3 vectors produced by pass  5 Test12= 8.96D-12 3.33D-08 XBig12= 2.28D+02 3.14D+00.
      3 vectors produced by pass  6 Test12= 8.96D-12 3.33D-08 XBig12= 1.04D+02 2.92D+00.
      3 vectors produced by pass  7 Test12= 8.96D-12 3.33D-08 XBig12= 4.45D+01 1.41D+00.
      3 vectors produced by pass  8 Test12= 8.96D-12 3.33D-08 XBig12= 3.34D+01 1.13D+00.
      3 vectors produced by pass  9 Test12= 8.96D-12 3.33D-08 XBig12= 1.71D+01 7.09D-01.
      3 vectors produced by pass 10 Test12= 8.96D-12 3.33D-08 XBig12= 1.39D+01 7.53D-01.
      3 vectors produced by pass 11 Test12= 8.96D-12 3.33D-08 XBig12= 8.51D+00 5.72D-01.
      3 vectors produced by pass 12 Test12= 8.96D-12 3.33D-08 XBig12= 3.27D+00 2.64D-01.
      3 vectors produced by pass 13 Test12= 8.96D-12 3.33D-08 XBig12= 1.49D+00 1.92D-01.
      3 vectors produced by pass 14 Test12= 8.96D-12 3.33D-08 XBig12= 5.76D-01 1.26D-01.
      3 vectors produced by pass 15 Test12= 8.96D-12 3.33D-08 XBig12= 2.42D-01 1.03D-01.
      3 vectors produced by pass 16 Test12= 8.96D-12 3.33D-08 XBig12= 7.20D-02 5.80D-02.
      3 vectors produced by pass 17 Test12= 8.96D-12 3.33D-08 XBig12= 3.10D-02 2.95D-02.
      3 vectors produced by pass 18 Test12= 8.96D-12 3.33D-08 XBig12= 1.37D-02 1.93D-02.
      3 vectors produced by pass 19 Test12= 8.96D-12 3.33D-08 XBig12= 3.56D-03 8.01D-03.
      3 vectors produced by pass 20 Test12= 8.96D-12 3.33D-08 XBig12= 1.01D-03 5.34D-03.
      3 vectors produced by pass 21 Test12= 8.96D-12 3.33D-08 XBig12= 2.09D-04 3.51D-03.
      3 vectors produced by pass 22 Test12= 8.96D-12 3.33D-08 XBig12= 5.52D-05 1.77D-03.
      3 vectors produced by pass 23 Test12= 8.96D-12 3.33D-08 XBig12= 1.56D-05 8.40D-04.
      3 vectors produced by pass 24 Test12= 8.96D-12 3.33D-08 XBig12= 4.47D-06 3.60D-04.
      3 vectors produced by pass 25 Test12= 8.96D-12 3.33D-08 XBig12= 1.20D-06 1.38D-04.
      3 vectors produced by pass 26 Test12= 8.96D-12 3.33D-08 XBig12= 2.28D-07 6.47D-05.
      3 vectors produced by pass 27 Test12= 8.96D-12 3.33D-08 XBig12= 4.67D-08 2.28D-05.
      3 vectors produced by pass 28 Test12= 8.96D-12 3.33D-08 XBig12= 4.66D-09 5.84D-06.
      3 vectors produced by pass 29 Test12= 8.96D-12 3.33D-08 XBig12= 1.03D-09 4.34D-06.
      3 vectors produced by pass 30 Test12= 8.96D-12 3.33D-08 XBig12= 2.00D-10 1.39D-06.
      3 vectors produced by pass 31 Test12= 8.96D-12 3.33D-08 XBig12= 1.95D-11 5.37D-07.
      3 vectors produced by pass 32 Test12= 8.96D-12 3.33D-08 XBig12= 5.39D-12 3.28D-07.
      2 vectors produced by pass 33 Test12= 8.96D-12 3.33D-08 XBig12= 1.08D-12 2.27D-07.
      1 vectors produced by pass 34 Test12= 8.96D-12 3.33D-08 XBig12= 1.12D-13 7.24D-08.
 InvSVY:  IOpt=1 It=  1 EMax= 2.84D-14
 Solved reduced A of dimension   102 with     3 vectors.
 Isotropic polarizability for W=    0.000000      631.98 Bohr**3.
 End of Minotr F.D. properties file   721 does not exist.
 End of Minotr F.D. properties file   722 does not exist.
 End of Minotr F.D. properties file   788 does not exist.

 **********************************************************************

            Population analysis using the SCF Density.

 **********************************************************************

 Orbital symmetries:
       Occupied  (A) (A) (A) (A) (A) (A) (A) (A) (A) (A) (A) (A)
                 (A) (A) (A) (A) (A) (A) (A) (A) (A) (A) (A) (A)
                 (A) (A) (A) (A) (A) (A) (A) (A) (A) (A) (A) (A)
                 (A) (A) (A) (A) (A) (A) (A) (A) (A) (A) (A) (A)
                 (A) (A) (A) (A) (A) (A) (A) (A) (A) (A) (A) (A)
                 (A) (A) (A) (A) (A) (A) (A) (A) (A) (A) (A) (A)
                 (A) (A) (A) (A) (A) (A) (A) (A) (A) (A) (A) (A)
                 (A) (A) (A) (A) (A) (A) (A) (A) (A) (A) (A) (A)
                 (A) (A) (A) (A) (A) (A) (A) (A) (A) (A) (A) (A)
                 (A) (A) (A) (A) (A) (A) (A) (A) (A) (A) (A) (A)
                 (A) (A) (A) (A) (A) (A) (A) (A) (A) (A) (A) (A)
                 (A) (A) (A) (A) (A) (A) (A) (A) (A) (A) (A) (A)
                 (A) (A) (A) (A) (A) (A) (A) (A) (A) (A) (A) (A)
                 (A) (A) (A) (A) (A) (A) (A) (A) (A) (A) (A) (A)
                 (A) (A) (A) (A) (A) (A) (A)
       Virtual   (A) (A) (A) (A) (A) (A) (A) (A) (A) (A) (A) (A)
                 (A) (A) (A) (A) (A) (A) (A) (A) (A) (A) (A) (A)
                 (A) (A) (A) (A) (A) (A) (A) (A) (A) (A) (A) (A)
                 (A) (A) (A) (A) (A) (A) (A) (A) (A) (A) (A) (A)
                 (A) (A) (A) (A) (A) (A) (A) (A) (A) (A) (A) (A)
                 (A) (A) (A) (A) (A) (A) (A) (A) (A) (A) (A) (A)
                 (A) (A) (A) (A) (A) (A) (A) (A) (A) (A) (A) (A)
                 (A) (A) (A) (A) (A) (A) (A) (A) (A) (A) (A) (A)
                 (A) (A) (A) (A) (A) (A) (A) (A) (A) (A) (A) (A)
                 (A) (A) (A) (A) (A) (A) (A) (A) (A) (A) (A) (A)
                 (A) (A) (A) (A) (A) (A) (A) (A) (A) (A) (A) (A)
                 (A) (A) (A) (A) (A) (A) (A) (A) (A) (A) (A) (A)
                 (A) (A) (A) (A) (A) (A) (A) (A) (A) (A) (A) (A)
                 (A) (A) (A) (A) (A) (A) (A) (A) (A) (A) (A) (A)
                 (A) (A) (A) (A) (A) (A) (A) (A) (A) (A) (A) (A)
                 (A) (A) (A) (A) (A) (A) (A) (A) (A) (A) (A) (A)
                 (A) (A) (A) (A) (A) (A) (A) (A) (A) (A) (A) (A)
                 (A) (A) (A) (A) (A) (A) (A) (A) (A) (A) (A) (A)
                 (A) (A) (A) (A) (A) (A) (A) (A) (A) (A) (A) (A)
                 (A) (A) (A) (A) (A) (A) (A) (A) (A) (A) (A) (A)
                 (A) (A) (A) (A) (A) (A) (A) (A) (A) (A) (A) (A)
                 (A) (A) (A) (A) (A) (A) (A) (A) (A) (A) (A) (A)
                 (A) (A) (A) (A) (A) (A) (A) (A) (A) (A) (A) (A)
                 (A) (A) (A) (A) (A) (A) (A) (A) (A) (A) (A) (A)
                 (A) (A) (A) (A) (A) (A) (A) (A) (A) (A) (A) (A)
                 (A) (A) (A) (A) (A) (A) (A) (A) (A) (A) (A) (A)
                 (A) (A) (A) (A) (A) (A) (A) (A) (A) (A) (A) (A)
                 (A) (A) (A) (A) (A) (A) (A) (A) (A) (A) (A) (A)
                 (A) (A) (A) (A) (A) (A) (A) (A) (A) (A) (A) (A)
                 (A) (A) (A) (A) (A) (A) (A) (A) (A) (A) (A) (A)
                 (A) (A) (A) (A) (A) (A) (A) (A) (A) (A) (A) (A)
                 (A) (A) (A) (A) (A) (A) (A) (A) (A) (A) (A) (A)
                 (A) (A) (A) (A) (A) (A) (A) (A) (A) (A) (A) (A)
                 (A) (A) (A) (A) (A) (A) (A) (A) (A) (A) (A) (A)
                 (A) (A) (A) (A) (A) (A) (A) (A) (A) (A) (A) (A)
                 (A) (A) (A) (A) (A) (A) (A) (A) (A) (A) (A) (A)
                 (A) (A) (A) (A) (A) (A) (A) (A) (A) (A) (A) (A)
                 (A) (A) (A) (A) (A) (A) (A) (A) (A) (A) (A) (A)
                 (A) (A) (A) (A) (A) (A) (A) (A) (A) (A) (A) (A)
                 (A) (A) (A) (A) (A) (A) (A) (A) (A) (A) (A) (A)
                 (A) (A) (A) (A) (A) (A) (A) (A) (A) (A) (A) (A)
                 (A) (A) (A) (A) (A) (A) (A) (A) (A) (A) (A) (A)
                 (A) (A) (A) (A) (A) (A) (A) (A) (A) (A) (A) (A)
                 (A) (A) (A) (A) (A) (A) (A) (A) (A) (A) (A) (A)
                 (A) (A) (A) (A) (A) (A) (A) (A) (A) (A) (A) (A)
                 (A) (A) (A) (A) (A) (A) (A) (A) (A) (A) (A) (A)
                 (A) (A) (A) (A) (A) (A) (A) (A) (A) (A) (A) (A)
                 (A) (A) (A) (A) (A) (A) (A) (A) (A) (A) (A) (A)
                 (A) (A) (A) (A) (A) (A) (A) (A) (A) (A) (A) (A)
                 (A) (A) (A) (A) (A) (A) (A) (A) (A) (A) (A) (A)
                 (A) (A) (A) (A) (A) (A) (A) (A) (A) (A) (A) (A)
                 (A) (A) (A) (A) (A) (A) (A) (A) (A) (A) (A) (A)
                 (A) (A) (A) (A) (A) (A) (A) (A) (A) (A) (A) (A)
                 (A) (A) (A) (A) (A) (A) (A) (A) (A) (A) (A) (A)
                 (A) (A) (A) (A) (A) (A) (A) (A) (A) (A) (A) (A)
                 (A) (A) (A) (A) (A) (A) (A) (A) (A) (A) (A) (A)
                 (A) (A) (A) (A) (A) (A) (A) (A) (A) (A) (A) (A)
                 (A) (A) (A) (A) (A) (A) (A) (A) (A) (A) (A) (A)
                 (A) (A) (A) (A) (A) (A) (A) (A) (A) (A) (A) (A)
                 (A) (A) (A) (A) (A) (A) (A) (A) (A) (A) (A) (A)
                 (A) (A) (A) (A) (A) (A) (A) (A) (A) (A) (A) (A)
                 (A) (A) (A) (A) (A) (A) (A) (A) (A) (A) (A) (A)
                 (A) (A) (A) (A) (A) (A) (A) (A) (A) (A) (A) (A)
                 (A) (A) (A) (A) (A) (A) (A) (A) (A) (A) (A) (A)
                 (A) (A) (A) (A) (A) (A) (A) (A) (A) (A) (A) (A)
                 (A) (A) (A) (A) (A) (A) (A) (A) (A) (A) (A) (A)
                 (A) (A) (A) (A) (A) (A) (A) (A) (A) (A) (A) (A)
                 (A) (A) (A) (A) (A) (A) (A) (A) (A) (A) (A) (A)
                 (A) (A) (A) (A) (A) (A) (A) (A) (A) (A) (A) (A)
                 (A) (A) (A) (A) (A) (A) (A) (A) (A) (A) (A) (A)
                 (A) (A) (A) (A) (A) (A) (A) (A) (A) (A) (A) (A)
                 (A) (A) (A) (A) (A) (A) (A) (A) (A) (A) (A) (A)
                 (A) (A) (A) (A) (A) (A) (A) (A) (A) (A) (A) (A)
                 (A) (A) (A) (A) (A) (A) (A) (A) (A) (A) (A) (A)
                 (A) (A) (A) (A) (A) (A) (A) (A) (A) (A) (A) (A)
                 (A) (A) (A) (A) (A) (A) (A) (A) (A) (A) (A) (A)
                 (A) (A) (A) (A) (A) (A) (A) (A) (A) (A) (A) (A)
                 (A) (A) (A) (A) (A) (A) (A) (A) (A) (A) (A) (A)
                 (A) (A) (A) (A) (A) (A) (A) (A) (A) (A) (A) (A)
                 (A) (A) (A) (A) (A) (A) (A) (A) (A) (A) (A) (A)
                 (A) (A) (A) (A) (A) (A) (A) (A) (A) (A) (A) (A)
                 (A) (A) (A) (A) (A) (A) (A) (A) (A) (A) (A) (A)
                 (A) (A) (A) (A) (A) (A) (A) (A) (A) (A) (A) (A)
                 (A) (A) (A) (A) (A) (A) (A) (A) (A) (A) (A) (A)
                 (A) (A) (A) (A) (A) (A) (A) (A) (A) (A) (A) (A)
                 (A) (A) (A) (A) (A) (A) (A) (A) (A) (A) (A) (A)
                 (A) (A) (A) (A) (A) (A) (A) (A) (A) (A) (A) (A)
                 (A) (A) (A) (A) (A) (A) (A) (A) (A) (A) (A) (A)
                 (A) (A) (A) (A) (A) (A) (A) (A) (A) (A) (A) (A)
                 (A) (A) (A) (A) (A) (A) (A) (A) (A) (A) (A) (A)
                 (A) (A) (A) (A) (A) (A) (A) (A) (A) (A) (A) (A)
                 (A) (A) (A) (A) (A) (A) (A) (A) (A) (A) (A) (A)
                 (A) (A) (A) (A) (A) (A) (A) (A) (A) (A) (A) (A)
                 (A) (A) (A) (A) (A) (A) (A) (A) (A) (A) (A) (A)
                 (A) (A) (A) (A) (A) (A) (A) (A) (A) (A) (A) (A)
                 (A) (A) (A) (A) (A) (A) (A) (A) (A) (A) (A) (A)
                 (A) (A) (A) (A) (A) (A) (A) (A) (A) (A) (A) (A)
                 (A) (A) (A) (A) (A) (A) (A) (A) (A) (A) (A) (A)
                 (A) (A) (A) (A) (A) (A) (A) (A) (A) (A) (A) (A)
                 (A) (A) (A) (A) (A) (A) (A) (A) (A) (A) (A) (A)
                 (A) (A) (A) (A) (A) (A) (A) (A) (A) (A) (A) (A)
                 (A) (A) (A) (A) (A) (A) (A) (A) (A) (A) (A) (A)
                 (A) (A) (A) (A) (A) (A) (A) (A) (A) (A) (A) (A)
                 (A) (A) (A) (A) (A) (A) (A) (A) (A) (A) (A) (A)
                 (A) (A) (A) (A) (A) (A) (A) (A) (A) (A) (A) (A)
                 (A) (A) (A) (A) (A) (A) (A) (A) (A) (A) (A) (A)
                 (A) (A) (A) (A) (A) (A) (A) (A) (A) (A) (A) (A)
                 (A) (A) (A) (A) (A) (A) (A) (A) (A) (A) (A) (A)
                 (A) (A) (A) (A) (A) (A) (A) (A) (A) (A) (A) (A)
                 (A) (A) (A) (A) (A) (A) (A) (A) (A) (A) (A) (A)
                 (A) (A) (A) (A) (A) (A) (A) (A) (A) (A) (A) (A)
                 (A) (A) (A) (A) (A) (A) (A) (A) (A) (A) (A) (A)
                 (A) (A) (A) (A) (A) (A) (A) (A) (A) (A) (A) (A)
                 (A) (A) (A) (A) (A) (A) (A) (A) (A) (A) (A) (A)
                 (A) (A) (A) (A) (A) (A) (A) (A) (A) (A) (A) (A)
                 (A) (A) (A) (A) (A) (A) (A) (A) (A) (A) (A) (A)
                 (A) (A) (A) (A) (A) (A) (A) (A) (A) (A) (A) (A)
                 (A) (A) (A) (A) (A) (A) (A) (A) (A) (A) (A) (A)
                 (A) (A) (A) (A) (A) (A) (A) (A) (A) (A) (A) (A)
                 (A) (A) (A) (A) (A) (A) (A) (A) (A) (A) (A) (A)
                 (A) (A) (A) (A) (A) (A) (A) (A) (A) (A) (A) (A)
                 (A) (A) (A) (A) (A) (A) (A) (A) (A) (A) (A) (A)
                 (A) (A) (A) (A) (A) (A) (A) (A) (A) (A) (A) (A)
                 (A) (A) (A) (A) (A) (A) (A) (A) (A) (A) (A) (A)
                 (A) (A) (A) (A) (A) (A) (A) (A) (A) (A) (A) (A)
                 (A) (A) (A) (A) (A) (A) (A) (A) (A) (A) (A) (A)
                 (A) (A) (A) (A) (A) (A) (A) (A) (A) (A) (A) (A)
                 (A) (A) (A) (A) (A) (A) (A) (A) (A) (A) (A) (A)
 The electronic state is 1-A.
 Alpha  occ. eigenvalues -- -256.16234 -30.01240 -25.85415 -25.85061 -25.84914
 Alpha  occ. eigenvalues --  -14.40870 -14.40508 -14.34591 -14.34100 -14.32351
 Alpha  occ. eigenvalues --  -14.32199 -14.32068 -14.31292 -10.24824 -10.24429
 Alpha  occ. eigenvalues --  -10.23179 -10.22758 -10.22532 -10.22522 -10.22025
 Alpha  occ. eigenvalues --  -10.21179 -10.21159 -10.20989 -10.20697 -10.20671
 Alpha  occ. eigenvalues --  -10.20307 -10.20230 -10.20197 -10.20125 -10.20044
 Alpha  occ. eigenvalues --  -10.19960 -10.19958 -10.19836 -10.19822 -10.19718
 Alpha  occ. eigenvalues --  -10.19651 -10.19498 -10.19427 -10.19384 -10.18845
 Alpha  occ. eigenvalues --  -10.18819 -10.18665 -10.18391 -10.18085 -10.17851
 Alpha  occ. eigenvalues --  -10.17850 -10.17717 -10.17671 -10.17658 -10.17524
 Alpha  occ. eigenvalues --  -10.17345  -3.38651  -2.15174  -2.14604  -2.14362
 Alpha  occ. eigenvalues --   -1.05087  -1.04624  -0.95407  -0.94544  -0.94079
 Alpha  occ. eigenvalues --   -0.92045  -0.89197  -0.88682  -0.81540  -0.79969
 Alpha  occ. eigenvalues --   -0.79858  -0.79523  -0.79482  -0.79176  -0.78735
 Alpha  occ. eigenvalues --   -0.78455  -0.77818  -0.74715  -0.73433  -0.72901
 Alpha  occ. eigenvalues --   -0.72604  -0.72065  -0.70727  -0.70432  -0.69371
 Alpha  occ. eigenvalues --   -0.68318  -0.66888  -0.66678  -0.65730  -0.63607
 Alpha  occ. eigenvalues --   -0.63447  -0.62969  -0.62886  -0.60804  -0.60458
 Alpha  occ. eigenvalues --   -0.60141  -0.59259  -0.56991  -0.55462  -0.54913
 Alpha  occ. eigenvalues --   -0.54512  -0.53868  -0.52757  -0.52572  -0.50947
 Alpha  occ. eigenvalues --   -0.49893  -0.49552  -0.49302  -0.47755  -0.47197
 Alpha  occ. eigenvalues --   -0.46887  -0.46806  -0.46580  -0.46516  -0.46263
 Alpha  occ. eigenvalues --   -0.44625  -0.44202  -0.43903  -0.43765  -0.43582
 Alpha  occ. eigenvalues --   -0.43241  -0.43089  -0.42896  -0.42464  -0.42172
 Alpha  occ. eigenvalues --   -0.42031  -0.41994  -0.41757  -0.41705  -0.41660
 Alpha  occ. eigenvalues --   -0.41375  -0.40778  -0.40677  -0.40631  -0.40508
 Alpha  occ. eigenvalues --   -0.40428  -0.40205  -0.39897  -0.39439  -0.38973
 Alpha  occ. eigenvalues --   -0.38703  -0.38315  -0.38109  -0.37763  -0.37203
 Alpha  occ. eigenvalues --   -0.36890  -0.36455  -0.36092  -0.36020  -0.35203
 Alpha  occ. eigenvalues --   -0.34589  -0.34343  -0.32826  -0.32179  -0.32071
 Alpha  occ. eigenvalues --   -0.31600  -0.31270  -0.30872  -0.30414  -0.30227
 Alpha  occ. eigenvalues --   -0.29910  -0.29781  -0.28132  -0.27944  -0.26727
 Alpha  occ. eigenvalues --   -0.26252  -0.25923  -0.25038  -0.24296  -0.23646
 Alpha  occ. eigenvalues --   -0.23361  -0.22337  -0.21978  -0.21666  -0.20000
 Alpha  occ. eigenvalues --   -0.17814  -0.17169  -0.17123  -0.16312  -0.15939
 Alpha virt. eigenvalues --   -0.06367  -0.05215  -0.03683  -0.03237   0.00204
 Alpha virt. eigenvalues --    0.02313   0.02539   0.02894   0.03330   0.04278
 Alpha virt. eigenvalues --    0.04479   0.04778   0.05265   0.05820   0.06152
 Alpha virt. eigenvalues --    0.06355   0.06646   0.06732   0.06909   0.07028
 Alpha virt. eigenvalues --    0.07241   0.07530   0.07958   0.08260   0.08374
 Alpha virt. eigenvalues --    0.08671   0.08861   0.08987   0.09071   0.09523
 Alpha virt. eigenvalues --    0.09901   0.09914   0.10078   0.10375   0.10710
 Alpha virt. eigenvalues --    0.10854   0.11111   0.11327   0.11629   0.11898
 Alpha virt. eigenvalues --    0.12067   0.12249   0.12512   0.12554   0.12736
 Alpha virt. eigenvalues --    0.12888   0.13329   0.13494   0.13586   0.13806
 Alpha virt. eigenvalues --    0.13994   0.14348   0.14400   0.14621   0.14787
 Alpha virt. eigenvalues --    0.14832   0.15046   0.15275   0.15465   0.15904
 Alpha virt. eigenvalues --    0.16131   0.16614   0.17082   0.17515   0.18014
 Alpha virt. eigenvalues --    0.18091   0.18493   0.18925   0.19030   0.19534
 Alpha virt. eigenvalues --    0.19623   0.19780   0.20071   0.20159   0.20256
 Alpha virt. eigenvalues --    0.20416   0.20755   0.20819   0.20920   0.21240
 Alpha virt. eigenvalues --    0.21278   0.21494   0.21717   0.21855   0.22109
 Alpha virt. eigenvalues --    0.22411   0.22717   0.22963   0.23207   0.23546
 Alpha virt. eigenvalues --    0.23627   0.23872   0.23909   0.24029   0.24428
 Alpha virt. eigenvalues --    0.24505   0.24747   0.24976   0.25201   0.25600
 Alpha virt. eigenvalues --    0.25986   0.26320   0.26753   0.26839   0.26966
 Alpha virt. eigenvalues --    0.27458   0.27765   0.27955   0.28125   0.28442
 Alpha virt. eigenvalues --    0.28622   0.28776   0.29144   0.29248   0.29456
 Alpha virt. eigenvalues --    0.29850   0.29900   0.30118   0.30209   0.30530
 Alpha virt. eigenvalues --    0.31042   0.31413   0.31511   0.31647   0.31913
 Alpha virt. eigenvalues --    0.32394   0.32567   0.32799   0.32992   0.33400
 Alpha virt. eigenvalues --    0.33602   0.33929   0.34099   0.34409   0.34899
 Alpha virt. eigenvalues --    0.35085   0.35234   0.35666   0.35843   0.36012
 Alpha virt. eigenvalues --    0.36397   0.36487   0.36787   0.37199   0.37364
 Alpha virt. eigenvalues --    0.37582   0.37953   0.38021   0.38248   0.38459
 Alpha virt. eigenvalues --    0.38632   0.38731   0.39079   0.39415   0.39496
 Alpha virt. eigenvalues --    0.39722   0.39800   0.40240   0.40294   0.40584
 Alpha virt. eigenvalues --    0.40728   0.40916   0.41019   0.41361   0.41600
 Alpha virt. eigenvalues --    0.41708   0.41956   0.42068   0.42604   0.42688
 Alpha virt. eigenvalues --    0.42729   0.42981   0.43141   0.43430   0.43611
 Alpha virt. eigenvalues --    0.43669   0.43898   0.44004   0.44222   0.44314
 Alpha virt. eigenvalues --    0.44342   0.44674   0.44744   0.44946   0.45080
 Alpha virt. eigenvalues --    0.45278   0.45486   0.45707   0.45820   0.46084
 Alpha virt. eigenvalues --    0.46302   0.46438   0.46634   0.46668   0.47082
 Alpha virt. eigenvalues --    0.47121   0.47349   0.47415   0.47586   0.47723
 Alpha virt. eigenvalues --    0.47911   0.48230   0.48341   0.48418   0.48627
 Alpha virt. eigenvalues --    0.48745   0.48995   0.49260   0.49301   0.49686
 Alpha virt. eigenvalues --    0.49839   0.50086   0.50290   0.50405   0.50525
 Alpha virt. eigenvalues --    0.50799   0.51118   0.51291   0.51643   0.51857
 Alpha virt. eigenvalues --    0.51939   0.52205   0.52375   0.52891   0.52975
 Alpha virt. eigenvalues --    0.53006   0.53279   0.53515   0.53632   0.53765
 Alpha virt. eigenvalues --    0.54227   0.54313   0.54777   0.55166   0.55413
 Alpha virt. eigenvalues --    0.55620   0.55765   0.55978   0.56175   0.56293
 Alpha virt. eigenvalues --    0.56612   0.56840   0.57232   0.57286   0.57717
 Alpha virt. eigenvalues --    0.57907   0.57987   0.58182   0.58605   0.58988
 Alpha virt. eigenvalues --    0.59175   0.59506   0.59711   0.60268   0.60625
 Alpha virt. eigenvalues --    0.60780   0.60804   0.61327   0.61387   0.61930
 Alpha virt. eigenvalues --    0.62084   0.62273   0.62381   0.62829   0.63085
 Alpha virt. eigenvalues --    0.63343   0.63701   0.63966   0.64405   0.64581
 Alpha virt. eigenvalues --    0.65399   0.65422   0.65960   0.66013   0.66298
 Alpha virt. eigenvalues --    0.66725   0.67013   0.67198   0.67402   0.67913
 Alpha virt. eigenvalues --    0.68329   0.68482   0.68746   0.68814   0.69389
 Alpha virt. eigenvalues --    0.69549   0.69744   0.70223   0.70627   0.70760
 Alpha virt. eigenvalues --    0.71038   0.71664   0.71719   0.72025   0.72118
 Alpha virt. eigenvalues --    0.72901   0.73176   0.73549   0.73636   0.73937
 Alpha virt. eigenvalues --    0.74298   0.74946   0.75146   0.75495   0.75717
 Alpha virt. eigenvalues --    0.76044   0.76100   0.76273   0.76819   0.77258
 Alpha virt. eigenvalues --    0.77420   0.77677   0.78069   0.78239   0.78534
 Alpha virt. eigenvalues --    0.78806   0.79466   0.79833   0.79922   0.80310
 Alpha virt. eigenvalues --    0.80487   0.80814   0.81277   0.81702   0.82321
 Alpha virt. eigenvalues --    0.82732   0.83040   0.83364   0.83779   0.84004
 Alpha virt. eigenvalues --    0.84529   0.84881   0.85043   0.85316   0.85838
 Alpha virt. eigenvalues --    0.86352   0.86513   0.86974   0.87062   0.87627
 Alpha virt. eigenvalues --    0.87954   0.88173   0.88666   0.88862   0.89238
 Alpha virt. eigenvalues --    0.89310   0.90209   0.90477   0.90621   0.90880
 Alpha virt. eigenvalues --    0.91227   0.91504   0.91636   0.91810   0.92091
 Alpha virt. eigenvalues --    0.92321   0.92497   0.92775   0.93060   0.93598
 Alpha virt. eigenvalues --    0.93789   0.94323   0.94414   0.94741   0.94884
 Alpha virt. eigenvalues --    0.95272   0.95383   0.95892   0.96396   0.96841
 Alpha virt. eigenvalues --    0.97014   0.97140   0.97534   0.97617   0.98145
 Alpha virt. eigenvalues --    0.98326   0.98632   0.99054   0.99301   0.99496
 Alpha virt. eigenvalues --    0.99543   0.99862   1.00201   1.00453   1.00832
 Alpha virt. eigenvalues --    1.00992   1.01232   1.01310   1.01778   1.02144
 Alpha virt. eigenvalues --    1.02463   1.02831   1.03131   1.03541   1.04015
 Alpha virt. eigenvalues --    1.04247   1.04569   1.04816   1.05141   1.05622
 Alpha virt. eigenvalues --    1.05885   1.06264   1.06516   1.06595   1.07055
 Alpha virt. eigenvalues --    1.07095   1.07344   1.07766   1.08091   1.08310
 Alpha virt. eigenvalues --    1.08540   1.08891   1.09043   1.09645   1.10183
 Alpha virt. eigenvalues --    1.10318   1.10806   1.11241   1.11450   1.12252
 Alpha virt. eigenvalues --    1.12607   1.12949   1.13132   1.13901   1.14402
 Alpha virt. eigenvalues --    1.14511   1.14772   1.15149   1.15552   1.15621
 Alpha virt. eigenvalues --    1.15959   1.16328   1.16581   1.17098   1.17245
 Alpha virt. eigenvalues --    1.17845   1.18174   1.18430   1.18826   1.19057
 Alpha virt. eigenvalues --    1.19541   1.19675   1.20160   1.20367   1.20865
 Alpha virt. eigenvalues --    1.21269   1.21726   1.21976   1.22549   1.22754
 Alpha virt. eigenvalues --    1.23118   1.23191   1.23508   1.23821   1.24097
 Alpha virt. eigenvalues --    1.24359   1.24551   1.25059   1.25491   1.25701
 Alpha virt. eigenvalues --    1.26196   1.26385   1.26962   1.27616   1.27632
 Alpha virt. eigenvalues --    1.28224   1.28647   1.28906   1.29467   1.29978
 Alpha virt. eigenvalues --    1.30187   1.30717   1.31121   1.31878   1.32098
 Alpha virt. eigenvalues --    1.32662   1.32868   1.32951   1.33596   1.33705
 Alpha virt. eigenvalues --    1.34212   1.35184   1.35433   1.35745   1.36160
 Alpha virt. eigenvalues --    1.36499   1.36842   1.37226   1.37571   1.37980
 Alpha virt. eigenvalues --    1.38333   1.38560   1.38871   1.39601   1.40028
 Alpha virt. eigenvalues --    1.40169   1.40529   1.41661   1.41766   1.42262
 Alpha virt. eigenvalues --    1.42959   1.43564   1.43776   1.44361   1.44628
 Alpha virt. eigenvalues --    1.44923   1.45418   1.46039   1.46184   1.46959
 Alpha virt. eigenvalues --    1.47200   1.47230   1.47759   1.48202   1.48449
 Alpha virt. eigenvalues --    1.48764   1.49128   1.49541   1.49876   1.50357
 Alpha virt. eigenvalues --    1.50401   1.50543   1.50906   1.51108   1.51236
 Alpha virt. eigenvalues --    1.51407   1.51495   1.52117   1.52471   1.52924
 Alpha virt. eigenvalues --    1.53241   1.53372   1.53632   1.54018   1.54227
 Alpha virt. eigenvalues --    1.54348   1.54639   1.54950   1.55124   1.55201
 Alpha virt. eigenvalues --    1.55518   1.55695   1.55916   1.56229   1.56623
 Alpha virt. eigenvalues --    1.57041   1.57192   1.57619   1.57652   1.57768
 Alpha virt. eigenvalues --    1.58335   1.58664   1.59035   1.59219   1.59361
 Alpha virt. eigenvalues --    1.59735   1.60211   1.60337   1.60440   1.60819
 Alpha virt. eigenvalues --    1.61314   1.61499   1.61703   1.62507   1.62625
 Alpha virt. eigenvalues --    1.62829   1.63154   1.63294   1.63410   1.63884
 Alpha virt. eigenvalues --    1.64083   1.64572   1.64660   1.64957   1.65332
 Alpha virt. eigenvalues --    1.65602   1.65747   1.66123   1.66750   1.66867
 Alpha virt. eigenvalues --    1.67113   1.67357   1.67530   1.67818   1.68040
 Alpha virt. eigenvalues --    1.68402   1.68775   1.69098   1.69509   1.69909
 Alpha virt. eigenvalues --    1.69988   1.70068   1.70467   1.70820   1.70979
 Alpha virt. eigenvalues --    1.71323   1.71634   1.71985   1.72284   1.72916
 Alpha virt. eigenvalues --    1.73105   1.73507   1.73724   1.73903   1.74572
 Alpha virt. eigenvalues --    1.74827   1.74920   1.75639   1.76242   1.76284
 Alpha virt. eigenvalues --    1.77487   1.77655   1.78386   1.78745   1.78955
 Alpha virt. eigenvalues --    1.79085   1.79421   1.79535   1.80169   1.80936
 Alpha virt. eigenvalues --    1.81296   1.81618   1.81806   1.82257   1.82817
 Alpha virt. eigenvalues --    1.82912   1.83090   1.83671   1.83969   1.84385
 Alpha virt. eigenvalues --    1.84807   1.85086   1.85756   1.85884   1.86593
 Alpha virt. eigenvalues --    1.87243   1.87634   1.88013   1.88787   1.89136
 Alpha virt. eigenvalues --    1.89292   1.89986   1.90471   1.91003   1.91345
 Alpha virt. eigenvalues --    1.91574   1.91796   1.92127   1.93011   1.93666
 Alpha virt. eigenvalues --    1.94364   1.94561   1.94785   1.95177   1.95832
 Alpha virt. eigenvalues --    1.95982   1.96285   1.96547   1.96817   1.97363
 Alpha virt. eigenvalues --    1.97444   1.97725   1.98230   1.98750   1.99280
 Alpha virt. eigenvalues --    1.99524   1.99925   2.00142   2.00773   2.01138
 Alpha virt. eigenvalues --    2.01513   2.01709   2.01894   2.02160   2.02712
 Alpha virt. eigenvalues --    2.03063   2.03328   2.04127   2.04338   2.04635
 Alpha virt. eigenvalues --    2.04976   2.05398   2.05588   2.05649   2.06101
 Alpha virt. eigenvalues --    2.06661   2.06947   2.07136   2.07567   2.07797
 Alpha virt. eigenvalues --    2.08346   2.08542   2.09008   2.09775   2.10307
 Alpha virt. eigenvalues --    2.10544   2.10882   2.11314   2.11729   2.11792
 Alpha virt. eigenvalues --    2.12094   2.12521   2.13258   2.13430   2.13808
 Alpha virt. eigenvalues --    2.14064   2.14266   2.14577   2.15570   2.15781
 Alpha virt. eigenvalues --    2.16022   2.16520   2.16798   2.17165   2.17532
 Alpha virt. eigenvalues --    2.17953   2.18209   2.18942   2.18983   2.19247
 Alpha virt. eigenvalues --    2.19988   2.20394   2.20729   2.21286   2.21713
 Alpha virt. eigenvalues --    2.22609   2.22863   2.23408   2.24005   2.24251
 Alpha virt. eigenvalues --    2.24337   2.24814   2.25567   2.25849   2.26348
 Alpha virt. eigenvalues --    2.27320   2.27853   2.28467   2.28718   2.29511
 Alpha virt. eigenvalues --    2.29788   2.30041   2.30384   2.30544   2.30660
 Alpha virt. eigenvalues --    2.31018   2.31341   2.31621   2.32068   2.32133
 Alpha virt. eigenvalues --    2.32555   2.33000   2.33301   2.33586   2.33833
 Alpha virt. eigenvalues --    2.34096   2.34165   2.34816   2.35007   2.35316
 Alpha virt. eigenvalues --    2.36074   2.36341   2.37284   2.37650   2.37833
 Alpha virt. eigenvalues --    2.38284   2.38694   2.39257   2.39604   2.39887
 Alpha virt. eigenvalues --    2.40724   2.41505   2.41789   2.42238   2.42286
 Alpha virt. eigenvalues --    2.42718   2.43026   2.43495   2.44306   2.44511
 Alpha virt. eigenvalues --    2.45533   2.45641   2.46206   2.46452   2.46962
 Alpha virt. eigenvalues --    2.47505   2.48129   2.48759   2.49127   2.49236
 Alpha virt. eigenvalues --    2.49507   2.49991   2.50248   2.50874   2.51160
 Alpha virt. eigenvalues --    2.51256   2.51289   2.51644   2.51896   2.52040
 Alpha virt. eigenvalues --    2.52700   2.53393   2.53422   2.53748   2.53985
 Alpha virt. eigenvalues --    2.54145   2.54600   2.54983   2.55213   2.55310
 Alpha virt. eigenvalues --    2.55912   2.56167   2.56383   2.56967   2.56990
 Alpha virt. eigenvalues --    2.57357   2.57821   2.58117   2.58478   2.58987
 Alpha virt. eigenvalues --    2.59418   2.59663   2.59801   2.60378   2.60509
 Alpha virt. eigenvalues --    2.60810   2.61094   2.61454   2.61799   2.62326
 Alpha virt. eigenvalues --    2.62675   2.62990   2.63036   2.63235   2.63484
 Alpha virt. eigenvalues --    2.63724   2.64332   2.64699   2.64951   2.65370
 Alpha virt. eigenvalues --    2.65446   2.65518   2.66011   2.66365   2.67058
 Alpha virt. eigenvalues --    2.67239   2.67904   2.68117   2.68622   2.69106
 Alpha virt. eigenvalues --    2.69271   2.69674   2.70152   2.70362   2.70914
 Alpha virt. eigenvalues --    2.71196   2.71592   2.72118   2.72135   2.72475
 Alpha virt. eigenvalues --    2.73244   2.73464   2.73714   2.74381   2.74841
 Alpha virt. eigenvalues --    2.75149   2.75476   2.75989   2.76242   2.76749
 Alpha virt. eigenvalues --    2.76846   2.77536   2.77806   2.78184   2.78778
 Alpha virt. eigenvalues --    2.78980   2.79545   2.79599   2.80065   2.80210
 Alpha virt. eigenvalues --    2.80511   2.81078   2.81419   2.81713   2.82390
 Alpha virt. eigenvalues --    2.82731   2.82796   2.82916   2.83321   2.83675
 Alpha virt. eigenvalues --    2.83948   2.84388   2.84881   2.84926   2.86145
 Alpha virt. eigenvalues --    2.86250   2.86717   2.87179   2.87667   2.87941
 Alpha virt. eigenvalues --    2.88822   2.89643   2.89931   2.90029   2.90647
 Alpha virt. eigenvalues --    2.90924   2.91107   2.91524   2.92098   2.92367
 Alpha virt. eigenvalues --    2.92599   2.92745   2.93382   2.93573   2.93877
 Alpha virt. eigenvalues --    2.94336   2.94944   2.95015   2.95723   2.96109
 Alpha virt. eigenvalues --    2.96322   2.96564   2.96945   2.97497   2.97768
 Alpha virt. eigenvalues --    2.98409   2.98896   2.99011   2.99740   2.99959
 Alpha virt. eigenvalues --    3.00146   3.00495   3.01043   3.01125   3.01268
 Alpha virt. eigenvalues --    3.01570   3.02084   3.02571   3.02912   3.03223
 Alpha virt. eigenvalues --    3.03825   3.04252   3.04355   3.04526   3.05008
 Alpha virt. eigenvalues --    3.05448   3.05577   3.05972   3.06300   3.06527
 Alpha virt. eigenvalues --    3.06682   3.07108   3.07540   3.07826   3.08016
 Alpha virt. eigenvalues --    3.08626   3.08777   3.09045   3.09063   3.09785
 Alpha virt. eigenvalues --    3.09945   3.10164   3.10275   3.10618   3.10626
 Alpha virt. eigenvalues --    3.10698   3.11210   3.11566   3.11751   3.11937
 Alpha virt. eigenvalues --    3.12044   3.12415   3.12806   3.12923   3.13202
 Alpha virt. eigenvalues --    3.13490   3.13593   3.13994   3.14388   3.14681
 Alpha virt. eigenvalues --    3.14960   3.15047   3.15305   3.15353   3.15941
 Alpha virt. eigenvalues --    3.16011   3.16474   3.16630   3.16719   3.17000
 Alpha virt. eigenvalues --    3.17178   3.17251   3.17919   3.18073   3.18283
 Alpha virt. eigenvalues --    3.18437   3.18812   3.19286   3.19462   3.20171
 Alpha virt. eigenvalues --    3.20223   3.20411   3.20536   3.20758   3.21045
 Alpha virt. eigenvalues --    3.21427   3.21886   3.21963   3.22177   3.22403
 Alpha virt. eigenvalues --    3.22685   3.23055   3.23293   3.23702   3.23907
 Alpha virt. eigenvalues --    3.24070   3.24484   3.24711   3.25077   3.25206
 Alpha virt. eigenvalues --    3.25492   3.25670   3.26271   3.26444   3.26595
 Alpha virt. eigenvalues --    3.26652   3.26971   3.27306   3.27517   3.27771
 Alpha virt. eigenvalues --    3.28094   3.28565   3.28657   3.28965   3.29027
 Alpha virt. eigenvalues --    3.29278   3.29711   3.29871   3.29988   3.30256
 Alpha virt. eigenvalues --    3.30534   3.30752   3.31061   3.31363   3.31695
 Alpha virt. eigenvalues --    3.32193   3.32486   3.32894   3.32956   3.33129
 Alpha virt. eigenvalues --    3.33315   3.33752   3.33994   3.34505   3.35045
 Alpha virt. eigenvalues --    3.35157   3.35408   3.35826   3.36078   3.36130
 Alpha virt. eigenvalues --    3.36369   3.36747   3.36928   3.37492   3.37694
 Alpha virt. eigenvalues --    3.37846   3.38494   3.38607   3.39078   3.39232
 Alpha virt. eigenvalues --    3.39427   3.39623   3.39852   3.40310   3.40638
 Alpha virt. eigenvalues --    3.40883   3.41016   3.41538   3.41888   3.42057
 Alpha virt. eigenvalues --    3.42270   3.42360   3.42997   3.43232   3.43579
 Alpha virt. eigenvalues --    3.43859   3.44176   3.44295   3.44982   3.45263
 Alpha virt. eigenvalues --    3.45799   3.46021   3.46365   3.46407   3.46829
 Alpha virt. eigenvalues --    3.47434   3.47483   3.47980   3.48481   3.48863
 Alpha virt. eigenvalues --    3.48937   3.49368   3.49823   3.50195   3.50654
 Alpha virt. eigenvalues --    3.50768   3.51141   3.51554   3.51805   3.52116
 Alpha virt. eigenvalues --    3.52586   3.52838   3.52892   3.53223   3.53682
 Alpha virt. eigenvalues --    3.53990   3.54661   3.55026   3.55233   3.55531
 Alpha virt. eigenvalues --    3.55763   3.56017   3.56260   3.56840   3.57513
 Alpha virt. eigenvalues --    3.57891   3.58216   3.58453   3.58877   3.59202
 Alpha virt. eigenvalues --    3.59521   3.60086   3.60409   3.61686   3.61825
 Alpha virt. eigenvalues --    3.62071   3.62647   3.62786   3.63410   3.64088
 Alpha virt. eigenvalues --    3.64629   3.65056   3.65233   3.65653   3.65929
 Alpha virt. eigenvalues --    3.66585   3.66761   3.66894   3.67424   3.67767
 Alpha virt. eigenvalues --    3.67965   3.68534   3.68757   3.69375   3.69916
 Alpha virt. eigenvalues --    3.70117   3.70318   3.70814   3.71155   3.71573
 Alpha virt. eigenvalues --    3.71874   3.72123   3.72523   3.72606   3.73329
 Alpha virt. eigenvalues --    3.73396   3.73784   3.74155   3.74860   3.74967
 Alpha virt. eigenvalues --    3.75353   3.76192   3.76530   3.77256   3.77796
 Alpha virt. eigenvalues --    3.78032   3.78282   3.78613   3.79565   3.80308
 Alpha virt. eigenvalues --    3.80577   3.80835   3.81221   3.81959   3.82284
 Alpha virt. eigenvalues --    3.82512   3.83441   3.83610   3.83977   3.84417
 Alpha virt. eigenvalues --    3.84889   3.85233   3.86557   3.86701   3.87498
 Alpha virt. eigenvalues --    3.88115   3.88720   3.88958   3.89438   3.89628
 Alpha virt. eigenvalues --    3.90294   3.90900   3.91104   3.91330   3.91536
 Alpha virt. eigenvalues --    3.92159   3.92691   3.93184   3.93512   3.94100
 Alpha virt. eigenvalues --    3.94629   3.95271   3.95630   3.96692   3.97948
 Alpha virt. eigenvalues --    3.98264   3.99726   3.99834   4.00884   4.02021
 Alpha virt. eigenvalues --    4.02572   4.03075   4.03263   4.03740   4.04000
 Alpha virt. eigenvalues --    4.04793   4.05516   4.05941   4.06697   4.07014
 Alpha virt. eigenvalues --    4.07489   4.08278   4.08973   4.09073   4.10193
 Alpha virt. eigenvalues --    4.10487   4.10741   4.11331   4.13108   4.13488
 Alpha virt. eigenvalues --    4.13845   4.14652   4.15157   4.15449   4.15752
 Alpha virt. eigenvalues --    4.16356   4.17268   4.18146   4.18369   4.19003
 Alpha virt. eigenvalues --    4.19187   4.19612   4.20130   4.20285   4.20547
 Alpha virt. eigenvalues --    4.21280   4.21629   4.22061   4.22880   4.23146
 Alpha virt. eigenvalues --    4.23292   4.24234   4.24497   4.25267   4.25428
 Alpha virt. eigenvalues --    4.25528   4.26372   4.26556   4.27175   4.27483
 Alpha virt. eigenvalues --    4.28347   4.28571   4.28985   4.29263   4.30288
 Alpha virt. eigenvalues --    4.30762   4.31010   4.31665   4.32121   4.32722
 Alpha virt. eigenvalues --    4.33328   4.33715   4.34128   4.34174   4.34653
 Alpha virt. eigenvalues --    4.35452   4.35976   4.36270   4.36768   4.37291
 Alpha virt. eigenvalues --    4.37609   4.38042   4.38647   4.39542   4.39919
 Alpha virt. eigenvalues --    4.40007   4.40184   4.40623   4.41190   4.41649
 Alpha virt. eigenvalues --    4.42034   4.42168   4.42797   4.43124   4.43713
 Alpha virt. eigenvalues --    4.44248   4.44681   4.44978   4.45356   4.45916
 Alpha virt. eigenvalues --    4.46964   4.48877   4.49114   4.49650   4.50008
 Alpha virt. eigenvalues --    4.51810   4.52200   4.53500   4.54704   4.55548
 Alpha virt. eigenvalues --    4.55861   4.56856   4.57756   4.59010   4.60222
 Alpha virt. eigenvalues --    4.61568   4.61761   4.62467   4.63109   4.64071
 Alpha virt. eigenvalues --    4.64420   4.65315   4.65935   4.66336   4.67069
 Alpha virt. eigenvalues --    4.67848   4.68517   4.68790   4.69702   4.70631
 Alpha virt. eigenvalues --    4.70881   4.71657   4.72183   4.72441   4.73522
 Alpha virt. eigenvalues --    4.73927   4.74289   4.74941   4.75661   4.76433
 Alpha virt. eigenvalues --    4.77407   4.77884   4.78577   4.79341   4.79811
 Alpha virt. eigenvalues --    4.80656   4.81019   4.81755   4.82247   4.82668
 Alpha virt. eigenvalues --    4.83087   4.83624   4.84502   4.85428   4.85926
 Alpha virt. eigenvalues --    4.86432   4.88710   4.88806   4.89685   4.90140
 Alpha virt. eigenvalues --    4.90950   4.92009   4.92247   4.94410   4.94725
 Alpha virt. eigenvalues --    4.94954   4.95284   4.95700   4.96164   4.96914
 Alpha virt. eigenvalues --    4.97346   4.97802   4.98033   4.98652   4.99693
 Alpha virt. eigenvalues --    5.00289   5.02107   5.02527   5.03269   5.04214
 Alpha virt. eigenvalues --    5.04754   5.04878   5.05341   5.06146   5.06928
 Alpha virt. eigenvalues --    5.07656   5.08536   5.09075   5.09509   5.10806
 Alpha virt. eigenvalues --    5.11692   5.12400   5.13176   5.13613   5.14671
 Alpha virt. eigenvalues --    5.15025   5.17141   5.18376   5.19427   5.20682
 Alpha virt. eigenvalues --    5.22015   5.22656   5.23363   5.24120   5.24783
 Alpha virt. eigenvalues --    5.26197   5.27150   5.28227   5.29917   5.31156
 Alpha virt. eigenvalues --    5.31720   5.34353   5.35128   5.35502   5.37151
 Alpha virt. eigenvalues --    5.37735   5.38462   5.39296   5.39639   5.40649
 Alpha virt. eigenvalues --    5.41011   5.41892   5.43208   5.44248   5.45082
 Alpha virt. eigenvalues --    5.45279   5.45979   5.46790   5.47451   5.48612
 Alpha virt. eigenvalues --    5.50207   5.50779   5.51503   5.51954   5.53360
 Alpha virt. eigenvalues --    5.54625   5.55150   5.56493   5.57071   5.57888
 Alpha virt. eigenvalues --    5.58704   5.60364   5.61290   5.62146   5.62804
 Alpha virt. eigenvalues --    5.65169   5.66016   5.67261   5.69771   5.71424
 Alpha virt. eigenvalues --    5.73034   5.73800   5.75062   5.77172   5.79694
 Alpha virt. eigenvalues --    5.81189   5.82700   5.87018   5.93401   5.94541
 Alpha virt. eigenvalues --    5.97397   5.98724   6.00728   6.00933   6.03182
 Alpha virt. eigenvalues --    6.04193   6.07029   6.08147   6.08514   6.10239
 Alpha virt. eigenvalues --    6.13958   6.15108   6.18517   6.19521   6.20382
 Alpha virt. eigenvalues --    6.22460   6.26376   6.28714   6.32517   6.37246
 Alpha virt. eigenvalues --   22.09697  22.11822  22.26436  22.30272  22.30848
 Alpha virt. eigenvalues --   22.30955  22.35162  22.35460  22.35992  22.39551
 Alpha virt. eigenvalues --   22.42672  22.43354  22.77324  22.79522  22.83508
 Alpha virt. eigenvalues --   22.88146  22.90871  22.94740  22.97103  23.01608
 Alpha virt. eigenvalues --   23.04053  23.05138  23.08063  23.09024  23.12237
 Alpha virt. eigenvalues --   23.21032  23.25762  23.27617  23.29718  23.30184
 Alpha virt. eigenvalues --   23.37868  23.44072  23.46432  23.51929  23.59142
 Alpha virt. eigenvalues --   23.67376  23.71984  23.82186  32.44663  32.45012
 Alpha virt. eigenvalues --   32.77406  32.81600  33.00208  33.01663  33.05850
 Alpha virt. eigenvalues --   33.33624
          Condensed to atoms (all electrons):
 Mulliken charges:
               1
     1  Fe  -0.237445
     2  N   -0.023812
     3  N   -0.066590
     4  N   -0.032029
     5  N   -0.009980
     6  C    0.112678
     7  C    0.033031
     8  C   -0.015236
     9  C    0.198489
    10  C    0.249993
    11  C   -0.131698
    12  C   -0.083110
    13  C    0.275641
    14  C    0.088651
    15  C    0.056323
    16  C   -0.090131
    17  C    0.295406
    18  C    0.147574
    19  C    0.009623
    20  C   -0.051867
    21  C    0.189604
    22  C   -0.423317
    23  H    0.132278
    24  C   -0.437813
    25  H    0.127795
    26  C   -0.425204
    27  H    0.131951
    28  C   -0.453747
    29  H    0.131738
    30  C   -0.440520
    31  H    0.132980
    32  H    0.129456
    33  H    0.137316
    34  C   -0.444933
    35  H    0.132648
    36  H    0.128337
    37  H    0.138753
    38  C   -0.398089
    39  H    0.155075
    40  H    0.139811
    41  H    0.118682
    42  C   -0.259098
    43  H    0.130748
    44  C   -0.292729
    45  H    0.132152
    46  H    0.132577
    47  C   -0.399513
    48  H    0.126231
    49  H    0.127845
    50  H    0.145819
    51  C   -0.243478
    52  H    0.144041
    53  C   -0.287343
    54  H    0.150923
    55  H    0.129712
    56  C   -0.437773
    57  H    0.149682
    58  H    0.132896
    59  H    0.125978
    60  C   -0.435922
    61  H    0.125946
    62  H    0.133175
    63  H    0.150123
    64  C   -0.396834
    65  H    0.133739
    66  H    0.127900
    67  H    0.146453
    68  N   -0.220199
    69  H    0.224220
    70  C    0.168263
    71  C    0.033590
    72  H    0.170056
    73  N   -0.050974
    74  C   -0.174961
    75  H    0.160124
    76  C   -0.397191
    77  H    0.130344
    78  H    0.132814
    79  H    0.145209
    80  N   -0.220305
    81  H    0.225783
    82  C    0.166672
    83  C    0.025877
    84  H    0.168218
    85  N   -0.001013
    86  C   -0.169732
    87  H    0.161643
 Sum of Mulliken charges =  -0.00000
 Mulliken charges with hydrogens summed into heavy atoms:
               1
     1  Fe  -0.237445
     2  N   -0.023812
     3  N   -0.066590
     4  N   -0.032029
     5  N   -0.009980
     6  C    0.112678
     7  C    0.033031
     8  C   -0.015236
     9  C    0.198489
    10  C    0.249993
    11  C   -0.131698
    12  C   -0.083110
    13  C    0.275641
    14  C    0.088651
    15  C    0.056323
    16  C   -0.090131
    17  C    0.295406
    18  C    0.147574
    19  C    0.009623
    20  C   -0.051867
    21  C    0.189604
    22  C   -0.291039
    24  C   -0.310017
    26  C   -0.293253
    28  C   -0.322009
    30  C   -0.040768
    34  C   -0.045195
    38  C    0.015478
    42  C   -0.128350
    44  C   -0.028000
    47  C    0.000381
    51  C   -0.099436
    53  C   -0.006708
    56  C   -0.029217
    60  C   -0.026678
    64  C    0.011258
    68  N    0.004021
    70  C    0.168263
    71  C    0.203646
    73  N   -0.050974
    74  C   -0.014838
    76  C    0.011176
    80  N    0.005478
    82  C    0.166672
    83  C    0.194095
    85  N   -0.001013
    86  C   -0.008089
 Electronic spatial extent (au):  <R**2>=          22715.7410
 Charge=             -0.0000 electrons
 Dipole moment (field-independent basis, Debye):
    X=              0.6438    Y=              1.5230    Z=              0.4232  Tot=              1.7068
 Quadrupole moment (field-independent basis, Debye-Ang):
   XX=           -271.2072   YY=           -281.6089   ZZ=           -227.8171
   XY=             -4.9139   XZ=            -11.2028   YZ=              2.7356
 Traceless Quadrupole moment (field-independent basis, Debye-Ang):
   XX=            -10.9961   YY=            -21.3978   ZZ=             32.3939
   XY=             -4.9139   XZ=            -11.2028   YZ=              2.7356
 Octapole moment (field-independent basis, Debye-Ang**2):
  XXX=              6.3714  YYY=            106.9102  ZZZ=              2.7835  XYY=             -6.0035
  XXY=              9.8253  XXZ=             -3.7334  XZZ=             14.8656  YZZ=              6.1991
  YYZ=              1.5841  XYZ=             -7.6861
 Hexadecapole moment (field-independent basis, Debye-Ang**3):
 XXXX=         -12579.5323 YYYY=         -12075.6804 ZZZZ=          -5341.2815 XXXY=           -210.1536
 XXXZ=             -4.9603 YYYX=            -44.0700 YYYZ=             -5.6306 ZZZX=           -312.2201
 ZZZY=            114.7708 XXYY=          -4099.2061 XXZZ=          -3134.7204 YYZZ=          -3135.8686
 XXYZ=            -20.4794 YYXZ=            -83.5112 ZZXY=            -11.6061
 N-N= 7.093717508712D+03 E-N=-2.163821544414D+04  KE= 3.159158212172D+03
  Exact polarizability:     763.777      20.264     716.129      -1.797      -4.746     416.021
 Approx polarizability:    1442.371      33.532    1344.608      -3.616     -29.688     660.962

 ----------------------------------------------------------------------

 Electric dipole moment (input orientation):
 (Debye = 10**-18 statcoulomb cm , SI units = C m)
                  (au)            (Debye)         (10**-30 SI)
   Tot        0.671505D+00      0.170680D+01      0.569326D+01
   x         -0.437962D+00     -0.111319D+01     -0.371319D+01
   y          0.488846D+00      0.124252D+01      0.414461D+01
   z          0.141911D+00      0.360702D+00      0.120317D+01

 Dipole polarizability, Alpha (input orientation).
 (esu units = cm**3 , SI units = C**2 m**2 J**-1)
 Alpha(0;0):
               (au)            (10**-24 esu)      (10**-40 SI)
   iso        0.631976D+03      0.936492D+02      0.104199D+03
   aniso      0.328548D+03      0.486858D+02      0.541703D+02
   xx         0.635989D+03      0.942439D+02      0.104860D+03
   yx        -0.402009D+02     -0.595716D+01     -0.662824D+01
   yy         0.728347D+03      0.107930D+03      0.120088D+03
   zx         0.121384D+03      0.179873D+02      0.200135D+02
   zy         0.997037D+02      0.147746D+02      0.164389D+02
   zz         0.531591D+03      0.787737D+02      0.876476D+02

 First dipole hyperpolarizability, Beta (input orientation).
 ||, _|_  parallel and perpendicular components, (z) with respect to z axis,
 vector components x,y,z.  Values do not include the 1/n! factor of 1/2.
 (esu units = statvolt**-1 cm**4 , SI units = C**3 m**3 J**-2)
 Beta(0;0,0):
               (au)            (10**-30 esu)      (10**-50 SI)
   || (z)    -0.436476D+03     -0.377081D+01     -0.139950D+01
   _|_(z)    -0.145492D+03     -0.125694D+01     -0.466500D+00
   x          0.183652D+04      0.158661D+02      0.588853D+01
   y         -0.884613D+04     -0.764237D+02     -0.283639D+02
   z         -0.218238D+04     -0.188541D+02     -0.699750D+01
   ||         0.185892D+04      0.160596D+02      0.596037D+01
   xxx        0.353839D+03      0.305689D+01      0.113454D+01
   xxy        0.971515D+01      0.839313D-01      0.311503D-01
   yxy        0.135338D+03      0.116921D+01      0.433941D+00
   yyy       -0.245860D+04     -0.212404D+02     -0.788316D+01
   xxz        0.202346D+03      0.174811D+01      0.648794D+00
   yxz        0.271664D+02      0.234697D+00      0.871054D-01
   yyz       -0.951046D+03     -0.821629D+01     -0.304940D+01
   zxz        0.122995D+03      0.106258D+01      0.394367D+00
   zyz       -0.499825D+03     -0.431810D+01     -0.160262D+01
   zzz        0.212400D+02      0.183497D+00      0.681031D-01

 ----------------------------------------------------------------------

 Dipole orientation:
    26         48.73911169        -11.64047851        -37.19686715
     7         46.04623657        -10.88966851        -34.58010180
     7         51.45899459        -10.75448123        -34.61629791
     7         51.40672834        -12.25389109        -39.82572568
     7         46.16417618        -12.53309440        -39.76470283
     6         43.49164740        -10.98220515        -35.03589710
     6         42.18633371        -10.64219997        -32.66190701
     6         43.91819103        -10.37704225        -30.86077822
     6         46.38449370        -10.50167743        -32.04306720
     6         50.97186163        -10.16809031        -32.09446167
     6         53.28959235         -9.37501057        -30.89988040
     6         55.31620150         -9.53748769        -32.94797124
     6         53.99838112        -10.42495839        -35.16609652
     6         53.97670060        -11.99584844        -39.44639137
     6         55.30826560        -13.16986556        -41.50159454
     6         53.61159917        -13.78521402        -43.24058260
     6         51.14908153        -13.53894462        -42.07124880
     6         46.57408117        -13.63655495        -42.09463034
     6         44.14844126        -14.06120257        -43.30552720
     6         42.38374504        -13.28951120        -41.63036486
     6         43.61651651        -12.29344304        -39.43737883
     6         42.39685505        -11.30379063        -37.37006028
     1         40.42925316        -10.73609055        -37.59554851
     6         48.68472610        -10.29046229        -30.88527539
     1         48.70045768        -10.21363183        -28.82712530
     6         55.12566016        -10.84761761        -37.44525977
     1         57.07514445        -10.22634909        -37.68222110
     6         48.88372735        -14.18028752        -43.12832861
     1         48.91610332        -15.19590552        -44.92050613
     6         39.29453471        -10.66788829        -32.32066460
     1         38.96981705        -12.52039130        -33.25576327
     1         38.88642595         -9.13190849        -33.69269386
     1         38.01652151        -10.50869381        -30.66271479
     6         43.38087101         -9.97007336        -28.03311020
     1         44.50817161         -8.20846988        -27.84927883
     1         44.53167993        -11.58969778        -27.35456173
     1         41.64145838         -9.78913752        -26.87036427
     6         39.48008076        -13.21716831        -41.73747156
     1         37.67490113        -12.86140623        -40.72631584
     1         39.55975556        -15.23951800        -42.29700985
     1         39.55580514        -11.99617702        -43.44331470
     6         43.93616567        -15.39380104        -45.89956285
     1         44.36828820        -17.33586089        -46.37604272
     6         41.69953350        -14.54997849        -47.55376764
     1         40.93323318        -12.62450401        -47.39073087
     1         40.84297442        -15.86164284        -48.91892455
     6         54.16952085        -15.48785145        -45.54286489
     1         53.34186676        -14.13370300        -46.91711286
     1         52.75816959        -16.98518191        -45.12899676
     1         55.89469488        -16.34026943        -46.38158119
     6         58.22236988        -13.28363401        -41.73930424
     1         59.30890919        -14.46497803        -40.46145117
     6         59.11514640        -10.86448810        -43.10019920
     1         57.82878077         -9.82519493        -44.35798519
     1         61.04867986        -10.15348886        -42.82682224
     6         58.16850127         -8.92292905        -32.75730324
     1         59.92891893         -8.88688373        -33.89913589
     1         58.40772466        -10.28893068        -31.18167227
     1         57.81293712         -7.00008038        -31.99310457
     6         53.58679132         -8.56842886        -28.10866627
     1         54.65142522         -6.84309374        -28.65220261
     1         54.95001113        -10.12176680        -27.74106905
     1         52.47505421         -8.16297549        -26.37489271
     6         48.82545062         -2.87227860        -43.28630619
     1         50.78974866         -2.34881855        -43.81648980
     1         47.75777297         -1.12551557        -42.81772346
     1         47.91991997         -3.85287931        -44.90685891
     7         49.77484518         -3.81816040        -38.72639239
     1         50.40105556         -2.07638307        -38.34310608
     6         48.88028484         -4.58481809        -41.04770984
     6         49.67072569         -5.72478540        -37.12184991
     1         50.23288370         -5.62563975        -35.14412147
     7         48.78347701         -7.70794910        -38.33581444
     6         48.28178908         -7.05618107        -40.80171433
     1         47.54663284         -8.41515562        -42.14116933
     6         52.25000106        -21.25825931        -34.60204901
     1         51.85319980        -22.85432343        -35.90674269
     1         51.92102356        -21.89372343        -32.62820953
     1         54.24895762        -20.66312011        -34.84026615
     7         47.94220610        -19.31880824        -35.17516425
     1         47.00103994        -20.90950582        -34.78137024
     6         50.53942820        -19.10557736        -35.20418896
     6         46.92939554        -17.11791549        -35.74376343
     1         44.90621051        -16.75245410        -35.85055110
     7         48.77316054        -15.49499702        -36.14743777
     6         51.05233365        -16.68310632        -35.82838098
     1         52.82429554        -15.68922357        -36.07596216

 Electric dipole moment (dipole orientation):
 (Debye = 10**-18 statcoulomb cm , SI units = C m)
                  (au)            (Debye)         (10**-30 SI)
   Tot        0.671505D+00      0.170680D+01      0.569326D+01
   x          0.000000D+00      0.000000D+00      0.000000D+00
   y          0.000000D+00      0.000000D+00      0.000000D+00
   z          0.671505D+00      0.170680D+01      0.569326D+01

 Dipole polarizability, Alpha (dipole orientation).
 (esu units = cm**3 , SI units = C**2 m**2 J**-1)
 Alpha(0;0):
               (au)            (10**-24 esu)      (10**-40 SI)
   iso        0.631976D+03      0.936492D+02      0.104199D+03
   aniso      0.328548D+03      0.486858D+02      0.541703D+02
   xx         0.739033D+03      0.109513D+03      0.121850D+03
   yx         0.309064D+02      0.457986D+01      0.509578D+01
   yy         0.441230D+03      0.653836D+02      0.727490D+02
   zx         0.238611D+02      0.353584D+01      0.393416D+01
   zy         0.838588D+02      0.124266D+02      0.138264D+02
   zz         0.715664D+03      0.106051D+03      0.117997D+03

 First dipole hyperpolarizability, Beta (dipole orientation).
 ||, _|_  parallel and perpendicular components, (z) with respect to z axis,
 vector components x,y,z.  Values do not include the 1/n! factor of 1/2.
 (esu units = statvolt**-1 cm**4 , SI units = C**3 m**3 J**-2)
 Beta(0;0,0):
               (au)            (10**-30 esu)      (10**-50 SI)
   || (z)    -0.161977D+04     -0.139936D+02     -0.519357D+01
   _|_(z)    -0.539924D+03     -0.466452D+01     -0.173119D+01
   x         -0.369913D+04     -0.319576D+02     -0.118607D+02
   y         -0.266733D+04     -0.230437D+02     -0.855243D+01
   z         -0.809885D+04     -0.699678D+02     -0.259679D+02
   ||         0.185892D+04      0.160596D+02      0.596037D+01
   xxx       -0.240577D+03     -0.207840D+01     -0.771378D+00
   xxy       -0.252098D+03     -0.217793D+01     -0.808319D+00
   yxy       -0.640451D+01     -0.553300D-01     -0.205352D-01
   yyy       -0.178809D+03     -0.154477D+01     -0.573326D+00
   xxz       -0.102279D+04     -0.883608D+01     -0.327942D+01
   yxz       -0.292721D+03     -0.252888D+01     -0.938568D+00
   yyz       -0.158181D+03     -0.136656D+01     -0.507186D+00
   zxz       -0.986061D+03     -0.851880D+01     -0.316167D+01
   zyz       -0.458204D+03     -0.395852D+01     -0.146917D+01
   zzz       -0.151865D+04     -0.131200D+02     -0.486934D+01

 ----------------------------------------------------------------------
 Unable to Open any file for archive entry.
 1\1\GINC-BGN1038\SP\RAPFD\def2TZVP\C38H40Fe1N8\BECSLEIP\14-Nov-2024\0\
 \# polar def2tzvp apfd int=(grid=ultrafine)\\6vdq_II_S\\0,1\Fe,0,27.15
 8,-7.685,17.146\N,0,25.486,-7.012,16.22\N,0,27.385,-5.863,18.032\N,0,2
 8.854,-8.327,18.009\N,0,26.975,-9.474,16.314\C,0,24.747,-7.745,15.323\
 C,0,23.55,-7.,15.007\C,0,23.578,-5.868,15.704\C,0,24.807,-5.849,16.471
 \C,0,26.469,-4.818,17.92\C,0,27.017,-3.641,18.548\C,0,28.386,-4.058,19
 .081\C,0,28.515,-5.45,18.72\C,0,29.659,-7.571,18.839\C,0,30.582,-8.436
 ,19.521\C,0,30.472,-9.641,18.978\C,0,29.274,-9.628,18.164\C,0,27.691,-
 10.615,16.62\C,0,27.188,-11.711,15.811\C,0,26.164,-11.202,15.092\C,0,2
 6.037,-9.805,15.379\C,0,25.11,-8.967,14.808\H,0,24.63,-9.293,13.885\C,
 0,25.241,-4.863,17.313\H,0,24.552,-4.044,17.519\C,0,29.601,-6.22,19.01
 7\H,0,30.481,-5.722,19.424\C,0,28.728,-10.696,17.511\H,0,29.147,-11.68
 2,17.713\C,0,22.434,-7.476,14.057\H,0,22.261,-8.455,14.554\H,0,23.086,
 -7.632,13.171\H,0,21.456,-7.055,13.74\C,0,22.502,-4.769,15.678\H,0,23.
 191,-3.94,15.409\H,0,22.327,-4.751,16.775\H,0,21.541,-4.628,15.138\C,0
 ,25.219,-11.824,14.05\H,0,24.324,-11.703,13.403\H,0,25.02,-12.625,14.7
 94\H,0,26.087,-12.102,13.415\C,0,27.734,-13.151,15.961\H,0,27.644,-13.
 823,16.805\C,0,27.712,-14.001,14.679\H,0,27.792,-13.524,13.691\H,0,27.
 617,-15.095,14.736\C,0,31.105,-10.919,19.569\H,0,31.576,-11.217,18.608
[...]
                                                    209(r),188(r),264(r),211(r)
   105. BD (   2) C  83 - N  85          1.88313    -0.31270  1706(v),1575(v),1460(v)
                                                    169(r),184(r),183(r),199(r)
                                                    170(r),175(r)
   106. BD (   1) N  85 - C  86          1.97268    -0.77568  167(r),171(r),1701(v)
                                                    1707(v),168(r),183(r)
                                                    1704(v),1705(g),1703(v)
                                                    170(r),1519(v),169(r),185(r)
                                                    1708(g),184(r),1365(r)
                                                    1362(r),261(r),288(r),211(r)
                                                    290(r)
   107. BD (   1) C  86 - H  87          1.98011    -0.53031  1708(v),1703(v),1491(v)
                                                    1705(g),1550(v),168(r)
                                                    171(r),1710(g),167(r),188(r)
                                                    175(r),177(r),1635(r),183(r)
                                                    287(r),182(r),209(r)
   157. CR (   1) C  76                  1.99942   -10.06722  1705(v),1703(v),1491(v)
   158. CR (   1) N  80                  1.99934   -14.20633  1519(v),1493(v),1494(v)
                                                    1701(v)
   159. CR (   1) C  82                  1.99907   -10.07885  1705(g),1576(v),1711(v)
                                                    1421(v)
   160. CR (   1) C  83                  1.99931   -10.11317  1550(v),1702(v),1464(v)
                                                    1710(v),167(r),168(r),171(r)
   161. CR (   1) N  85                  1.99939   -14.14267  171(r),167(r),168(r),1517(v)
                                                    1574(v),1707(v),169(r)
                                                    170(r),185(r),191(r)
   162. CR (   1) C  86                  1.99889   -10.05064  1491(v),1701(v),1705(g)
                                                    1549(v),1494(v),167(r)
                                                    168(r),171(r)
   180. LP (   1) N  80                  1.57627    -0.27893  1709(v),1706(v),1520(v)
                                                    1518(v),1486(v),1492(v)
   181. LP (   1) N  85                  1.65356    -0.33673  167(r),171(r),168(r),1704(v)
                                                    1705(v),169(r),1517(v)
                                                    1707(v),1711(v),170(r)
                                                    1574(v),1708(g),1710(g)
                                                    175(r),187(r),1551(g),196(r)
                                                    166(r),264(r),235(r),212(r)
                                                    290(r),238(r),197(r),1365(r)
                                                    1613(r),1615(r),1611(r)
                                                    1605(r),1610(r),1607(r)
                                                    1612(r),1606(r),261(r)
                                                    1608(r),192(r),1614(r)
                                                    287(r),243(r),217(r),209(r)
                                                    263(r),269(r)
  1419. RY*(   1) C  76                  0.00116     1.12504   
  1420. RY*(   2) C  76                  0.00082     1.96110   
  1421. RY*(   3) C  76                  0.00053     1.33168   
  1422. RY*(   4) C  76                  0.00010     1.25334   
  1423. RY*(   5) C  76                  0.00009     2.06602   
  1424. RY*(   6) C  76                  0.00007     1.42130   
  1425. RY*(   7) C  76                  0.00003     2.04649   
  1426. RY*(   8) C  76                  0.00001     1.84913   
  1427. RY*(   9) C  76                  0.00001     1.59194   
  1428. RY*(  10) C  76                  0.00001     1.55619   
  1429. RY*(  11) C  76                  0.00000     3.25039   
  1430. RY*(  12) C  76                  0.00000     3.22519   
  1431. RY*(  13) C  76                  0.00000     2.52790   
  1432. RY*(  14) C  76                  0.00000     2.26751   
  1433. RY*(  15) C  76                  0.00000     2.34415   
  1434. RY*(  16) C  76                  0.00000     2.65443   
  1435. RY*(  17) C  76                  0.00000     2.66003   
  1436. RY*(  18) C  76                  0.00000    21.53858   
  1437. RY*(  19) C  76                  0.00001     2.66911   
  1438. RY*(  20) C  76                  0.00000     3.59252   
  1439. RY*(  21) C  76                  0.00001     3.31454   
  1440. RY*(  22) C  76                  0.00000     3.00800   
  1441. RY*(  23) C  76                  0.00000     3.45398   
  1442. RY*(  24) C  76                  0.00000     3.57847   
  1443. RY*(  25) C  76                  0.00000     3.23177   
  1444. RY*(  26) C  76                  0.00000     3.43824   
  1445. RY*(   1) H  77                  0.00076     1.01007   
  1446. RY*(   2) H  77                  0.00014     1.67793   
  1447. RY*(   3) H  77                  0.00009     1.92367   
  1448. RY*(   4) H  77                  0.00005     2.00953   
  1449. RY*(   5) H  77                  0.00000     2.86178   
  1450. RY*(   1) H  78                  0.00079     1.00103   
  1451. RY*(   2) H  78                  0.00014     1.67906   
  1452. RY*(   3) H  78                  0.00008     1.94754   
  1453. RY*(   4) H  78                  0.00005     1.98607   
  1454. RY*(   5) H  78                  0.00000     2.86088   
  1455. RY*(   1) H  79                  0.00024     1.28984   
  1456. RY*(   2) H  79                  0.00011     1.80572   
  1457. RY*(   3) H  79                  0.00007     2.02776   
  1458. RY*(   4) H  79                  0.00002     1.57860   
  1459. RY*(   5) H  79                  0.00001     2.86172   
  1460. RY*(   1) N  80                  0.00292     0.65467   
  1461. RY*(   2) N  80                  0.00239     1.82005   
  1462. RY*(   3) N  80                  0.00120     2.04573   
  1463. RY*(   4) N  80                  0.00083     2.24518   
  1464. RY*(   5) N  80                  0.00050     1.18000   
  1465. RY*(   6) N  80                  0.00027     2.19833   
  1466. RY*(   7) N  80                  0.00021     1.78951   
  1467. RY*(   8) N  80                  0.00007     2.34201   
  1468. RY*(   9) N  80                  0.00006     2.19725   
  1469. RY*(  10) N  80                  0.00006     3.92435   
  1470. RY*(  11) N  80                  0.00004     2.94942   
  1471. RY*(  12) N  80                  0.00000     2.16847   
  1472. RY*(  13) N  80                  0.00001     4.25885   
  1473. RY*(  14) N  80                  0.00001     2.56310   
  1474. RY*(  15) N  80                  0.00001     3.39124   
  1475. RY*(  16) N  80                  0.00001     3.67663   
  1476. RY*(  17) N  80                  0.00000     4.36757   
  1477. RY*(  18) N  80                  0.00000    30.66363   
  1478. RY*(  19) N  80                  0.00000     4.51422   
  1479. RY*(  20) N  80                  0.00000     4.70544   
  1480. RY*(  21) N  80                  0.00000     4.62678   
  1481. RY*(  22) N  80                  0.00000     4.43614   
  1482. RY*(  23) N  80                  0.00000     4.42765   
  1483. RY*(  24) N  80                  0.00000     4.43202   
  1484. RY*(  25) N  80                  0.00000     4.37250   
  1485. RY*(  26) N  80                  0.00000     4.49197   
  1486. RY*(   1) H  81                  0.00056     2.16409   
  1487. RY*(   2) H  81                  0.00040     1.79164   
  1488. RY*(   3) H  81                  0.00035     1.29627   
  1489. RY*(   4) H  81                  0.00020     2.67208   
  1490. RY*(   5) H  81                  0.00001     3.10460   
  1491. RY*(   1) C  82                  0.00427     1.68114   
  1492. RY*(   2) C  82                  0.00257     0.94120   
  1493. RY*(   3) C  82                  0.00194     1.56364   
  1494. RY*(   4) C  82                  0.00160     2.06219   
  1495. RY*(   5) C  82                  0.00134     1.77339   
  1496. RY*(   6) C  82                  0.00129     1.71612   
  1497. RY*(   7) C  82                  0.00037     2.92988   
  1498. RY*(   8) C  82                  0.00022     2.93952   
  1499. RY*(   9) C  82                  0.00015     2.38803   
  1500. RY*(  10) C  82                  0.00007     3.57329   
  1501. RY*(  11) C  82                  0.00003     2.84104   
  1502. RY*(  12) C  82                  0.00001     2.00686   
  1503. RY*(  13) C  82                  0.00002     1.49133   
  1504. RY*(  14) C  82                  0.00000    21.09380   
  1505. RY*(  15) C  82                  0.00001     2.82452   
  1506. RY*(  16) C  82                  0.00001     1.66514   
  1507. RY*(  17) C  82                  0.00000     1.19317   
  1508. RY*(  18) C  82                  0.00001     3.47927   
  1509. RY*(  19) C  82                  0.00000     1.97573   
  1510. RY*(  20) C  82                  0.00000     4.11373   
  1511. RY*(  21) C  82                  0.00000     3.45706   
  1512. RY*(  22) C  82                  0.00000     3.54182   
  1513. RY*(  23) C  82                  0.00000     3.56283   
  1514. RY*(  24) C  82                  0.00000     3.62395   
  1515. RY*(  25) C  82                  0.00000     3.52902   
  1516. RY*(  26) C  82                  0.00000     3.60504   
  1517. RY*(   1) C  83                  0.00419     1.65100   
  1518. RY*(   2) C  83                  0.00315     0.59727   
  1519. RY*(   3) C  83                  0.00223     1.31228   
  1520. RY*(   4) C  83                  0.00144     2.55033   
  1521. RY*(   5) C  83                  0.00088     1.63962   
  1522. RY*(   6) C  83                  0.00043     1.67866   
  1523. RY*(   7) C  83                  0.00023     1.69376   
  1524. RY*(   8) C  83                  0.00006     2.15758   
  1525. RY*(   9) C  83                  0.00006     3.27864   
  1526. RY*(  10) C  83                  0.00003     2.66057   
  1527. RY*(  11) C  83                  0.00003     2.00748   
  1528. RY*(  12) C  83                  0.00003     2.49029   
  1529. RY*(  13) C  83                  0.00002     3.68903   
  1530. RY*(  14) C  83                  0.00002     2.78540   
  1531. RY*(  15) C  83                  0.00001     2.89067   
  1532. RY*(  16) C  83                  0.00000     3.31176   
  1533. RY*(  17) C  83                  0.00001     2.81547   
  1534. RY*(  18) C  83                  0.00000    21.10456   
  1535. RY*(  19) C  83                  0.00001     3.35950   
  1536. RY*(  20) C  83                  0.00001     2.57638   
  1537. RY*(  21) C  83                  0.00000     4.06374   
  1538. RY*(  22) C  83                  0.00000     3.55906   
  1539. RY*(  23) C  83                  0.00000     3.66492   
  1540. RY*(  24) C  83                  0.00000     3.74742   
  1541. RY*(  25) C  83                  0.00000     3.39677   
  1542. RY*(  26) C  83                  0.00000     3.63759   
  1543. RY*(   1) H  84                  0.00058     0.66364   
  1544. RY*(   2) H  84                  0.00028     2.43729   
  1545. RY*(   3) H  84                  0.00020     2.06351   
  1546. RY*(   4) H  84                  0.00011     2.35893   
  1547. RY*(   5) H  84                  0.00002     3.11325   
  1548. RY*(   1) N  85                  0.00851     0.81423   
  1549. RY*(   2) N  85                  0.00736     1.38389   
  1550. RY*(   3) N  85                  0.00667     1.29754   
  1551. RY*(   4) N  85                  0.00088     1.62052   
  1552. RY*(   5) N  85                  0.00063     2.03195   
  1553. RY*(   6) N  85                  0.00046     2.07985   
  1554. RY*(   7) N  85                  0.00033     3.28868   
  1555. RY*(   8) N  85                  0.00031     3.13060   
  1556. RY*(   9) N  85                  0.00015     3.60057   
  1557. RY*(  10) N  85                  0.00009     3.66596   
  1558. RY*(  11) N  85                  0.00009     2.65792   
  1559. RY*(  12) N  85                  0.00008     2.44041   
  1560. RY*(  13) N  85                  0.00004     3.07384   
  1561. RY*(  14) N  85                  0.00004     4.76212   
  1562. RY*(  15) N  85                  0.00003     3.68521   
  1563. RY*(  16) N  85                  0.00000    31.76060   
  1564. RY*(  17) N  85                  0.00001     4.26910   
  1565. RY*(  18) N  85                  0.00000     4.89067   
  1566. RY*(  19) N  85                  0.00001     4.21330   
  1567. RY*(  20) N  85                  0.00000     4.46938   
  1568. RY*(  21) N  85                  0.00001     4.63026   
  1569. RY*(  22) N  85                  0.00000     4.17427   
  1570. RY*(  23) N  85                  0.00000     4.64768   
  1571. RY*(  24) N  85                  0.00000     4.66641   
  1572. RY*(  25) N  85                  0.00000     4.56226   
  1573. RY*(  26) N  85                  0.00000     4.74502   
  1574. RY*(   1) C  86                  0.00400     1.53936   
  1575. RY*(   2) C  86                  0.00237     0.74540   
  1576. RY*(   3) C  86                  0.00174     1.82203   
  1577. RY*(   4) C  86                  0.00069     2.04788   
  1578. RY*(   5) C  86                  0.00062     1.46942   
  1579. RY*(   6) C  86                  0.00047     2.31220   
  1580. RY*(   7) C  86                  0.00047     1.81206   
  1581. RY*(   8) C  86                  0.00027     1.24983   
  1582. RY*(   9) C  86                  0.00025     1.56098   
  1583. RY*(  10) C  86                  0.00018     1.77236   
  1584. RY*(  11) C  86                  0.00011     1.38449   
  1585. RY*(  12) C  86                  0.00005     2.22252   
  1586. RY*(  13) C  86                  0.00006     2.44290   
  1587. RY*(  14) C  86                  0.00006     2.81714   
  1588. RY*(  15) C  86                  0.00002     3.36363   
  1589. RY*(  16) C  86                  0.00003     2.65948   
  1590. RY*(  17) C  86                  0.00000     3.42213   
  1591. RY*(  18) C  86                  0.00000     3.53402   
  1592. RY*(  19) C  86                  0.00000    20.84776   
  1593. RY*(  20) C  86                  0.00001     3.81868   
  1594. RY*(  21) C  86                  0.00001     3.97573   
  1595. RY*(  22) C  86                  0.00000     3.53636   
  1596. RY*(  23) C  86                  0.00000     3.44980   
  1597. RY*(  24) C  86                  0.00001     3.48553   
  1598. RY*(  25) C  86                  0.00000     3.47878   
  1599. RY*(  26) C  86                  0.00000     3.74313   
  1600. RY*(   1) H  87                  0.00064     0.77007   
  1601. RY*(   2) H  87                  0.00038     2.37223   
  1602. RY*(   3) H  87                  0.00023     2.33376   
  1603. RY*(   4) H  87                  0.00009     2.72081   
  1604. RY*(   5) H  87                  0.00002     3.20435   
  1698. BD*(   1) C  76 - H  77          0.01158     0.33975   
  1699. BD*(   1) C  76 - H  78          0.01231     0.34005   
  1700. BD*(   1) C  76 - H  79          0.00334     0.34841   
  1701. BD*(   1) C  76 - C  82          0.01507     0.38958   
  1702. BD*(   1) N  80 - H  81          0.01592     0.38059   
  1703. BD*(   1) N  80 - C  82          0.02945     0.42575   
  1704. BD*(   1) N  80 - C  83          0.02019     0.50502   
  1705. BD*(   1) C  82 - C  86          0.02095     0.59455   
  1706. BD*(   2) C  82 - C  86          0.29316     0.04659  1709(v),1699(v),1698(v)
                                                    1579(g),1495(g),1609(r)
                                                    1642(r)
  1707. BD*(   1) C  83 - H  84          0.01892     0.36455   
  1708. BD*(   1) C  83 - N  85          0.01553     0.54713   
  1709. BD*(   2) C  83 - N  85          0.41973     0.00313  1706(v),1518(g),1548(g)
                                                    169(r),1606(r),170(r)
  1710. BD*(   1) N  85 - C  86          0.01476     0.48521   
  1711. BD*(   1) C  86 - H  87          0.01493     0.42316   
       -------------------------------
              Total Lewis   42.72368  ( 97.7401%)
        Valence non-Lewis    0.90585  (  2.0723%)
        Rydberg non-Lewis    0.08197  (  0.1875%)
       -------------------------------
            Total unit  4   43.71151  (100.0000%)
           Charge unit  4    0.28849
 Unable to Open any file for archive entry.
 1\1\GINC-BGN1038\SP\RAPFD\def2TZVP\C38H40Fe1N8\BECSLEIP\14-Nov-2024\0\
 \# apfd/def2TZVP int=(grid=ultrafine) geom=check guess=read pop=nbo sc
 f=qc\\6vdq_II_S_nbo\\0,1\Fe,0,27.158,-7.685,17.146\N,0,25.486,-7.012,1
 6.22\N,0,27.385,-5.863,18.032\N,0,28.854,-8.327,18.009\N,0,26.975,-9.4
 74,16.314\C,0,24.747,-7.745,15.323\C,0,23.55,-7.,15.007\C,0,23.578,-5.
 868,15.704\C,0,24.807,-5.849,16.471\C,0,26.469,-4.818,17.92\C,0,27.017
 ,-3.641,18.548\C,0,28.386,-4.058,19.081\C,0,28.515,-5.45,18.72\C,0,29.
 659,-7.571,18.839\C,0,30.582,-8.436,19.521\C,0,30.472,-9.641,18.978\C,
 0,29.274,-9.628,18.164\C,0,27.691,-10.615,16.62\C,0,27.188,-11.711,15.
 811\C,0,26.164,-11.202,15.092\C,0,26.037,-9.805,15.379\C,0,25.11,-8.96
 7,14.808\H,0,24.63,-9.293,13.885\C,0,25.241,-4.863,17.313\H,0,24.552,-
 4.044,17.519\C,0,29.601,-6.22,19.017\H,0,30.481,-5.722,19.424\C,0,28.7
 28,-10.696,17.511\H,0,29.147,-11.682,17.713\C,0,22.434,-7.476,14.057\H
 ,0,22.261,-8.455,14.554\H,0,23.086,-7.632,13.171\H,0,21.456,-7.055,13.
 74\C,0,22.502,-4.769,15.678\H,0,23.191,-3.94,15.409\H,0,22.327,-4.751,
 16.775\H,0,21.541,-4.628,15.138\C,0,25.219,-11.824,14.05\H,0,24.324,-1
 1.703,13.403\H,0,25.02,-12.625,14.794\H,0,26.087,-12.102,13.415\C,0,27
 .734,-13.151,15.961\H,0,27.644,-13.823,16.805\C,0,27.712,-14.001,14.67
 9\H,0,27.792,-13.524,13.691\H,0,27.617,-15.095,14.736\C,0,31.105,-10.9
 19,19.569\H,0,31.576,-11.217,18.608\H,0,30.167,-11.498,19.705\H,0,31.8
 1,-11.138,20.399\C,0,31.641,-7.957,20.544\H,0,31.328,-7.591,21.517\C,0
 ,32.919,-7.576,19.768\H,0,33.127,-8.018,18.783\H,0,33.636,-6.858,20.19
 2\C,0,29.427,-3.21,19.85\H,0,30.433,-3.274,20.316\H,0,28.682,-2.96,20.
 635\H,0,29.44,-2.417,19.072\C,0,26.323,-2.264,18.652\H,0,27.234,-1.739
 ,18.294\H,0,26.342,-2.302,19.762\H,0,25.427,-1.706,18.306\C,0,31.108,-
 7.403,13.117\H,0,32.074,-7.044,13.534\H,0,30.942,-6.924,12.128\H,0,31.
 153,-8.507,13.001\N,0,29.664,-5.731,14.319\H,0,30.108,-4.935,13.907\C,
 0,29.999,-7.039,14.046\C,0,28.679,-5.702,15.197\H,0,28.21,-4.794,15.57
 4\N,0,28.382,-6.944,15.519\C,0,29.196,-7.804,14.819\H,0,29.124,-8.877,
 14.939\C,0,25.473,-8.82,22.353\H,0,25.456,-9.88,22.685\H,0,24.547,-8.3
 17,22.705\H,0,26.365,-8.32,22.787\N,0,24.594,-9.357,20.055\H,0,23.805,
 -9.874,20.387\C,0,25.54,-8.766,20.866\C,0,24.899,-9.131,18.794\H,0,24.
 317,-9.483,17.943\N,0,26.008,-8.421,18.76\C,0,26.434,-8.179,20.04\H,0,
 27.334,-7.611,20.241\\Version=ES64L-G16RevC.02\State=1-A\HF=-3172.6973
 737\RMSD=5.205e-10\Dipole=-0.4379616,0.4888459,0.1419111\Quadrupole=2.
 2646859,-7.3641336,5.0994478,14.0259895,-13.7149928,-10.4560811\PG=C01
  [X(C38H40Fe1N8)]\\@
 The archive entry for this job was punched.


 A SUCCESSFUL PURSUIT OF SCIENCE MAKES A MAN THE
 BENEFACTOR OF ALL MANKIND OF EVERY AGE.
   --  JOSEPH PRIESTLEY, "EXPERIMENTS AND
 OBSERVATIONS ON DIFFERENT KINDS OF AIR", 1774
 Job cpu time:       0 days  1 hours  1 minutes  4.8 seconds.
 Elapsed time:       0 days  0 hours  1 minutes 15.6 seconds.
 File lengths (MBytes):  RWF=    987 Int=      0 D2E=      0 Chk=    233 Scr=      1
 Normal termination of Gaussian 16 at Thu Nov 14 17:44:08 2024.
