 Entering Gaussian System, Link 0=g16
 Input=6y2y05.com
 Output=6y2y05.log
 Initial command:
 /sw/chem/gaussian/g16_C02/a100/g16/l1.exe "/local/becsleip_8094342/Gau-1877648.inp" -scrdir="/local/becsleip_8094342/"
 Entering Link 1 = /sw/chem/gaussian/g16_C02/a100/g16/l1.exe PID=   1877649.
  
 Copyright (c) 1988-2021, Gaussian, Inc.  All Rights Reserved.
  
 This is part of the Gaussian(R) 16 program.  It is based on
 the Gaussian(R) 09 system (copyright 2009, Gaussian, Inc.),
 the Gaussian(R) 03 system (copyright 2003, Gaussian, Inc.),
 the Gaussian(R) 98 system (copyright 1998, Gaussian, Inc.),
 the Gaussian(R) 94 system (copyright 1995, Gaussian, Inc.),
 the Gaussian 92(TM) system (copyright 1992, Gaussian, Inc.),
 the Gaussian 90(TM) system (copyright 1990, Gaussian, Inc.),
 the Gaussian 88(TM) system (copyright 1988, Gaussian, Inc.),
 the Gaussian 86(TM) system (copyright 1986, Carnegie Mellon
 University), and the Gaussian 82(TM) system (copyright 1983,
 Carnegie Mellon University). Gaussian is a federally registered
 trademark of Gaussian, Inc.
  
 This software contains proprietary and confidential information,
 including trade secrets, belonging to Gaussian, Inc.
  
 This software is provided under written license and may be
 used, copied, transmitted, or stored only in accord with that
 written license.
  
 The following legend is applicable only to US Government
 contracts under FAR:
  
                    RESTRICTED RIGHTS LEGEND
  
 Use, reproduction and disclosure by the US Government is
 subject to restrictions as set forth in subparagraphs (a)
 and (c) of the Commercial Computer Software - Restricted
 Rights clause in FAR 52.227-19.
  
 Gaussian, Inc.
 340 Quinnipiac St., Bldg. 40, Wallingford CT 06492
  
  
 ---------------------------------------------------------------
 Warning -- This program may not be used in any manner that
 competes with the business of Gaussian, Inc. or will provide
 assistance to any competitor of Gaussian, Inc.  The licensee
 of this program is prohibited from giving any competitor of
 Gaussian, Inc. access to this program.  By using this program,
 the user acknowledges that Gaussian, Inc. is engaged in the
 business of creating and licensing software in the field of
 computational chemistry and represents and warrants to the
 licensee that it is not a competitor of Gaussian, Inc. and that
 it will not use this program in any manner prohibited above.
 ---------------------------------------------------------------
  

 Cite this work as:
 Gaussian 16, Revision C.02,
 M. J. Frisch, G. W. Trucks, H. B. Schlegel, G. E. Scuseria, 
 M. A. Robb, J. R. Cheeseman, G. Scalmani, V. Barone, 
 G. A. Petersson, H. Nakatsuji, X. Li, M. Caricato, A. V. Marenich, 
 J. Bloino, B. G. Janesko, R. Gomperts, B. Mennucci, H. P. Hratchian, 
 J. V. Ortiz, A. F. Izmaylov, J. L. Sonnenberg, D. Williams-Young, 
 F. Ding, F. Lipparini, F. Egidi, J. Goings, B. Peng, A. Petrone, 
 T. Henderson, D. Ranasinghe, V. G. Zakrzewski, J. Gao, N. Rega, 
 G. Zheng, W. Liang, M. Hada, M. Ehara, K. Toyota, R. Fukuda, 
 J. Hasegawa, M. Ishida, T. Nakajima, Y. Honda, O. Kitao, H. Nakai, 
 T. Vreven, K. Throssell, J. A. Montgomery, Jr., J. E. Peralta, 
 F. Ogliaro, M. J. Bearpark, J. J. Heyd, E. N. Brothers, K. N. Kudin, 
 V. N. Staroverov, T. A. Keith, R. Kobayashi, J. Normand, 
 K. Raghavachari, A. P. Rendell, J. C. Burant, S. S. Iyengar, 
 J. Tomasi, M. Cossi, J. M. Millam, M. Klene, C. Adamo, R. Cammi, 
 J. W. Ochterski, R. L. Martin, K. Morokuma, O. Farkas, 
 J. B. Foresman, and D. J. Fox, Gaussian, Inc., Wallingford CT, 2019.
 
 ******************************************
 Gaussian 16:  ES64L-G16RevC.02  7-Dec-2021
                21-Nov-2024 
 ******************************************
 %mem=16GB
 %CPU=0-71
 SetSPE:  set environment variable "OMP_PROC_BIND" = "true"
 SetSPE:  set environment variable "OMP_PLACES" = "{0},{1},{2},{3},{4},{5},{6},{7},{8},{9},{10},{11},{12},{13},{14},{15},{16},{17},{18},{19},{20},{21},{22},{23},{24},{25},{26},{27},{28},{29},{30},{31},{32},{33},{34},{35},{36},{37},{38},{39},{40},{41},{42},{43},{44},{45},{46},{47},{48},{49},{50},{51},{52},{53},{54},{55},{56},{57},{58},{59},{60},{61},{62},{63},{64},{65},{66},{67},{68},{69},{70},{71}"
 Will use up to   72 processors via shared memory.
 %gpucpu=0,1,2,3=0,1,2,3
 Will use    4 GPUs:
 Thread  CPU   GPU
      0    0     0
      1    1     1
      2    2     2
      3    3     3
      4    4    -1
      5    5    -1
      6    6    -1
      7    7    -1
      8    8    -1
      9    9    -1
     10   10    -1
     11   11    -1
     12   12    -1
     13   13    -1
     14   14    -1
     15   15    -1
     16   16    -1
     17   17    -1
     18   18    -1
     19   19    -1
     20   20    -1
     21   21    -1
     22   22    -1
     23   23    -1
     24   24    -1
     25   25    -1
     26   26    -1
     27   27    -1
     28   28    -1
     29   29    -1
     30   30    -1
     31   31    -1
     32   32    -1
     33   33    -1
     34   34    -1
     35   35    -1
     36   36    -1
     37   37    -1
     38   38    -1
     39   39    -1
     40   40    -1
     41   41    -1
     42   42    -1
     43   43    -1
     44   44    -1
     45   45    -1
     46   46    -1
     47   47    -1
     48   48    -1
     49   49    -1
     50   50    -1
     51   51    -1
     52   52    -1
     53   53    -1
     54   54    -1
     55   55    -1
     56   56    -1
     57   57    -1
     58   58    -1
     59   59    -1
     60   60    -1
     61   61    -1
     62   62    -1
     63   63    -1
     64   64    -1
     65   65    -1
     66   66    -1
     67   67    -1
     68   68    -1
     69   69    -1
     70   70    -1
     71   71    -1
 SetGPE:  set environment variable "OMP_PROC_BIND" = "true"
 SetGPE:  set environment variable "OMP_PLACES" = "{0},{1},{2},{3},{4},{5},{6},{7},{8},{9},{10},{11},{12},{13},{14},{15},{16},{17},{18},{19},{20},{21},{22},{23},{24},{25},{26},{27},{28},{29},{30},{31},{32},{33},{34},{35},{36},{37},{38},{39},{40},{41},{42},{43},{44},{45},{46},{47},{48},{49},{50},{51},{52},{53},{54},{55},{56},{57},{58},{59},{60},{61},{62},{63},{64},{65},{66},{67},{68},{69},{70},{71}"
 %oldchk=6y2y_II_Sre.chk
 %chk=6y2y_II_Qn.chk
 Properties for Device   0
 Minimum vector length:                              32
 Maximum vector length:                            1024
 Number of SMPs:                                    108
 Maximum number of threads per SMP:                2048
 Number of ASync Engines:                             5
 Memory:                                           9207742464
 Properties for Device   1
 Minimum vector length:                              32
 Maximum vector length:                            1024
 Number of SMPs:                                    108
 Maximum number of threads per SMP:                2048
 Number of ASync Engines:                             5
 Memory:                                           9207742464
 Properties for Device   2
 Minimum vector length:                              32
 Maximum vector length:                            1024
 Number of SMPs:                                    108
 Maximum number of threads per SMP:                2048
 Number of ASync Engines:                             5
 Memory:                                           9207742464
 Properties for Device   3
 Minimum vector length:                              32
 Maximum vector length:                            1024
 Number of SMPs:                                    108
 Maximum number of threads per SMP:                2048
 Number of ASync Engines:                             5
 Memory:                                           9207742464
   8286968217 words of memory will be used on each GPU.
 Copying data from "6y2y_II_Sre.chk" to current chk file "6y2y_II_Qn.chk"
 IOpt=  2 FromEx=T IUOpen= 4 IOptOp= 5 NList=   0 IFRang= 0 IUIn= 4 IUOut= 2.
 --------------------------------------------------------------
 # apfd/def2TZVP guess=read scf=maxcycle=999 geom=check pop=nbo
 --------------------------------------------------------------
 1/29=2,38=1,172=1/1;
 2/12=2,40=1/2;
 3/5=44,7=101,11=2,14=-4,25=1,30=1,74=-44,116=-2/1,2,3;
 4/5=1/1;
 5/5=2,7=999,38=6/2;
 6/7=2,8=2,9=2,10=2,28=1,40=1/1,7;
 99/5=1,9=1/99;
 ---------
 6y2y_II_Q
 ---------
 Structure from the checkpoint file:  "6y2y_II_Qn.chk"
 Charge =  0 Multiplicity = 5
 Z-Matrix found in chk file.
 Fe,0,11.4264708695,-2.0562318559,0.8742548522
 N,0,12.0056504129,-0.3699378747,1.7900845599
 N,0,9.7444387004,-2.0678657454,1.9646452803
 N,0,10.7812700702,-3.6402466901,-0.1491677067
 N,0,13.0284828278,-1.9265302836,-0.331866458
 C,0,13.1432043255,0.3383045604,1.558834907
 C,0,13.1699162035,1.5392350853,2.3629068617
 C,0,12.016609957,1.5429945025,3.0849557626
 C,0,11.3096403287,0.3339815086,2.7256941964
 C,0,9.3977054996,-1.1907648555,2.9460799785
 C,0,8.203654596,-1.6235044142,3.6247411454
 C,0,7.8289106043,-2.8002625202,3.0301967108
 C,0,8.8050697611,-3.047758511,1.9863938051
 C,0,9.6435218497,-4.35015868,0.0831544935
 C,0,9.4792895418,-5.3921397812,-0.8988724491
 C,0,10.5503926801,-5.2933886676,-1.7471796787
 C,0,11.3574008856,-4.1978482567,-1.2440611756
 C,0,13.3896848673,-2.8282177603,-1.281166311
 C,0,14.7636135381,-2.6269841185,-1.6867259156
 C,0,15.2170761963,-1.5606147417,-0.9746821923
 C,0,14.1153417771,-1.1328698319,-0.1410330899
 C,0,14.1628763671,-0.041628386,0.7051649077
 H,0,15.0569185368,0.5632091089,0.6946795486
 C,0,10.0976468424,-0.040325363,3.2722118448
 H,0,9.6843393339,0.5952100339,4.0408405491
 C,0,8.7554068275,-4.1217593762,1.1196267114
 H,0,7.9402829335,-4.8196853756,1.2354122189
 C,0,12.5775308557,-3.8303817577,-1.7810462547
 H,0,12.961027056,-4.4187156224,-2.6011365321
 C,0,11.5206653647,2.5480507687,4.0678620003
 H,0,12.2119235471,3.3833255336,4.1488719545
 H,0,11.409809022,2.0988726088,5.0554239964
 H,0,10.5483108532,2.935829482,3.7631974401
 C,0,14.271488009,2.5426873442,2.338400865
 H,0,14.4088504969,2.9368392871,1.3313671843
 H,0,15.2112050213,2.0878859144,2.653
 H,0,14.0543227181,3.3735900984,3.0052444005
 C,0,7.5045339537,-0.8690200946,4.7016119581
 H,0,7.5607825614,0.2034275581,4.5215689718
 H,0,7.9530884716,-1.0707130039,5.6760772339
 H,0,6.4567597937,-1.1603040234,4.7406266954
 C,0,6.6938813081,-3.6468662823,3.319526086
 H,0,6.2697069821,-4.1691070765,2.4698522396
 C,0,6.1538613274,-3.8333562585,4.5200135589
 H,0,6.5594111871,-3.3817447771,5.4084236634
 H,0,5.2968177469,-4.4714155311,4.6587610414
 C,0,8.3104224943,-6.3103227392,-0.988642469
 H,0,7.3921067376,-5.7945429359,-0.7128721352
 H,0,8.4334380746,-7.1625758597,-0.318137608
 H,0,8.2072109151,-6.6855531672,-2.0049248046
 C,0,10.8628283329,-6.0707804188,-2.9256332522
 H,0,11.3753061499,-5.5342597767,-3.7160835247
 C,0,10.5812459932,-7.3582385286,-3.100012141
 H,0,10.1181055177,-7.9527284542,-2.3321561405
 H,0,10.8313441961,-7.8706726309,-4.0143220592
 C,0,15.4736408534,-3.4619539654,-2.6966359643
 H,0,14.9796307422,-3.3937685605,-3.6663002919
 H,0,15.4781374952,-4.5094319229,-2.3940918848
 H,0,16.5036751417,-3.1343353025,-2.8148698216
 C,0,16.5608192811,-0.9165077004,-0.9892036348
 H,0,17.2359274745,-1.4437501799,-1.6587674784
 H,0,16.9971137518,-0.9164967591,0.0097983373
 H,0,16.4859122524,0.118374629,-1.3245608777
 O,0,10.349,-0.664,-0.565
 H,0,10.528,0.221,-0.247
 H,0,9.846,-0.879,-1.266
 C,0,14.6559589725,-5.8495702395,3.3735777098
 H,0,15.0205255848,-6.2629456931,2.4383613439
 H,0,14.1546917471,-6.6405881115,3.9318619582
 H,0,15.5074666883,-5.5054383013,3.9603462645
 N,0,13.1687438516,-3.9643500823,4.084187802
 H,0,13.3278062823,-4.0771941441,5.0718730482
 C,0,13.7230146933,-4.729425594,3.0915794352
 C,0,12.3747881875,-3.0413138516,3.495146014
 H,0,11.8115066435,-2.3037421412,4.0286954556
 N,0,12.3925249105,-3.1759884891,2.190892624
 C,0,13.2261675727,-4.2227746946,1.9248534232
 H,0,13.4112480309,-4.5370611059,0.9183951032
 Recover connectivity data from disk.
 Stoichiometry    C34H36FeN6O(5)
 Framework group  C1[X(C34H36FeN6O)]
 Deg. of freedom   228
 Full point group                 C1      NOp   1
 Largest Abelian subgroup         C1      NOp   1
 Largest concise Abelian subgroup C1      NOp   1
                         Standard orientation:                         
 ---------------------------------------------------------------------
 Center     Atomic      Atomic             Coordinates (Angstroms)
 Number     Number       Type             X           Y           Z
 ---------------------------------------------------------------------
      1         26           0        0.074395   -0.165327   -0.412072
      2          7           0        1.436908   -1.634867   -0.454405
      3          7           0        1.545984    1.195829   -0.412320
      4          7           0       -1.281085    1.291102   -0.531526
      5          7           0       -1.381413   -1.538412   -0.594433
      6          6           0        1.197285   -2.972832   -0.493710
      7          6           0        2.435970   -3.711181   -0.593613
      8          6           0        3.433139   -2.785687   -0.618103
      9          6           0        2.790468   -1.494690   -0.513757
     10          6           0        2.885241    0.955101   -0.377901
     11          6           0        3.623981    2.179349   -0.207367
     12          6           0        2.693075    3.182662   -0.133523
     13          6           0        1.401305    2.538882   -0.276847
     14          6           0       -1.041545    2.630268   -0.490632
     15          6           0       -2.262626    3.375562   -0.665478
     16          6           0       -3.259383    2.449152   -0.823212
     17          6           0       -2.617953    1.152123   -0.718895
     18          6           0       -2.717272   -1.293277   -0.586243
     19          6           0       -3.463220   -2.511187   -0.356223
     20          6           0       -2.541993   -3.506210   -0.251109
     21          6           0       -1.248798   -2.878737   -0.411356
     22          6           0       -0.049728   -3.565287   -0.411322
     23          1           0       -0.087930   -4.642345   -0.350202
     24          6           0        3.474237   -0.295219   -0.475747
     25          1           0        4.552851   -0.340306   -0.484487
     26          6           0        0.197958    3.216057   -0.301754
     27          1           0        0.227297    4.290353   -0.201954
     28          6           0       -3.302047   -0.049354   -0.742772
     29          1           0       -4.378987   -0.010880   -0.809652
     30          6           0        4.906541   -2.986997   -0.721851
     31          1           0        5.146625   -4.043034   -0.817922
     32          1           0        5.411427   -2.600743    0.164279
     33          1           0        5.305322   -2.464088   -1.591452
     34          6           0        2.524926   -5.196830   -0.670488
     35          1           0        1.964338   -5.570740   -1.527385
     36          1           0        2.109284   -5.652642    0.228602
     37          1           0        3.558646   -5.518985   -0.769884
     38          6           0        5.108692    2.294321   -0.198269
     39          1           0        5.555565    1.588163   -0.896386
     40          1           0        5.511755    2.086787    0.794673
     41          1           0        5.406126    3.301221   -0.484422
     42          6           0        2.896075    4.604831    0.024492
     43          1           0        2.167983    5.239884   -0.466623
     44          6           0        3.877998    5.173969    0.716937
     45          1           0        4.602147    4.597840    1.265917
     46          1           0        3.974613    6.245209    0.780226
     47          6           0       -2.358341    4.859376   -0.746113
     48          1           0       -1.492830    5.274854   -1.259582
     49          1           0       -2.403309    5.300569    0.251069
     50          1           0       -3.256476    5.146908   -1.289216
     51          6           0       -4.670449    2.651180   -1.065671
     52          1           0       -5.150412    1.898886   -1.681292
     53          6           0       -5.399481    3.658720   -0.595971
     54          1           0       -4.988529    4.407059    0.058726
     55          1           0       -6.446725    3.753778   -0.831225
     56          6           0       -4.949267   -2.583846   -0.268944
     57          1           0       -5.404765   -2.258454   -1.204671
     58          1           0       -5.319133   -1.938070    0.527884
     59          1           0       -5.276046   -3.600885   -0.066137
     60          6           0       -2.746651   -4.962556   -0.010482
     61          1           0       -3.801469   -5.188256    0.125492
     62          1           0       -2.208118   -5.283488    0.881338
     63          1           0       -2.378382   -5.545784   -0.855041
     64          8           0        0.262069   -0.202021   -2.677936
     65          1           0        0.911714   -0.878426   -2.869843
     66          1           0       -0.154810    0.310432   -3.273116
     67          6           0       -1.580963   -0.330931    4.907513
     68          1           0       -2.635083   -0.387490    4.654432
     69          1           0       -1.414883    0.563049    5.509075
     70          1           0       -1.317812   -1.200457    5.509564
     71          7           0        0.597578   -0.295496    3.673198
     72          1           0        1.179241   -0.328584    4.494253
     73          6           0       -0.772698   -0.287599    3.662739
     74          6           0        1.017480   -0.248334    2.388367
     75          1           0        2.045932   -0.243101    2.091326
     76          7           0       -0.003176   -0.210594    1.565953
     77          6           0       -1.123626   -0.233433    2.344135
     78          1           0       -2.099548   -0.210689    1.904761
 ---------------------------------------------------------------------
 Rotational constants (GHZ):           0.0938119           0.0916494           0.0594945
 Standard basis: def2TZVP (5D, 7F)
 There are  1744 symmetry adapted cartesian basis functions of A   symmetry.
 There are  1532 symmetry adapted basis functions of A   symmetry.
  1532 basis functions,  2481 primitive gaussians,  1744 cartesian basis functions
   160 alpha electrons      156 beta electrons
       nuclear repulsion energy      5973.5508028824 Hartrees.
 NAtoms=   78 NActive=   78 NUniq=   78 SFac= 1.00D+00 NAtFMM=   60 NAOKFM=T Big=T
 Integral buffers will be    131072 words long.
 Raffenetti 2 integral format.
 Two-electron integral symmetry is turned on.
 R6APFD:  NTU= -4 IXU= 1 FactS= 1.050
 Nuclear repulsion after empirical dispersion term =     5973.3975501179 Hartrees.
 One-electron integrals computed using PRISM.
   1 Symmetry operations used in ECPInt.
 ECPInt:  NShTT=  186355 NPrTT=  576197 LenC2=  147423 LenP2D=  301755.
 LDataN:  DoStor=T MaxTD1= 6 Len=  172
 Number of processors reduced to  23 by ecpmxn.
 NBasis=  1532 RedAO= T EigKep=  3.26D-06  NBF=  1532
 NBsUse=  1532 1.00D-06 EigRej= -1.00D+00 NBFU=  1532
 Initial guess from the checkpoint file:  "6y2y_II_Qn.chk"
 B after Tr=    -0.000000    0.000000   -0.000000
         Rot=    1.000000    0.000000    0.000000   -0.000000 Ang=   0.00 deg.
 Initial guess <Sx>= 0.0000 <Sy>= 0.0000 <Sz>= 2.0000 <S**2>= 6.1559 S= 2.0310
 Requested convergence on RMS density matrix=1.00D-08 within 999 cycles.
 Requested convergence on MAX density matrix=1.00D-06.
 Requested convergence on             energy=1.00D-06.
 No special actions if energy rises.
 Restarting incremental Fock formation.
 SCF Done:  E(UAPFD) =  -2984.01218242     A.U. after   33 cycles
            NFock= 33  Conv=0.15D-08     -V/T= 2.0031
 <Sx>= 0.0000 <Sy>= 0.0000 <Sz>= 2.0000 <S**2>= 6.1607 S= 2.0319
 <L.S>=  0.00000000000    
 Annihilation of the first spin contaminant:
 S**2 before annihilation     6.1607,   after     6.0007

 **********************************************************************

            Population analysis using the SCF Density.

 **********************************************************************

 Orbital symmetries:
 Alpha Orbitals:
       Occupied  (A) (A) (A) (A) (A) (A) (A) (A) (A) (A) (A) (A)
                 (A) (A) (A) (A) (A) (A) (A) (A) (A) (A) (A) (A)
                 (A) (A) (A) (A) (A) (A) (A) (A) (A) (A) (A) (A)
                 (A) (A) (A) (A) (A) (A) (A) (A) (A) (A) (A) (A)
                 (A) (A) (A) (A) (A) (A) (A) (A) (A) (A) (A) (A)
                 (A) (A) (A) (A) (A) (A) (A) (A) (A) (A) (A) (A)
                 (A) (A) (A) (A) (A) (A) (A) (A) (A) (A) (A) (A)
                 (A) (A) (A) (A) (A) (A) (A) (A) (A) (A) (A) (A)
                 (A) (A) (A) (A) (A) (A) (A) (A) (A) (A) (A) (A)
                 (A) (A) (A) (A) (A) (A) (A) (A) (A) (A) (A) (A)
                 (A) (A) (A) (A) (A) (A) (A) (A) (A) (A) (A) (A)
                 (A) (A) (A) (A) (A) (A) (A) (A) (A) (A) (A) (A)
                 (A) (A) (A) (A) (A) (A) (A) (A) (A) (A) (A) (A)
                 (A) (A) (A) (A)
       Virtual   (A) (A) (A) (A) (A) (A) (A) (A) (A) (A) (A) (A)
                 (A) (A) (A) (A) (A) (A) (A) (A) (A) (A) (A) (A)
                 (A) (A) (A) (A) (A) (A) (A) (A) (A) (A) (A) (A)
                 (A) (A) (A) (A) (A) (A) (A) (A) (A) (A) (A) (A)
                 (A) (A) (A) (A) (A) (A) (A) (A) (A) (A) (A) (A)
                 (A) (A) (A) (A) (A) (A) (A) (A) (A) (A) (A) (A)
                 (A) (A) (A) (A) (A) (A) (A) (A) (A) (A) (A) (A)
                 (A) (A) (A) (A) (A) (A) (A) (A) (A) (A) (A) (A)
                 (A) (A) (A) (A) (A) (A) (A) (A) (A) (A) (A) (A)
                 (A) (A) (A) (A) (A) (A) (A) (A) (A) (A) (A) (A)
                 (A) (A) (A) (A) (A) (A) (A) (A) (A) (A) (A) (A)
                 (A) (A) (A) (A) (A) (A) (A) (A) (A) (A) (A) (A)
                 (A) (A) (A) (A) (A) (A) (A) (A) (A) (A) (A) (A)
                 (A) (A) (A) (A) (A) (A) (A) (A) (A) (A) (A) (A)
                 (A) (A) (A) (A) (A) (A) (A) (A) (A) (A) (A) (A)
                 (A) (A) (A) (A) (A) (A) (A) (A) (A) (A) (A) (A)
                 (A) (A) (A) (A) (A) (A) (A) (A) (A) (A) (A) (A)
                 (A) (A) (A) (A) (A) (A) (A) (A) (A) (A) (A) (A)
                 (A) (A) (A) (A) (A) (A) (A) (A) (A) (A) (A) (A)
                 (A) (A) (A) (A) (A) (A) (A) (A) (A) (A) (A) (A)
                 (A) (A) (A) (A) (A) (A) (A) (A) (A) (A) (A) (A)
                 (A) (A) (A) (A) (A) (A) (A) (A) (A) (A) (A) (A)
                 (A) (A) (A) (A) (A) (A) (A) (A) (A) (A) (A) (A)
                 (A) (A) (A) (A) (A) (A) (A) (A) (A) (A) (A) (A)
                 (A) (A) (A) (A) (A) (A) (A) (A) (A) (A) (A) (A)
                 (A) (A) (A) (A) (A) (A) (A) (A) (A) (A) (A) (A)
                 (A) (A) (A) (A) (A) (A) (A) (A) (A) (A) (A) (A)
                 (A) (A) (A) (A) (A) (A) (A) (A) (A) (A) (A) (A)
                 (A) (A) (A) (A) (A) (A) (A) (A) (A) (A) (A) (A)
                 (A) (A) (A) (A) (A) (A) (A) (A) (A) (A) (A) (A)
                 (A) (A) (A) (A) (A) (A) (A) (A) (A) (A) (A) (A)
                 (A) (A) (A) (A) (A) (A) (A) (A) (A) (A) (A) (A)
                 (A) (A) (A) (A) (A) (A) (A) (A) (A) (A) (A) (A)
                 (A) (A) (A) (A) (A) (A) (A) (A) (A) (A) (A) (A)
                 (A) (A) (A) (A) (A) (A) (A) (A) (A) (A) (A) (A)
                 (A) (A) (A) (A) (A) (A) (A) (A) (A) (A) (A) (A)
                 (A) (A) (A) (A) (A) (A) (A) (A) (A) (A) (A) (A)
                 (A) (A) (A) (A) (A) (A) (A) (A) (A) (A) (A) (A)
                 (A) (A) (A) (A) (A) (A) (A) (A) (A) (A) (A) (A)
                 (A) (A) (A) (A) (A) (A) (A) (A) (A) (A) (A) (A)
                 (A) (A) (A) (A) (A) (A) (A) (A) (A) (A) (A) (A)
                 (A) (A) (A) (A) (A) (A) (A) (A) (A) (A) (A) (A)
                 (A) (A) (A) (A) (A) (A) (A) (A) (A) (A) (A) (A)
                 (A) (A) (A) (A) (A) (A) (A) (A) (A) (A) (A) (A)
                 (A) (A) (A) (A) (A) (A) (A) (A) (A) (A) (A) (A)
                 (A) (A) (A) (A) (A) (A) (A) (A) (A) (A) (A) (A)
                 (A) (A) (A) (A) (A) (A) (A) (A) (A) (A) (A) (A)
                 (A) (A) (A) (A) (A) (A) (A) (A) (A) (A) (A) (A)
                 (A) (A) (A) (A) (A) (A) (A) (A) (A) (A) (A) (A)
                 (A) (A) (A) (A) (A) (A) (A) (A) (A) (A) (A) (A)
                 (A) (A) (A) (A) (A) (A) (A) (A) (A) (A) (A) (A)
                 (A) (A) (A) (A) (A) (A) (A) (A) (A) (A) (A) (A)
                 (A) (A) (A) (A) (A) (A) (A) (A) (A) (A) (A) (A)
                 (A) (A) (A) (A) (A) (A) (A) (A) (A) (A) (A) (A)
                 (A) (A) (A) (A) (A) (A) (A) (A) (A) (A) (A) (A)
                 (A) (A) (A) (A) (A) (A) (A) (A) (A) (A) (A) (A)
                 (A) (A) (A) (A) (A) (A) (A) (A) (A) (A) (A) (A)
                 (A) (A) (A) (A) (A) (A) (A) (A) (A) (A) (A) (A)
                 (A) (A) (A) (A) (A) (A) (A) (A) (A) (A) (A) (A)
                 (A) (A) (A) (A) (A) (A) (A) (A) (A) (A) (A) (A)
                 (A) (A) (A) (A) (A) (A) (A) (A) (A) (A) (A) (A)
                 (A) (A) (A) (A) (A) (A) (A) (A) (A) (A) (A) (A)
                 (A) (A) (A) (A) (A) (A) (A) (A) (A) (A) (A) (A)
                 (A) (A) (A) (A) (A) (A) (A) (A) (A) (A) (A) (A)
                 (A) (A) (A) (A) (A) (A) (A) (A) (A) (A) (A) (A)
                 (A) (A) (A) (A) (A) (A) (A) (A) (A) (A) (A) (A)
                 (A) (A) (A) (A) (A) (A) (A) (A) (A) (A) (A) (A)
                 (A) (A) (A) (A) (A) (A) (A) (A) (A) (A) (A) (A)
                 (A) (A) (A) (A) (A) (A) (A) (A) (A) (A) (A) (A)
                 (A) (A) (A) (A) (A) (A) (A) (A) (A) (A) (A) (A)
                 (A) (A) (A) (A) (A) (A) (A) (A) (A) (A) (A) (A)
                 (A) (A) (A) (A) (A) (A) (A) (A) (A) (A) (A) (A)
                 (A) (A) (A) (A) (A) (A) (A) (A) (A) (A) (A) (A)
                 (A) (A) (A) (A) (A) (A) (A) (A) (A) (A) (A) (A)
                 (A) (A) (A) (A) (A) (A) (A) (A) (A) (A) (A) (A)
                 (A) (A) (A) (A) (A) (A) (A) (A) (A) (A) (A) (A)
                 (A) (A) (A) (A) (A) (A) (A) (A) (A) (A) (A) (A)
                 (A) (A) (A) (A) (A) (A) (A) (A) (A) (A) (A) (A)
                 (A) (A) (A) (A) (A) (A) (A) (A) (A) (A) (A) (A)
                 (A) (A) (A) (A) (A) (A) (A) (A) (A) (A) (A) (A)
                 (A) (A) (A) (A) (A) (A) (A) (A) (A) (A) (A) (A)
                 (A) (A) (A) (A) (A) (A) (A) (A) (A) (A) (A) (A)
                 (A) (A) (A) (A) (A) (A) (A) (A) (A) (A) (A) (A)
                 (A) (A) (A) (A) (A) (A) (A) (A) (A) (A) (A) (A)
                 (A) (A) (A) (A) (A) (A) (A) (A) (A) (A) (A) (A)
                 (A) (A) (A) (A) (A) (A) (A) (A) (A) (A) (A) (A)
                 (A) (A) (A) (A) (A) (A) (A) (A) (A) (A) (A) (A)
                 (A) (A) (A) (A) (A) (A) (A) (A) (A) (A) (A) (A)
                 (A) (A) (A) (A) (A) (A) (A) (A) (A) (A) (A) (A)
                 (A) (A) (A) (A) (A) (A) (A) (A) (A) (A) (A) (A)
                 (A) (A) (A) (A) (A) (A) (A) (A) (A) (A) (A) (A)
                 (A) (A) (A) (A) (A) (A) (A) (A) (A) (A) (A) (A)
                 (A) (A) (A) (A) (A) (A) (A) (A) (A) (A) (A) (A)
                 (A) (A) (A) (A) (A) (A) (A) (A) (A) (A) (A) (A)
                 (A) (A) (A) (A) (A) (A) (A) (A) (A) (A) (A) (A)
                 (A) (A) (A) (A) (A) (A) (A) (A) (A) (A) (A) (A)
                 (A) (A) (A) (A) (A) (A) (A) (A) (A) (A) (A) (A)
                 (A) (A) (A) (A) (A) (A) (A) (A) (A) (A) (A) (A)
                 (A) (A) (A) (A) (A) (A) (A) (A) (A) (A) (A) (A)
                 (A) (A) (A) (A) (A) (A) (A) (A) (A) (A) (A) (A)
                 (A) (A) (A) (A) (A) (A) (A) (A) (A) (A) (A) (A)
                 (A) (A) (A) (A) (A) (A) (A) (A) (A) (A) (A) (A)
                 (A) (A) (A) (A) (A) (A) (A) (A) (A) (A) (A) (A)
                 (A) (A) (A) (A) (A) (A) (A) (A) (A) (A) (A) (A)
                 (A) (A) (A) (A) (A) (A) (A) (A) (A) (A) (A) (A)
                 (A) (A) (A) (A) (A) (A) (A) (A) (A) (A) (A) (A)
                 (A) (A) (A) (A) (A) (A) (A) (A) (A) (A) (A) (A)
                 (A) (A) (A) (A) (A) (A) (A) (A) (A) (A) (A) (A)
                 (A) (A) (A) (A) (A) (A) (A) (A) (A) (A) (A) (A)
                 (A) (A) (A) (A) (A) (A) (A) (A) (A) (A) (A) (A)
                 (A) (A) (A) (A) (A) (A) (A) (A) (A) (A) (A) (A)
                 (A) (A) (A) (A) (A) (A) (A) (A) (A) (A) (A) (A)
                 (A) (A) (A) (A) (A) (A) (A) (A) (A) (A) (A) (A)
                 (A) (A) (A) (A) (A) (A) (A) (A) (A) (A) (A) (A)
                 (A) (A) (A) (A)
 Beta  Orbitals:
       Occupied  (A) (A) (A) (A) (A) (A) (A) (A) (A) (A) (A) (A)
                 (A) (A) (A) (A) (A) (A) (A) (A) (A) (A) (A) (A)
                 (A) (A) (A) (A) (A) (A) (A) (A) (A) (A) (A) (A)
                 (A) (A) (A) (A) (A) (A) (A) (A) (A) (A) (A) (A)
                 (A) (A) (A) (A) (A) (A) (A) (A) (A) (A) (A) (A)
                 (A) (A) (A) (A) (A) (A) (A) (A) (A) (A) (A) (A)
                 (A) (A) (A) (A) (A) (A) (A) (A) (A) (A) (A) (A)
                 (A) (A) (A) (A) (A) (A) (A) (A) (A) (A) (A) (A)
                 (A) (A) (A) (A) (A) (A) (A) (A) (A) (A) (A) (A)
                 (A) (A) (A) (A) (A) (A) (A) (A) (A) (A) (A) (A)
                 (A) (A) (A) (A) (A) (A) (A) (A) (A) (A) (A) (A)
                 (A) (A) (A) (A) (A) (A) (A) (A) (A) (A) (A) (A)
                 (A) (A) (A) (A) (A) (A) (A) (A) (A) (A) (A) (A)
       Virtual   (A) (A) (A) (A) (A) (A) (A) (A) (A) (A) (A) (A)
                 (A) (A) (A) (A) (A) (A) (A) (A) (A) (A) (A) (A)
                 (A) (A) (A) (A) (A) (A) (A) (A) (A) (A) (A) (A)
                 (A) (A) (A) (A) (A) (A) (A) (A) (A) (A) (A) (A)
                 (A) (A) (A) (A) (A) (A) (A) (A) (A) (A) (A) (A)
                 (A) (A) (A) (A) (A) (A) (A) (A) (A) (A) (A) (A)
                 (A) (A) (A) (A) (A) (A) (A) (A) (A) (A) (A) (A)
                 (A) (A) (A) (A) (A) (A) (A) (A) (A) (A) (A) (A)
                 (A) (A) (A) (A) (A) (A) (A) (A) (A) (A) (A) (A)
                 (A) (A) (A) (A) (A) (A) (A) (A) (A) (A) (A) (A)
                 (A) (A) (A) (A) (A) (A) (A) (A) (A) (A) (A) (A)
                 (A) (A) (A) (A) (A) (A) (A) (A) (A) (A) (A) (A)
                 (A) (A) (A) (A) (A) (A) (A) (A) (A) (A) (A) (A)
                 (A) (A) (A) (A) (A) (A) (A) (A) (A) (A) (A) (A)
                 (A) (A) (A) (A) (A) (A) (A) (A) (A) (A) (A) (A)
                 (A) (A) (A) (A) (A) (A) (A) (A) (A) (A) (A) (A)
                 (A) (A) (A) (A) (A) (A) (A) (A) (A) (A) (A) (A)
                 (A) (A) (A) (A) (A) (A) (A) (A) (A) (A) (A) (A)
                 (A) (A) (A) (A) (A) (A) (A) (A) (A) (A) (A) (A)
                 (A) (A) (A) (A) (A) (A) (A) (A) (A) (A) (A) (A)
                 (A) (A) (A) (A) (A) (A) (A) (A) (A) (A) (A) (A)
                 (A) (A) (A) (A) (A) (A) (A) (A) (A) (A) (A) (A)
                 (A) (A) (A) (A) (A) (A) (A) (A) (A) (A) (A) (A)
                 (A) (A) (A) (A) (A) (A) (A) (A) (A) (A) (A) (A)
                 (A) (A) (A) (A) (A) (A) (A) (A) (A) (A) (A) (A)
                 (A) (A) (A) (A) (A) (A) (A) (A) (A) (A) (A) (A)
                 (A) (A) (A) (A) (A) (A) (A) (A) (A) (A) (A) (A)
                 (A) (A) (A) (A) (A) (A) (A) (A) (A) (A) (A) (A)
                 (A) (A) (A) (A) (A) (A) (A) (A) (A) (A) (A) (A)
                 (A) (A) (A) (A) (A) (A) (A) (A) (A) (A) (A) (A)
                 (A) (A) (A) (A) (A) (A) (A) (A) (A) (A) (A) (A)
                 (A) (A) (A) (A) (A) (A) (A) (A) (A) (A) (A) (A)
                 (A) (A) (A) (A) (A) (A) (A) (A) (A) (A) (A) (A)
                 (A) (A) (A) (A) (A) (A) (A) (A) (A) (A) (A) (A)
                 (A) (A) (A) (A) (A) (A) (A) (A) (A) (A) (A) (A)
                 (A) (A) (A) (A) (A) (A) (A) (A) (A) (A) (A) (A)
                 (A) (A) (A) (A) (A) (A) (A) (A) (A) (A) (A) (A)
                 (A) (A) (A) (A) (A) (A) (A) (A) (A) (A) (A) (A)
                 (A) (A) (A) (A) (A) (A) (A) (A) (A) (A) (A) (A)
                 (A) (A) (A) (A) (A) (A) (A) (A) (A) (A) (A) (A)
                 (A) (A) (A) (A) (A) (A) (A) (A) (A) (A) (A) (A)
                 (A) (A) (A) (A) (A) (A) (A) (A) (A) (A) (A) (A)
                 (A) (A) (A) (A) (A) (A) (A) (A) (A) (A) (A) (A)
                 (A) (A) (A) (A) (A) (A) (A) (A) (A) (A) (A) (A)
                 (A) (A) (A) (A) (A) (A) (A) (A) (A) (A) (A) (A)
                 (A) (A) (A) (A) (A) (A) (A) (A) (A) (A) (A) (A)
                 (A) (A) (A) (A) (A) (A) (A) (A) (A) (A) (A) (A)
                 (A) (A) (A) (A) (A) (A) (A) (A) (A) (A) (A) (A)
                 (A) (A) (A) (A) (A) (A) (A) (A) (A) (A) (A) (A)
                 (A) (A) (A) (A) (A) (A) (A) (A) (A) (A) (A) (A)
                 (A) (A) (A) (A) (A) (A) (A) (A) (A) (A) (A) (A)
                 (A) (A) (A) (A) (A) (A) (A) (A) (A) (A) (A) (A)
                 (A) (A) (A) (A) (A) (A) (A) (A) (A) (A) (A) (A)
                 (A) (A) (A) (A) (A) (A) (A) (A) (A) (A) (A) (A)
                 (A) (A) (A) (A) (A) (A) (A) (A) (A) (A) (A) (A)
                 (A) (A) (A) (A) (A) (A) (A) (A) (A) (A) (A) (A)
                 (A) (A) (A) (A) (A) (A) (A) (A) (A) (A) (A) (A)
                 (A) (A) (A) (A) (A) (A) (A) (A) (A) (A) (A) (A)
                 (A) (A) (A) (A) (A) (A) (A) (A) (A) (A) (A) (A)
                 (A) (A) (A) (A) (A) (A) (A) (A) (A) (A) (A) (A)
                 (A) (A) (A) (A) (A) (A) (A) (A) (A) (A) (A) (A)
                 (A) (A) (A) (A) (A) (A) (A) (A) (A) (A) (A) (A)
                 (A) (A) (A) (A) (A) (A) (A) (A) (A) (A) (A) (A)
                 (A) (A) (A) (A) (A) (A) (A) (A) (A) (A) (A) (A)
                 (A) (A) (A) (A) (A) (A) (A) (A) (A) (A) (A) (A)
                 (A) (A) (A) (A) (A) (A) (A) (A) (A) (A) (A) (A)
                 (A) (A) (A) (A) (A) (A) (A) (A) (A) (A) (A) (A)
                 (A) (A) (A) (A) (A) (A) (A) (A) (A) (A) (A) (A)
                 (A) (A) (A) (A) (A) (A) (A) (A) (A) (A) (A) (A)
                 (A) (A) (A) (A) (A) (A) (A) (A) (A) (A) (A) (A)
                 (A) (A) (A) (A) (A) (A) (A) (A) (A) (A) (A) (A)
                 (A) (A) (A) (A) (A) (A) (A) (A) (A) (A) (A) (A)
                 (A) (A) (A) (A) (A) (A) (A) (A) (A) (A) (A) (A)
                 (A) (A) (A) (A) (A) (A) (A) (A) (A) (A) (A) (A)
                 (A) (A) (A) (A) (A) (A) (A) (A) (A) (A) (A) (A)
                 (A) (A) (A) (A) (A) (A) (A) (A) (A) (A) (A) (A)
                 (A) (A) (A) (A) (A) (A) (A) (A) (A) (A) (A) (A)
                 (A) (A) (A) (A) (A) (A) (A) (A) (A) (A) (A) (A)
                 (A) (A) (A) (A) (A) (A) (A) (A) (A) (A) (A) (A)
                 (A) (A) (A) (A) (A) (A) (A) (A) (A) (A) (A) (A)
                 (A) (A) (A) (A) (A) (A) (A) (A) (A) (A) (A) (A)
                 (A) (A) (A) (A) (A) (A) (A) (A) (A) (A) (A) (A)
                 (A) (A) (A) (A) (A) (A) (A) (A) (A) (A) (A) (A)
                 (A) (A) (A) (A) (A) (A) (A) (A) (A) (A) (A) (A)
                 (A) (A) (A) (A) (A) (A) (A) (A) (A) (A) (A) (A)
                 (A) (A) (A) (A) (A) (A) (A) (A) (A) (A) (A) (A)
                 (A) (A) (A) (A) (A) (A) (A) (A) (A) (A) (A) (A)
                 (A) (A) (A) (A) (A) (A) (A) (A) (A) (A) (A) (A)
                 (A) (A) (A) (A) (A) (A) (A) (A) (A) (A) (A) (A)
                 (A) (A) (A) (A) (A) (A) (A) (A) (A) (A) (A) (A)
                 (A) (A) (A) (A) (A) (A) (A) (A) (A) (A) (A) (A)
                 (A) (A) (A) (A) (A) (A) (A) (A) (A) (A) (A) (A)
                 (A) (A) (A) (A) (A) (A) (A) (A) (A) (A) (A) (A)
                 (A) (A) (A) (A) (A) (A) (A) (A) (A) (A) (A) (A)
                 (A) (A) (A) (A) (A) (A) (A) (A) (A) (A) (A) (A)
                 (A) (A) (A) (A) (A) (A) (A) (A) (A) (A) (A) (A)
                 (A) (A) (A) (A) (A) (A) (A) (A) (A) (A) (A) (A)
                 (A) (A) (A) (A) (A) (A) (A) (A) (A) (A) (A) (A)
                 (A) (A) (A) (A) (A) (A) (A) (A) (A) (A) (A) (A)
                 (A) (A) (A) (A) (A) (A) (A) (A) (A) (A) (A) (A)
                 (A) (A) (A) (A) (A) (A) (A) (A) (A) (A) (A) (A)
                 (A) (A) (A) (A) (A) (A) (A) (A) (A) (A) (A) (A)
                 (A) (A) (A) (A) (A) (A) (A) (A) (A) (A) (A) (A)
                 (A) (A) (A) (A) (A) (A) (A) (A) (A) (A) (A) (A)
                 (A) (A) (A) (A) (A) (A) (A) (A) (A) (A) (A) (A)
                 (A) (A) (A) (A) (A) (A) (A) (A) (A) (A) (A) (A)
                 (A) (A) (A) (A) (A) (A) (A) (A) (A) (A) (A) (A)
                 (A) (A) (A) (A) (A) (A) (A) (A) (A) (A) (A) (A)
                 (A) (A) (A) (A) (A) (A) (A) (A) (A) (A) (A) (A)
                 (A) (A) (A) (A) (A) (A) (A) (A) (A) (A) (A) (A)
                 (A) (A) (A) (A) (A) (A) (A) (A) (A) (A) (A) (A)
                 (A) (A) (A) (A) (A) (A) (A) (A) (A) (A) (A) (A)
                 (A) (A) (A) (A) (A) (A) (A) (A) (A) (A) (A) (A)
                 (A) (A) (A) (A) (A) (A) (A) (A) (A) (A) (A) (A)
                 (A) (A) (A) (A) (A) (A) (A) (A)
 The electronic state is 5-A.
 Alpha  occ. eigenvalues -- -256.18691 -30.07991 -25.92489 -25.90568 -25.90336
 Alpha  occ. eigenvalues --  -19.16369 -14.41699 -14.35263 -14.32286 -14.32278
 Alpha  occ. eigenvalues --  -14.32161 -14.31843 -10.25443 -10.23662 -10.21040
 Alpha  occ. eigenvalues --  -10.20866 -10.20798 -10.20775 -10.20774 -10.20751
 Alpha  occ. eigenvalues --  -10.20666 -10.20630 -10.20507 -10.20503 -10.19494
 Alpha  occ. eigenvalues --  -10.19387 -10.18881 -10.18761 -10.18711 -10.18623
 Alpha  occ. eigenvalues --  -10.18578 -10.18503 -10.18483 -10.18476 -10.18424
 Alpha  occ. eigenvalues --  -10.18421 -10.18388 -10.18342 -10.18288 -10.18241
 Alpha  occ. eigenvalues --  -10.18131 -10.18119 -10.18060 -10.18059 -10.18027
 Alpha  occ. eigenvalues --  -10.18002  -3.53707  -2.33367  -2.29185  -2.28895
 Alpha  occ. eigenvalues --   -1.05243  -1.04546  -0.96825  -0.95899  -0.95776
 Alpha  occ. eigenvalues --   -0.94851  -0.90901  -0.82081  -0.81756  -0.81418
 Alpha  occ. eigenvalues --   -0.80633  -0.80325  -0.80186  -0.79407  -0.79331
 Alpha  occ. eigenvalues --   -0.76594  -0.75553  -0.74167  -0.73751  -0.73041
 Alpha  occ. eigenvalues --   -0.71800  -0.70868  -0.70020  -0.68217  -0.67850
 Alpha  occ. eigenvalues --   -0.67689  -0.64643  -0.63979  -0.63861  -0.61292
 Alpha  occ. eigenvalues --   -0.60545  -0.60062  -0.59915  -0.57662  -0.56541
 Alpha  occ. eigenvalues --   -0.55975  -0.54373  -0.53550  -0.53219  -0.52707
 Alpha  occ. eigenvalues --   -0.51022  -0.50945  -0.50442  -0.48971  -0.47918
 Alpha  occ. eigenvalues --   -0.47767  -0.47518  -0.47405  -0.45186  -0.44718
 Alpha  occ. eigenvalues --   -0.44672  -0.44413  -0.44076  -0.43653  -0.43571
 Alpha  occ. eigenvalues --   -0.43317  -0.43282  -0.43016  -0.42788  -0.42615
 Alpha  occ. eigenvalues --   -0.42435  -0.42297  -0.42086  -0.41613  -0.41418
 Alpha  occ. eigenvalues --   -0.41379  -0.41204  -0.40713  -0.40332  -0.40038
 Alpha  occ. eigenvalues --   -0.39723  -0.39409  -0.39250  -0.39139  -0.38774
 Alpha  occ. eigenvalues --   -0.38521  -0.38360  -0.38113  -0.37572  -0.37029
 Alpha  occ. eigenvalues --   -0.36921  -0.36830  -0.36446  -0.36034  -0.35560
 Alpha  occ. eigenvalues --   -0.34751  -0.34358  -0.34140  -0.33637  -0.33185
 Alpha  occ. eigenvalues --   -0.32584  -0.31571  -0.31035  -0.30960  -0.30721
 Alpha  occ. eigenvalues --   -0.29949  -0.29302  -0.28842  -0.27581  -0.26353
 Alpha  occ. eigenvalues --   -0.26135  -0.23846  -0.23159  -0.22234  -0.21542
 Alpha  occ. eigenvalues --   -0.21194  -0.20516  -0.17847  -0.17548  -0.16058
 Alpha virt. eigenvalues --   -0.06591  -0.06497  -0.01852   0.00667   0.01450
 Alpha virt. eigenvalues --    0.02349   0.02453   0.03398   0.04670   0.04782
 Alpha virt. eigenvalues --    0.05216   0.05749   0.05904   0.06111   0.06465
 Alpha virt. eigenvalues --    0.07055   0.07942   0.08175   0.08367   0.08832
 Alpha virt. eigenvalues --    0.09167   0.09436   0.09716   0.09903   0.10190
 Alpha virt. eigenvalues --    0.10564   0.11283   0.11535   0.11641   0.11850
 Alpha virt. eigenvalues --    0.11906   0.12151   0.12365   0.12522   0.12927
 Alpha virt. eigenvalues --    0.13276   0.13428   0.13648   0.13718   0.14392
 Alpha virt. eigenvalues --    0.14453   0.14552   0.14724   0.14896   0.15064
 Alpha virt. eigenvalues --    0.15425   0.15558   0.15675   0.15965   0.15981
 Alpha virt. eigenvalues --    0.16183   0.16469   0.16637   0.17115   0.17302
 Alpha virt. eigenvalues --    0.17421   0.17749   0.17908   0.18314   0.18684
 Alpha virt. eigenvalues --    0.19236   0.19446   0.19921   0.20092   0.20201
 Alpha virt. eigenvalues --    0.20454   0.20526   0.20937   0.21196   0.21435
 Alpha virt. eigenvalues --    0.21727   0.21758   0.22264   0.22458   0.22759
 Alpha virt. eigenvalues --    0.23320   0.23360   0.23920   0.24290   0.24492
 Alpha virt. eigenvalues --    0.24797   0.25213   0.25414   0.25689   0.25837
 Alpha virt. eigenvalues --    0.26255   0.26544   0.26653   0.27065   0.27238
 Alpha virt. eigenvalues --    0.27422   0.27671   0.27969   0.28188   0.28513
 Alpha virt. eigenvalues --    0.28750   0.29090   0.29361   0.29583   0.30018
 Alpha virt. eigenvalues --    0.30159   0.30536   0.30650   0.30907   0.31182
 Alpha virt. eigenvalues --    0.31238   0.31417   0.32013   0.32187   0.32490
 Alpha virt. eigenvalues --    0.32765   0.33207   0.33575   0.33644   0.33988
 Alpha virt. eigenvalues --    0.34356   0.34594   0.34782   0.34883   0.35257
 Alpha virt. eigenvalues --    0.35618   0.36082   0.36178   0.36408   0.36763
 Alpha virt. eigenvalues --    0.37090   0.37330   0.37555   0.37791   0.37906
 Alpha virt. eigenvalues --    0.38483   0.38700   0.38930   0.39150   0.39355
 Alpha virt. eigenvalues --    0.39431   0.39661   0.39819   0.40183   0.40444
 Alpha virt. eigenvalues --    0.40571   0.40809   0.41061   0.41415   0.41451
 Alpha virt. eigenvalues --    0.41809   0.42035   0.42095   0.42293   0.42495
 Alpha virt. eigenvalues --    0.42539   0.43008   0.43237   0.43481   0.43705
 Alpha virt. eigenvalues --    0.43910   0.43983   0.44284   0.44476   0.44864
 Alpha virt. eigenvalues --    0.44951   0.45166   0.45509   0.45837   0.45966
 Alpha virt. eigenvalues --    0.46315   0.46633   0.46730   0.46895   0.47226
 Alpha virt. eigenvalues --    0.47391   0.47596   0.47703   0.47880   0.47972
 Alpha virt. eigenvalues --    0.48321   0.48694   0.48905   0.49216   0.49295
 Alpha virt. eigenvalues --    0.49458   0.49666   0.49836   0.50083   0.50238
 Alpha virt. eigenvalues --    0.50453   0.50762   0.50999   0.51127   0.51297
 Alpha virt. eigenvalues --    0.51694   0.51821   0.52063   0.52242   0.52449
 Alpha virt. eigenvalues --    0.52764   0.52888   0.53114   0.53584   0.53868
 Alpha virt. eigenvalues --    0.54034   0.54231   0.54618   0.54825   0.54940
 Alpha virt. eigenvalues --    0.55538   0.55627   0.55960   0.56121   0.56483
 Alpha virt. eigenvalues --    0.56528   0.56852   0.56917   0.57256   0.57854
 Alpha virt. eigenvalues --    0.57972   0.58122   0.58492   0.58557   0.59082
 Alpha virt. eigenvalues --    0.59296   0.59349   0.60059   0.60390   0.60747
 Alpha virt. eigenvalues --    0.61370   0.61761   0.61952   0.62058   0.62462
 Alpha virt. eigenvalues --    0.62540   0.63021   0.63138   0.63495   0.63889
 Alpha virt. eigenvalues --    0.64118   0.64653   0.64807   0.64905   0.65311
 Alpha virt. eigenvalues --    0.65692   0.65749   0.66241   0.66418   0.66597
 Alpha virt. eigenvalues --    0.66754   0.66950   0.67498   0.67534   0.67842
 Alpha virt. eigenvalues --    0.68252   0.68603   0.69264   0.69516   0.70024
 Alpha virt. eigenvalues --    0.70375   0.70797   0.70928   0.71255   0.71655
 Alpha virt. eigenvalues --    0.71877   0.72082   0.72460   0.72859   0.73272
 Alpha virt. eigenvalues --    0.73691   0.73811   0.74300   0.74318   0.74959
 Alpha virt. eigenvalues --    0.74994   0.75493   0.75734   0.75974   0.76632
 Alpha virt. eigenvalues --    0.77062   0.77361   0.77544   0.77736   0.77994
 Alpha virt. eigenvalues --    0.78284   0.78593   0.78752   0.79571   0.79745
 Alpha virt. eigenvalues --    0.79963   0.80073   0.80345   0.80658   0.80932
 Alpha virt. eigenvalues --    0.81283   0.81740   0.82550   0.82694   0.82880
 Alpha virt. eigenvalues --    0.83641   0.84460   0.84608   0.85281   0.85441
 Alpha virt. eigenvalues --    0.85854   0.86236   0.86606   0.86907   0.87218
 Alpha virt. eigenvalues --    0.87599   0.88200   0.88507   0.88835   0.89257
 Alpha virt. eigenvalues --    0.89536   0.89902   0.90539   0.90624   0.91327
 Alpha virt. eigenvalues --    0.91554   0.91888   0.92075   0.92438   0.92839
 Alpha virt. eigenvalues --    0.93199   0.93564   0.94331   0.94693   0.95152
 Alpha virt. eigenvalues --    0.95309   0.95689   0.95776   0.96143   0.97047
 Alpha virt. eigenvalues --    0.97132   0.97446   0.97748   0.97881   0.98865
 Alpha virt. eigenvalues --    0.98929   0.99110   0.99409   0.99787   1.00247
 Alpha virt. eigenvalues --    1.00461   1.00694   1.00889   1.01838   1.02194
 Alpha virt. eigenvalues --    1.02266   1.02381   1.02735   1.02859   1.02963
 Alpha virt. eigenvalues --    1.03374   1.03629   1.03757   1.04254   1.04848
 Alpha virt. eigenvalues --    1.05214   1.05416   1.05664   1.06322   1.06337
 Alpha virt. eigenvalues --    1.06687   1.07224   1.07699   1.07987   1.08515
 Alpha virt. eigenvalues --    1.08918   1.09389   1.09926   1.10008   1.10220
 Alpha virt. eigenvalues --    1.11092   1.11385   1.12085   1.12194   1.12847
 Alpha virt. eigenvalues --    1.13531   1.13719   1.13980   1.14186   1.14866
 Alpha virt. eigenvalues --    1.16202   1.16277   1.16409   1.16693   1.17370
 Alpha virt. eigenvalues --    1.17863   1.18428   1.18541   1.18726   1.19021
 Alpha virt. eigenvalues --    1.19414   1.19886   1.20231   1.20437   1.21028
 Alpha virt. eigenvalues --    1.21179   1.21583   1.21863   1.22463   1.22699
 Alpha virt. eigenvalues --    1.23052   1.23855   1.24276   1.24495   1.25201
 Alpha virt. eigenvalues --    1.25701   1.26482   1.26794   1.27292   1.27699
 Alpha virt. eigenvalues --    1.27866   1.28125   1.28703   1.28866   1.29201
 Alpha virt. eigenvalues --    1.29256   1.29779   1.29932   1.30442   1.30729
 Alpha virt. eigenvalues --    1.31276   1.31555   1.32102   1.32576   1.32652
 Alpha virt. eigenvalues --    1.33474   1.33845   1.34339   1.34986   1.35981
 Alpha virt. eigenvalues --    1.36338   1.37258   1.37457   1.37721   1.38700
 Alpha virt. eigenvalues --    1.39229   1.39644   1.40651   1.41042   1.41209
 Alpha virt. eigenvalues --    1.42039   1.42520   1.43024   1.43488   1.44386
 Alpha virt. eigenvalues --    1.44553   1.45282   1.45371   1.46110   1.46206
 Alpha virt. eigenvalues --    1.46915   1.47190   1.47447   1.47524   1.47882
 Alpha virt. eigenvalues --    1.48324   1.48609   1.48916   1.49308   1.49765
 Alpha virt. eigenvalues --    1.49909   1.50279   1.50595   1.50952   1.51034
 Alpha virt. eigenvalues --    1.51354   1.51596   1.51795   1.52296   1.52455
 Alpha virt. eigenvalues --    1.52551   1.52823   1.53157   1.53834   1.53895
 Alpha virt. eigenvalues --    1.54007   1.54216   1.54855   1.54933   1.55264
 Alpha virt. eigenvalues --    1.55590   1.55752   1.55825   1.56203   1.56256
 Alpha virt. eigenvalues --    1.56849   1.57131   1.57255   1.57691   1.57809
 Alpha virt. eigenvalues --    1.57861   1.58479   1.58714   1.58869   1.58981
 Alpha virt. eigenvalues --    1.59373   1.59753   1.60157   1.60715   1.61217
 Alpha virt. eigenvalues --    1.61564   1.61832   1.62212   1.62340   1.62762
 Alpha virt. eigenvalues --    1.62904   1.63152   1.63472   1.63878   1.64001
 Alpha virt. eigenvalues --    1.64262   1.64482   1.64950   1.65273   1.65804
 Alpha virt. eigenvalues --    1.65857   1.66248   1.66287   1.66823   1.67047
 Alpha virt. eigenvalues --    1.67572   1.68178   1.68433   1.68675   1.69190
 Alpha virt. eigenvalues --    1.69494   1.69800   1.70009   1.70501   1.70779
 Alpha virt. eigenvalues --    1.70984   1.71314   1.71943   1.72404   1.72869
 Alpha virt. eigenvalues --    1.73233   1.73514   1.73830   1.74656   1.74886
 Alpha virt. eigenvalues --    1.75302   1.75604   1.76411   1.77237   1.77743
 Alpha virt. eigenvalues --    1.78387   1.78930   1.79572   1.80030   1.81189
 Alpha virt. eigenvalues --    1.81503   1.81836   1.82265   1.82721   1.83142
 Alpha virt. eigenvalues --    1.83772   1.84193   1.84524   1.84868   1.85222
 Alpha virt. eigenvalues --    1.85555   1.85982   1.86243   1.86596   1.86897
 Alpha virt. eigenvalues --    1.87187   1.87743   1.88180   1.88312   1.88869
 Alpha virt. eigenvalues --    1.89381   1.89920   1.90811   1.91335   1.91483
 Alpha virt. eigenvalues --    1.91881   1.92545   1.93297   1.93844   1.94015
 Alpha virt. eigenvalues --    1.94479   1.95296   1.95402   1.95814   1.96500
 Alpha virt. eigenvalues --    1.96884   1.97374   1.97452   1.98614   1.98846
 Alpha virt. eigenvalues --    1.99046   1.99419   2.00011   2.00414   2.00706
 Alpha virt. eigenvalues --    2.01420   2.01469   2.01914   2.02276   2.02668
 Alpha virt. eigenvalues --    2.02942   2.03408   2.04375   2.04986   2.05732
 Alpha virt. eigenvalues --    2.05811   2.06025   2.06975   2.07686   2.08292
 Alpha virt. eigenvalues --    2.08893   2.09014   2.09522   2.09691   2.09799
 Alpha virt. eigenvalues --    2.10087   2.11063   2.11475   2.11793   2.12292
 Alpha virt. eigenvalues --    2.12554   2.13313   2.13602   2.13860   2.14309
 Alpha virt. eigenvalues --    2.14916   2.15383   2.15716   2.16385   2.16456
 Alpha virt. eigenvalues --    2.16904   2.17953   2.18319   2.18623   2.19040
 Alpha virt. eigenvalues --    2.19293   2.19466   2.20117   2.20321   2.21244
 Alpha virt. eigenvalues --    2.21473   2.21680   2.22010   2.22469   2.23829
 Alpha virt. eigenvalues --    2.24223   2.24402   2.25353   2.25480   2.25713
 Alpha virt. eigenvalues --    2.26941   2.27278   2.27772   2.28204   2.28631
 Alpha virt. eigenvalues --    2.28872   2.29293   2.29699   2.30029   2.30827
 Alpha virt. eigenvalues --    2.31108   2.31378   2.31702   2.32247   2.32511
 Alpha virt. eigenvalues --    2.32942   2.33856   2.33989   2.34346   2.35243
 Alpha virt. eigenvalues --    2.35369   2.35655   2.36045   2.36449   2.36855
 Alpha virt. eigenvalues --    2.37101   2.37493   2.37744   2.38220   2.38746
 Alpha virt. eigenvalues --    2.39342   2.39665   2.40046   2.40372   2.40619
 Alpha virt. eigenvalues --    2.41705   2.41865   2.42503   2.42599   2.43377
 Alpha virt. eigenvalues --    2.43857   2.44372   2.44611   2.45331   2.45661
 Alpha virt. eigenvalues --    2.45955   2.46546   2.46658   2.47144   2.47204
 Alpha virt. eigenvalues --    2.47580   2.47924   2.48717   2.49141   2.49483
 Alpha virt. eigenvalues --    2.49946   2.51000   2.51177   2.51674   2.52230
 Alpha virt. eigenvalues --    2.52546   2.53071   2.53282   2.53504   2.53804
 Alpha virt. eigenvalues --    2.54431   2.54808   2.55425   2.55751   2.56292
 Alpha virt. eigenvalues --    2.56714   2.56895   2.57414   2.57774   2.57863
 Alpha virt. eigenvalues --    2.58139   2.58304   2.59123   2.59259   2.59930
 Alpha virt. eigenvalues --    2.60229   2.60737   2.61050   2.61526   2.61671
 Alpha virt. eigenvalues --    2.61928   2.62136   2.62391   2.63175   2.63349
 Alpha virt. eigenvalues --    2.63791   2.64924   2.65202   2.65554   2.66015
 Alpha virt. eigenvalues --    2.66134   2.66316   2.66974   2.67402   2.67729
 Alpha virt. eigenvalues --    2.67869   2.68152   2.68909   2.69058   2.69574
 Alpha virt. eigenvalues --    2.69982   2.70507   2.70879   2.71177   2.71454
 Alpha virt. eigenvalues --    2.72414   2.72551   2.72836   2.72890   2.73312
 Alpha virt. eigenvalues --    2.74342   2.74413   2.74902   2.75656   2.76015
 Alpha virt. eigenvalues --    2.76396   2.76827   2.77695   2.78056   2.78131
 Alpha virt. eigenvalues --    2.78564   2.79210   2.79351   2.80264   2.80681
 Alpha virt. eigenvalues --    2.80840   2.81111   2.81644   2.82052   2.82591
 Alpha virt. eigenvalues --    2.83180   2.83353   2.83935   2.84267   2.84619
 Alpha virt. eigenvalues --    2.85082   2.85554   2.85593   2.86021   2.86482
 Alpha virt. eigenvalues --    2.87198   2.87488   2.87893   2.88171   2.88400
 Alpha virt. eigenvalues --    2.89148   2.89609   2.89731   2.89920   2.90208
 Alpha virt. eigenvalues --    2.90606   2.91036   2.91684   2.92047   2.92389
 Alpha virt. eigenvalues --    2.92633   2.93104   2.93864   2.94258   2.94453
 Alpha virt. eigenvalues --    2.94690   2.95230   2.95469   2.95645   2.95949
 Alpha virt. eigenvalues --    2.96350   2.96998   2.97268   2.97567   2.97648
 Alpha virt. eigenvalues --    2.97773   2.98691   2.99207   2.99465   2.99731
 Alpha virt. eigenvalues --    2.99906   3.00097   3.00449   3.00921   3.01400
 Alpha virt. eigenvalues --    3.02045   3.02194   3.03019   3.03208   3.03604
 Alpha virt. eigenvalues --    3.04253   3.04442   3.05024   3.05433   3.05845
 Alpha virt. eigenvalues --    3.06038   3.06192   3.07096   3.07296   3.07741
 Alpha virt. eigenvalues --    3.07867   3.08096   3.08544   3.08703   3.09153
 Alpha virt. eigenvalues --    3.09561   3.09814   3.09962   3.10582   3.10984
 Alpha virt. eigenvalues --    3.11199   3.11638   3.11838   3.12005   3.12285
 Alpha virt. eigenvalues --    3.12972   3.13430   3.13562   3.14245   3.14376
 Alpha virt. eigenvalues --    3.14702   3.14895   3.15055   3.15466   3.15923
 Alpha virt. eigenvalues --    3.16432   3.16668   3.16907   3.17280   3.17782
 Alpha virt. eigenvalues --    3.18230   3.18569   3.18638   3.18922   3.19343
 Alpha virt. eigenvalues --    3.20146   3.20208   3.20444   3.20808   3.20949
 Alpha virt. eigenvalues --    3.21222   3.21631   3.22057   3.22512   3.22637
 Alpha virt. eigenvalues --    3.22717   3.23201   3.23252   3.23790   3.24211
 Alpha virt. eigenvalues --    3.24657   3.24884   3.25187   3.25541   3.25629
 Alpha virt. eigenvalues --    3.26055   3.26412   3.26529   3.26733   3.26969
 Alpha virt. eigenvalues --    3.27353   3.27478   3.27837   3.28195   3.28591
 Alpha virt. eigenvalues --    3.28778   3.28896   3.29627   3.29884   3.30005
 Alpha virt. eigenvalues --    3.30199   3.30255   3.30792   3.30948   3.31219
 Alpha virt. eigenvalues --    3.31260   3.31814   3.31934   3.32663   3.32933
 Alpha virt. eigenvalues --    3.33394   3.33611   3.33753   3.34067   3.34449
 Alpha virt. eigenvalues --    3.34641   3.35119   3.35489   3.35682   3.36072
 Alpha virt. eigenvalues --    3.36106   3.36485   3.36698   3.36782   3.37082
 Alpha virt. eigenvalues --    3.37236   3.37492   3.38227   3.38630   3.38884
 Alpha virt. eigenvalues --    3.39035   3.39332   3.39378   3.39942   3.39975
 Alpha virt. eigenvalues --    3.40248   3.40825   3.41043   3.41730   3.42081
 Alpha virt. eigenvalues --    3.42466   3.42677   3.43202   3.43426   3.43997
 Alpha virt. eigenvalues --    3.44305   3.44380   3.44723   3.45141   3.45478
 Alpha virt. eigenvalues --    3.46264   3.46544   3.47083   3.47355   3.47852
 Alpha virt. eigenvalues --    3.48147   3.48318   3.49082   3.49282   3.49981
 Alpha virt. eigenvalues --    3.50490   3.50947   3.52054   3.52393   3.52992
 Alpha virt. eigenvalues --    3.53441   3.53593   3.54253   3.54621   3.54776
 Alpha virt. eigenvalues --    3.55247   3.55561   3.55873   3.56189   3.56582
 Alpha virt. eigenvalues --    3.57340   3.57635   3.58354   3.58421   3.59029
 Alpha virt. eigenvalues --    3.59714   3.59828   3.60460   3.61064   3.61323
 Alpha virt. eigenvalues --    3.61827   3.62431   3.63060   3.63649   3.64012
 Alpha virt. eigenvalues --    3.64658   3.65323   3.65719   3.65758   3.66219
 Alpha virt. eigenvalues --    3.66339   3.67195   3.67715   3.68011   3.68244
 Alpha virt. eigenvalues --    3.69001   3.69673   3.69955   3.70140   3.71105
 Alpha virt. eigenvalues --    3.71307   3.71513   3.71615   3.72071   3.72495
 Alpha virt. eigenvalues --    3.73103   3.73327   3.74095   3.74129   3.74477
 Alpha virt. eigenvalues --    3.75130   3.75485   3.75802   3.76038   3.76123
 Alpha virt. eigenvalues --    3.77539   3.77739   3.78215   3.79136   3.79769
 Alpha virt. eigenvalues --    3.79992   3.80489   3.80788   3.81270   3.82042
 Alpha virt. eigenvalues --    3.82095   3.82478   3.83397   3.84220   3.84445
 Alpha virt. eigenvalues --    3.85132   3.85999   3.86752   3.86896   3.87759
 Alpha virt. eigenvalues --    3.88249   3.89227   3.89951   3.90484   3.90590
 Alpha virt. eigenvalues --    3.91240   3.91607   3.91719   3.92377   3.92672
 Alpha virt. eigenvalues --    3.93471   3.94011   3.94302   3.95734   3.96309
 Alpha virt. eigenvalues --    3.96826   3.97965   3.98575   3.99176   3.99376
 Alpha virt. eigenvalues --    4.00275   4.00388   4.01134   4.01368   4.01438
 Alpha virt. eigenvalues --    4.02599   4.02943   4.03926   4.04327   4.04750
 Alpha virt. eigenvalues --    4.05240   4.05353   4.06037   4.06799   4.07540
 Alpha virt. eigenvalues --    4.08449   4.09417   4.10269   4.10506   4.11087
 Alpha virt. eigenvalues --    4.11470   4.12231   4.12586   4.13858   4.14315
 Alpha virt. eigenvalues --    4.15020   4.15632   4.16410   4.16693   4.17255
 Alpha virt. eigenvalues --    4.17530   4.18048   4.18357   4.18685   4.19624
 Alpha virt. eigenvalues --    4.20090   4.20238   4.20860   4.21818   4.22052
 Alpha virt. eigenvalues --    4.22791   4.23729   4.24348   4.24741   4.25262
 Alpha virt. eigenvalues --    4.25509   4.26223   4.26433   4.27180   4.27496
 Alpha virt. eigenvalues --    4.27641   4.28930   4.29721   4.30196   4.31038
 Alpha virt. eigenvalues --    4.31491   4.32117   4.32728   4.33141   4.33876
 Alpha virt. eigenvalues --    4.34316   4.34906   4.35349   4.35586   4.36871
 Alpha virt. eigenvalues --    4.37346   4.38683   4.38992   4.40170   4.40741
 Alpha virt. eigenvalues --    4.40896   4.41225   4.41857   4.42094   4.42436
 Alpha virt. eigenvalues --    4.42922   4.43694   4.44037   4.44582   4.45423
 Alpha virt. eigenvalues --    4.45753   4.46067   4.46308   4.46827   4.47381
 Alpha virt. eigenvalues --    4.47556   4.48631   4.49388   4.49808   4.51395
 Alpha virt. eigenvalues --    4.51993   4.53076   4.54188   4.54462   4.55993
 Alpha virt. eigenvalues --    4.56558   4.56724   4.57607   4.58586   4.59134
 Alpha virt. eigenvalues --    4.59666   4.61535   4.63422   4.64109   4.65227
 Alpha virt. eigenvalues --    4.65826   4.66616   4.68469   4.68904   4.69284
 Alpha virt. eigenvalues --    4.69447   4.70008   4.71763   4.72515   4.72776
 Alpha virt. eigenvalues --    4.73371   4.73768   4.74105   4.75532   4.76088
 Alpha virt. eigenvalues --    4.76463   4.78078   4.80291   4.80645   4.81464
 Alpha virt. eigenvalues --    4.82595   4.83314   4.83798   4.84154   4.84305
 Alpha virt. eigenvalues --    4.84708   4.85262   4.85607   4.86450   4.87654
 Alpha virt. eigenvalues --    4.88432   4.89217   4.90227   4.91197   4.92120
 Alpha virt. eigenvalues --    4.93296   4.93767   4.95002   4.95499   4.95795
 Alpha virt. eigenvalues --    4.96388   4.96825   4.97616   4.98214   4.98964
 Alpha virt. eigenvalues --    5.00894   5.02200   5.02326   5.02849   5.03775
 Alpha virt. eigenvalues --    5.04485   5.05780   5.06986   5.07302   5.07982
 Alpha virt. eigenvalues --    5.08874   5.09870   5.10279   5.10628   5.11506
 Alpha virt. eigenvalues --    5.14079   5.14945   5.16681   5.17456   5.18955
 Alpha virt. eigenvalues --    5.19848   5.20426   5.21054   5.21558   5.22660
 Alpha virt. eigenvalues --    5.23601   5.25076   5.26193   5.26935   5.27031
 Alpha virt. eigenvalues --    5.29532   5.30187   5.32335   5.33798   5.35474
 Alpha virt. eigenvalues --    5.36906   5.37150   5.38183   5.38726   5.38820
 Alpha virt. eigenvalues --    5.39731   5.40459   5.41544   5.42108   5.42769
 Alpha virt. eigenvalues --    5.43447   5.45527   5.47440   5.48959   5.50332
 Alpha virt. eigenvalues --    5.50392   5.52036   5.52274   5.52847   5.53805
 Alpha virt. eigenvalues --    5.56814   5.57240   5.59628   5.61817   5.62439
 Alpha virt. eigenvalues --    5.62762   5.63967   5.64248   5.65935   5.66408
 Alpha virt. eigenvalues --    5.67596   5.68079   5.69011   5.70727   5.73429
 Alpha virt. eigenvalues --    5.77441   5.77855   5.78772   5.81324   5.82276
 Alpha virt. eigenvalues --    5.90375   5.92805   5.94114   5.94978   5.98689
 Alpha virt. eigenvalues --    6.01597   6.02437   6.02885   6.08874   6.12206
 Alpha virt. eigenvalues --    6.13379   6.13915   6.14546   6.17573   6.19162
 Alpha virt. eigenvalues --    6.25138   6.27758   6.34863   6.35555   6.41815
 Alpha virt. eigenvalues --    6.48527   6.52399   6.54594   6.67901   6.97333
 Alpha virt. eigenvalues --    7.29030  22.36490  22.37112  22.44063  22.46125
 Alpha virt. eigenvalues --   22.46888  22.52615  22.54014  22.62363  22.63060
 Alpha virt. eigenvalues --   22.78057  22.86071  22.87556  22.93230  22.94954
 Alpha virt. eigenvalues --   22.95582  22.96636  22.98145  23.04094  23.05239
 Alpha virt. eigenvalues --   23.09378  23.15736  23.28038  23.28768  23.31404
 Alpha virt. eigenvalues --   23.32631  23.42067  23.42739  23.51543  23.51820
 Alpha virt. eigenvalues --   23.56128  23.75074  23.80280  23.81101  23.90210
 Alpha virt. eigenvalues --   32.40733  32.75635  32.90342  32.99433  33.00684
 Alpha virt. eigenvalues --   33.12381  44.06129
  Beta  occ. eigenvalues -- -256.18559 -29.99574 -25.84650 -25.83933 -25.83720
  Beta  occ. eigenvalues --  -19.16244 -14.41694 -14.35049 -14.32070 -14.32058
  Beta  occ. eigenvalues --  -14.31977 -14.31659 -10.25458 -10.23651 -10.21038
  Beta  occ. eigenvalues --  -10.20872 -10.20809 -10.20799 -10.20784 -10.20756
  Beta  occ. eigenvalues --  -10.20686 -10.20640 -10.20526 -10.20523 -10.19489
  Beta  occ. eigenvalues --  -10.19384 -10.18879 -10.18758 -10.18708 -10.18621
  Beta  occ. eigenvalues --  -10.18580 -10.18503 -10.18481 -10.18475 -10.18423
  Beta  occ. eigenvalues --  -10.18417 -10.18386 -10.18340 -10.18297 -10.18242
  Beta  occ. eigenvalues --  -10.18129 -10.18128 -10.18065 -10.18064 -10.18033
  Beta  occ. eigenvalues --  -10.18006  -3.33617  -2.09181  -2.09170  -2.08781
  Beta  occ. eigenvalues --   -1.05150  -1.04361  -0.96629  -0.95685  -0.95611
  Beta  occ. eigenvalues --   -0.94651  -0.90701  -0.82100  -0.81701  -0.81372
  Beta  occ. eigenvalues --   -0.80567  -0.80265  -0.80155  -0.79409  -0.79335
  Beta  occ. eigenvalues --   -0.76584  -0.75529  -0.74161  -0.73756  -0.73039
  Beta  occ. eigenvalues --   -0.71761  -0.70830  -0.69958  -0.68124  -0.67756
  Beta  occ. eigenvalues --   -0.67670  -0.64472  -0.63963  -0.63883  -0.61244
  Beta  occ. eigenvalues --   -0.60494  -0.59968  -0.59857  -0.57645  -0.56358
  Beta  occ. eigenvalues --   -0.55887  -0.54335  -0.53491  -0.53156  -0.52478
  Beta  occ. eigenvalues --   -0.50911  -0.50847  -0.50354  -0.48611  -0.47757
  Beta  occ. eigenvalues --   -0.47714  -0.47412  -0.47131  -0.44933  -0.44624
  Beta  occ. eigenvalues --   -0.44408  -0.44375  -0.44021  -0.43439  -0.43284
  Beta  occ. eigenvalues --   -0.43245  -0.43125  -0.42975  -0.42700  -0.42454
  Beta  occ. eigenvalues --   -0.42371  -0.42254  -0.41650  -0.41526  -0.41423
  Beta  occ. eigenvalues --   -0.41216  -0.40758  -0.40204  -0.40005  -0.39955
  Beta  occ. eigenvalues --   -0.39359  -0.39203  -0.39023  -0.38804  -0.38430
  Beta  occ. eigenvalues --   -0.38135  -0.37644  -0.37372  -0.36964  -0.36799
  Beta  occ. eigenvalues --   -0.36231  -0.35680  -0.35300  -0.35195  -0.34290
  Beta  occ. eigenvalues --   -0.33963  -0.33690  -0.33392  -0.33203  -0.31733
  Beta  occ. eigenvalues --   -0.31548  -0.30539  -0.30226  -0.29481  -0.28880
  Beta  occ. eigenvalues --   -0.28600  -0.26597  -0.26503  -0.24211  -0.23213
  Beta  occ. eigenvalues --   -0.22757  -0.22212  -0.21726  -0.18311  -0.17876
  Beta  occ. eigenvalues --   -0.13728
  Beta virt. eigenvalues --   -0.07136  -0.05763  -0.01954  -0.00517   0.00177
  Beta virt. eigenvalues --    0.01054   0.02122   0.02251   0.02434   0.03361
  Beta virt. eigenvalues --    0.04665   0.04728   0.05493   0.05546   0.05871
  Beta virt. eigenvalues --    0.06111   0.06337   0.07039   0.07399   0.08221
  Beta virt. eigenvalues --    0.08318   0.08389   0.08758   0.09220   0.09342
  Beta virt. eigenvalues --    0.09733   0.09903   0.10234   0.10348   0.10660
  Beta virt. eigenvalues --    0.11319   0.11538   0.11670   0.11862   0.11944
  Beta virt. eigenvalues --    0.12172   0.12377   0.12546   0.12926   0.13265
  Beta virt. eigenvalues --    0.13429   0.13655   0.13758   0.14401   0.14493
  Beta virt. eigenvalues --    0.14606   0.14856   0.14935   0.15101   0.15480
  Beta virt. eigenvalues --    0.15587   0.15716   0.15973   0.16029   0.16206
  Beta virt. eigenvalues --    0.16498   0.16654   0.17145   0.17314   0.17518
  Beta virt. eigenvalues --    0.17749   0.17927   0.18351   0.18728   0.19295
  Beta virt. eigenvalues --    0.19493   0.19938   0.20129   0.20250   0.20470
  Beta virt. eigenvalues --    0.20552   0.20965   0.21203   0.21467   0.21777
  Beta virt. eigenvalues --    0.21820   0.22295   0.22496   0.22768   0.23347
  Beta virt. eigenvalues --    0.23393   0.23995   0.24322   0.24555   0.24922
  Beta virt. eigenvalues --    0.25326   0.25454   0.25826   0.25962   0.26424
  Beta virt. eigenvalues --    0.26567   0.26746   0.27151   0.27312   0.27499
  Beta virt. eigenvalues --    0.27748   0.28133   0.28429   0.28706   0.29105
  Beta virt. eigenvalues --    0.29293   0.29573   0.29757   0.30121   0.30302
  Beta virt. eigenvalues --    0.30614   0.30729   0.30966   0.31399   0.31481
  Beta virt. eigenvalues --    0.31629   0.32170   0.32312   0.32561   0.32842
  Beta virt. eigenvalues --    0.33283   0.33617   0.33658   0.34110   0.34463
  Beta virt. eigenvalues --    0.34735   0.34920   0.35332   0.35435   0.35855
  Beta virt. eigenvalues --    0.36200   0.36349   0.36774   0.36975   0.37142
  Beta virt. eigenvalues --    0.37578   0.37644   0.37882   0.37960   0.38538
  Beta virt. eigenvalues --    0.38748   0.38978   0.39244   0.39358   0.39477
  Beta virt. eigenvalues --    0.39758   0.40088   0.40340   0.40503   0.40687
  Beta virt. eigenvalues --    0.41001   0.41292   0.41458   0.41549   0.41830
  Beta virt. eigenvalues --    0.42065   0.42250   0.42381   0.42512   0.42656
  Beta virt. eigenvalues --    0.43170   0.43435   0.43538   0.43925   0.44010
  Beta virt. eigenvalues --    0.44120   0.44389   0.44756   0.44987   0.45074
  Beta virt. eigenvalues --    0.45281   0.45718   0.45983   0.46099   0.46414
  Beta virt. eigenvalues --    0.46683   0.46794   0.47116   0.47288   0.47488
  Beta virt. eigenvalues --    0.47637   0.47758   0.47939   0.48072   0.48380
  Beta virt. eigenvalues --    0.48796   0.48938   0.49278   0.49400   0.49602
  Beta virt. eigenvalues --    0.49693   0.49890   0.50157   0.50289   0.50518
  Beta virt. eigenvalues --    0.50791   0.51014   0.51221   0.51366   0.51718
  Beta virt. eigenvalues --    0.51865   0.52158   0.52336   0.52533   0.52841
  Beta virt. eigenvalues --    0.52925   0.53197   0.53671   0.53974   0.54126
  Beta virt. eigenvalues --    0.54333   0.54659   0.54944   0.55069   0.55673
  Beta virt. eigenvalues --    0.55848   0.56182   0.56299   0.56526   0.56617
  Beta virt. eigenvalues --    0.56911   0.57020   0.57375   0.57884   0.58045
  Beta virt. eigenvalues --    0.58198   0.58544   0.58616   0.59159   0.59362
  Beta virt. eigenvalues --    0.59410   0.60232   0.60492   0.60814   0.61439
  Beta virt. eigenvalues --    0.62004   0.62027   0.62123   0.62540   0.62665
  Beta virt. eigenvalues --    0.63097   0.63171   0.63609   0.63979   0.64240
  Beta virt. eigenvalues --    0.64705   0.64849   0.64984   0.65404   0.65809
  Beta virt. eigenvalues --    0.65859   0.66350   0.66544   0.66764   0.66890
  Beta virt. eigenvalues --    0.67068   0.67562   0.67721   0.67925   0.68302
  Beta virt. eigenvalues --    0.68706   0.69308   0.69662   0.70129   0.70462
  Beta virt. eigenvalues --    0.71009   0.71035   0.71363   0.71754   0.72026
  Beta virt. eigenvalues --    0.72171   0.72512   0.73013   0.73443   0.73840
  Beta virt. eigenvalues --    0.73989   0.74413   0.74550   0.75032   0.75147
  Beta virt. eigenvalues --    0.75582   0.75845   0.76111   0.76673   0.77289
  Beta virt. eigenvalues --    0.77451   0.77638   0.77777   0.78046   0.78385
  Beta virt. eigenvalues --    0.78728   0.78822   0.79792   0.79821   0.80042
  Beta virt. eigenvalues --    0.80168   0.80407   0.80812   0.80962   0.81364
  Beta virt. eigenvalues --    0.81795   0.82587   0.82751   0.82961   0.83671
  Beta virt. eigenvalues --    0.84537   0.84671   0.85394   0.85523   0.85923
  Beta virt. eigenvalues --    0.86375   0.86714   0.87023   0.87311   0.87654
  Beta virt. eigenvalues --    0.88276   0.88609   0.88959   0.89341   0.89644
  Beta virt. eigenvalues --    0.89997   0.90595   0.90691   0.91374   0.91613
  Beta virt. eigenvalues --    0.91987   0.92178   0.92508   0.92921   0.93237
  Beta virt. eigenvalues --    0.93648   0.94420   0.94747   0.95205   0.95338
  Beta virt. eigenvalues --    0.95801   0.95936   0.96309   0.97073   0.97220
  Beta virt. eigenvalues --    0.97589   0.97818   0.97973   0.98963   0.99034
  Beta virt. eigenvalues --    0.99208   0.99582   0.99829   1.00399   1.00568
  Beta virt. eigenvalues --    1.00878   1.01076   1.01946   1.02269   1.02377
  Beta virt. eigenvalues --    1.02431   1.02801   1.02957   1.03085   1.03574
  Beta virt. eigenvalues --    1.03716   1.03943   1.04354   1.04925   1.05316
  Beta virt. eigenvalues --    1.05590   1.05849   1.06406   1.06457   1.06866
  Beta virt. eigenvalues --    1.07337   1.07878   1.08217   1.08700   1.09127
  Beta virt. eigenvalues --    1.09694   1.10067   1.10149   1.10554   1.11382
  Beta virt. eigenvalues --    1.11810   1.12214   1.12295   1.13137   1.13604
  Beta virt. eigenvalues --    1.13971   1.14214   1.14623   1.15206   1.16301
  Beta virt. eigenvalues --    1.16406   1.16551   1.16736   1.17460   1.18038
  Beta virt. eigenvalues --    1.18582   1.18653   1.18832   1.19458   1.19654
  Beta virt. eigenvalues --    1.20026   1.20321   1.20652   1.21276   1.21330
  Beta virt. eigenvalues --    1.21684   1.22309   1.22680   1.22919   1.23203
  Beta virt. eigenvalues --    1.24091   1.24474   1.24687   1.25266   1.25799
  Beta virt. eigenvalues --    1.26789   1.26969   1.27432   1.28018   1.28113
  Beta virt. eigenvalues --    1.28467   1.28967   1.29066   1.29278   1.29499
  Beta virt. eigenvalues --    1.30081   1.30750   1.30811   1.30897   1.31341
  Beta virt. eigenvalues --    1.31767   1.32317   1.32623   1.33058   1.33666
  Beta virt. eigenvalues --    1.34005   1.34412   1.35236   1.36170   1.36503
  Beta virt. eigenvalues --    1.37337   1.37634   1.37972   1.38822   1.39300
  Beta virt. eigenvalues --    1.39898   1.40781   1.41172   1.41368   1.42240
  Beta virt. eigenvalues --    1.42586   1.43069   1.43567   1.44568   1.44749
  Beta virt. eigenvalues --    1.45357   1.45463   1.46267   1.46408   1.47036
  Beta virt. eigenvalues --    1.47307   1.47521   1.47597   1.48074   1.48481
  Beta virt. eigenvalues --    1.48650   1.49017   1.49458   1.49978   1.50159
  Beta virt. eigenvalues --    1.50395   1.50777   1.51019   1.51221   1.51458
  Beta virt. eigenvalues --    1.51640   1.51834   1.52375   1.52494   1.52647
  Beta virt. eigenvalues --    1.53068   1.53249   1.53876   1.53994   1.54324
  Beta virt. eigenvalues --    1.54412   1.54985   1.55274   1.55603   1.55646
  Beta virt. eigenvalues --    1.55849   1.56144   1.56293   1.56352   1.56960
  Beta virt. eigenvalues --    1.57213   1.57284   1.57726   1.57862   1.57967
  Beta virt. eigenvalues --    1.58542   1.58745   1.58922   1.59082   1.59436
  Beta virt. eigenvalues --    1.59810   1.60227   1.60817   1.61255   1.61607
  Beta virt. eigenvalues --    1.61859   1.62287   1.62441   1.62787   1.63082
  Beta virt. eigenvalues --    1.63333   1.63562   1.63948   1.64075   1.64297
  Beta virt. eigenvalues --    1.64589   1.64995   1.65348   1.65848   1.65941
  Beta virt. eigenvalues --    1.66292   1.66323   1.66852   1.67095   1.67592
  Beta virt. eigenvalues --    1.68221   1.68466   1.68759   1.69278   1.69585
  Beta virt. eigenvalues --    1.69860   1.70117   1.70577   1.70802   1.71050
  Beta virt. eigenvalues --    1.71377   1.72026   1.72529   1.72934   1.73288
  Beta virt. eigenvalues --    1.73636   1.73903   1.74733   1.74947   1.75416
  Beta virt. eigenvalues --    1.75698   1.76462   1.77359   1.77921   1.78458
  Beta virt. eigenvalues --    1.78994   1.79601   1.80092   1.81233   1.81586
  Beta virt. eigenvalues --    1.81898   1.82307   1.82781   1.83185   1.83810
  Beta virt. eigenvalues --    1.84242   1.84578   1.84926   1.85340   1.85616
  Beta virt. eigenvalues --    1.86034   1.86380   1.86710   1.86933   1.87273
  Beta virt. eigenvalues --    1.87776   1.88205   1.88368   1.88966   1.89448
  Beta virt. eigenvalues --    1.89971   1.90870   1.91399   1.91595   1.91960
  Beta virt. eigenvalues --    1.92796   1.93336   1.93955   1.94188   1.94651
  Beta virt. eigenvalues --    1.95458   1.95579   1.95921   1.96680   1.96988
  Beta virt. eigenvalues --    1.97431   1.97544   1.98694   1.99190   1.99214
  Beta virt. eigenvalues --    1.99524   2.00163   2.00546   2.00781   2.01460
  Beta virt. eigenvalues --    2.01657   2.02004   2.02435   2.02819   2.03038
  Beta virt. eigenvalues --    2.03631   2.04501   2.05111   2.05836   2.06051
  Beta virt. eigenvalues --    2.06445   2.07029   2.07769   2.08514   2.09053
  Beta virt. eigenvalues --    2.09108   2.09626   2.09812   2.09856   2.10207
  Beta virt. eigenvalues --    2.11102   2.11539   2.11901   2.12507   2.12779
  Beta virt. eigenvalues --    2.13477   2.13755   2.14036   2.14542   2.15149
  Beta virt. eigenvalues --    2.15466   2.15890   2.16527   2.16820   2.17293
  Beta virt. eigenvalues --    2.18141   2.18421   2.18736   2.19250   2.19338
  Beta virt. eigenvalues --    2.19579   2.20191   2.20405   2.21319   2.21577
  Beta virt. eigenvalues --    2.21824   2.22211   2.22684   2.24009   2.24350
  Beta virt. eigenvalues --    2.24510   2.25434   2.25595   2.25789   2.26992
  Beta virt. eigenvalues --    2.27372   2.27820   2.28246   2.28733   2.28938
  Beta virt. eigenvalues --    2.29339   2.29729   2.30163   2.30945   2.31178
  Beta virt. eigenvalues --    2.31412   2.31840   2.32419   2.32595   2.33186
  Beta virt. eigenvalues --    2.33952   2.34125   2.34544   2.35303   2.35551
  Beta virt. eigenvalues --    2.35750   2.36138   2.36508   2.36921   2.37147
  Beta virt. eigenvalues --    2.37530   2.37754   2.38248   2.38891   2.39455
  Beta virt. eigenvalues --    2.39733   2.40134   2.40402   2.40730   2.41802
  Beta virt. eigenvalues --    2.42110   2.42641   2.42672   2.43472   2.44061
  Beta virt. eigenvalues --    2.44579   2.44712   2.45468   2.45765   2.46118
  Beta virt. eigenvalues --    2.46682   2.46877   2.47214   2.47581   2.47873
  Beta virt. eigenvalues --    2.48079   2.48852   2.49325   2.49728   2.50098
  Beta virt. eigenvalues --    2.51219   2.51287   2.51817   2.52409   2.52636
  Beta virt. eigenvalues --    2.53203   2.53329   2.53549   2.54273   2.54677
  Beta virt. eigenvalues --    2.54958   2.55675   2.55816   2.56376   2.56795
  Beta virt. eigenvalues --    2.56958   2.57531   2.57888   2.58112   2.58215
  Beta virt. eigenvalues --    2.58399   2.59309   2.59489   2.60240   2.60434
  Beta virt. eigenvalues --    2.60804   2.61130   2.61606   2.61849   2.62097
  Beta virt. eigenvalues --    2.62252   2.62598   2.63302   2.63445   2.64054
  Beta virt. eigenvalues --    2.65022   2.65249   2.65604   2.66148   2.66295
  Beta virt. eigenvalues --    2.66413   2.67120   2.67514   2.67860   2.68053
  Beta virt. eigenvalues --    2.68386   2.68998   2.69107   2.69771   2.70139
  Beta virt. eigenvalues --    2.70600   2.71097   2.71315   2.71522   2.72482
  Beta virt. eigenvalues --    2.72673   2.72951   2.73048   2.73402   2.74467
  Beta virt. eigenvalues --    2.74553   2.75129   2.75814   2.76318   2.76593
  Beta virt. eigenvalues --    2.77030   2.77871   2.78100   2.78421   2.78649
  Beta virt. eigenvalues --    2.79401   2.79547   2.80350   2.80794   2.80961
  Beta virt. eigenvalues --    2.81147   2.81797   2.82171   2.82671   2.83301
  Beta virt. eigenvalues --    2.83449   2.84007   2.84430   2.84919   2.85177
  Beta virt. eigenvalues --    2.85642   2.85882   2.86285   2.86537   2.87259
  Beta virt. eigenvalues --    2.87534   2.88072   2.88209   2.88623   2.89312
  Beta virt. eigenvalues --    2.89755   2.89850   2.90063   2.90440   2.90665
  Beta virt. eigenvalues --    2.91137   2.91716   2.92147   2.92561   2.92756
  Beta virt. eigenvalues --    2.93560   2.93996   2.94293   2.94523   2.94793
  Beta virt. eigenvalues --    2.95472   2.95544   2.95793   2.96278   2.96505
  Beta virt. eigenvalues --    2.97134   2.97318   2.97655   2.97678   2.98048
  Beta virt. eigenvalues --    2.98851   2.99239   2.99516   2.99811   3.00110
  Beta virt. eigenvalues --    3.00188   3.00572   3.01076   3.01680   3.02066
  Beta virt. eigenvalues --    3.02321   3.03173   3.03246   3.03708   3.04454
  Beta virt. eigenvalues --    3.04478   3.05054   3.05582   3.06006   3.06227
  Beta virt. eigenvalues --    3.06586   3.07150   3.07349   3.07778   3.08020
  Beta virt. eigenvalues --    3.08238   3.08620   3.08845   3.09270   3.09646
  Beta virt. eigenvalues --    3.09897   3.10021   3.10724   3.11007   3.11281
  Beta virt. eigenvalues --    3.11662   3.11895   3.12100   3.12359   3.13016
  Beta virt. eigenvalues --    3.13484   3.13636   3.14281   3.14487   3.14750
  Beta virt. eigenvalues --    3.14969   3.15117   3.15496   3.15969   3.16498
  Beta virt. eigenvalues --    3.16708   3.16977   3.17387   3.17866   3.18275
  Beta virt. eigenvalues --    3.18605   3.18710   3.18993   3.19406   3.20209
  Beta virt. eigenvalues --    3.20268   3.20498   3.20871   3.20981   3.21283
  Beta virt. eigenvalues --    3.21647   3.22086   3.22580   3.22680   3.22754
  Beta virt. eigenvalues --    3.23299   3.23329   3.23808   3.24284   3.24708
  Beta virt. eigenvalues --    3.24998   3.25241   3.25580   3.25671   3.26168
  Beta virt. eigenvalues --    3.26440   3.26561   3.26820   3.27019   3.27413
  Beta virt. eigenvalues --    3.27537   3.27906   3.28277   3.28640   3.28831
  Beta virt. eigenvalues --    3.28991   3.29675   3.29932   3.30078   3.30208
  Beta virt. eigenvalues --    3.30289   3.30797   3.30983   3.31255   3.31314
  Beta virt. eigenvalues --    3.31865   3.31970   3.32704   3.32972   3.33432
  Beta virt. eigenvalues --    3.33671   3.33783   3.34140   3.34504   3.34675
  Beta virt. eigenvalues --    3.35160   3.35543   3.35767   3.36128   3.36191
  Beta virt. eigenvalues --    3.36633   3.36740   3.36870   3.37126   3.37278
  Beta virt. eigenvalues --    3.37552   3.38274   3.38704   3.38947   3.39096
  Beta virt. eigenvalues --    3.39374   3.39418   3.39953   3.40051   3.40325
  Beta virt. eigenvalues --    3.40896   3.41102   3.41822   3.42269   3.42560
  Beta virt. eigenvalues --    3.42738   3.43345   3.43499   3.44162   3.44414
  Beta virt. eigenvalues --    3.44453   3.44752   3.45286   3.45672   3.46365
  Beta virt. eigenvalues --    3.46589   3.47213   3.47426   3.48033   3.48357
  Beta virt. eigenvalues --    3.48388   3.49120   3.49519   3.50195   3.50528
  Beta virt. eigenvalues --    3.51018   3.52195   3.52479   3.53267   3.53582
  Beta virt. eigenvalues --    3.53691   3.54396   3.54764   3.54946   3.55359
  Beta virt. eigenvalues --    3.55771   3.56004   3.56467   3.56726   3.57534
  Beta virt. eigenvalues --    3.57810   3.58525   3.58594   3.59208   3.59786
  Beta virt. eigenvalues --    3.59886   3.60543   3.61245   3.61446   3.62063
  Beta virt. eigenvalues --    3.62535   3.63157   3.63787   3.64229   3.64800
  Beta virt. eigenvalues --    3.65520   3.65765   3.66052   3.66335   3.66502
  Beta virt. eigenvalues --    3.67333   3.67935   3.68264   3.68415   3.69339
[...]
   144. CR (   1) C  73                  0.99957   -10.08889  1527(g),1409(v),1532(v)
                                                    1254(v),1297(v)
   145. CR (   1) C  74                  0.99966   -10.12202  149(r),1383(v),1523(v)
                                                    1377(v),1531(v),150(r)
                                                    168(r)
   146. CR (   1) N  76                  0.99970   -14.13194  149(r),150(r),153(r),1351(v)
                                                    1407(v),1528(v),168(r)
                                                    148(r)
   147. CR (   1) C  77                  0.99948   -10.05914  1324(v),1522(v),1527(g)
                                                    1383(v),149(r),150(r)
   163. LP (   1) N  76                  0.82669    -0.36103  149(r),150(r),153(r),1526(v)
                                                    1527(v),1351(v),1529(g)
                                                    1528(v),148(r),1532(v)
                                                    1407(v),1531(g),1384(g)
                                                    1382(g),170(r),1417(v)
                                                    273(r),221(r),192(r),195(r)
                                                    247(r),171(r),271(r),244(r)
                                                    1447(r),1440(r),1445(r)
                                                    219(r),180(r),1441(r),193(r)
                                                    1438(r),1446(r),1444(r)
                                                    245(r),220(r),1443(r),155(r)
                                                    1448(r),154(r),168(r)
                                                    1442(r),774(r),178(r),218(r)
                                                    712(r)
   164. LP (   1) C  77                  0.52955    -0.11262  1525(v),1530(v),1328(v)
                                                    1408(g),2(r),148(r)
  1252. RY*(   1) C  67                  0.00059     1.16350   
  1253. RY*(   2) C  67                  0.00039     2.01746   
  1254. RY*(   3) C  67                  0.00025     1.31259   
  1255. RY*(   4) C  67                  0.00006     1.29892   
  1256. RY*(   5) C  67                  0.00004     1.53405   
  1257. RY*(   6) C  67                  0.00000    21.59293   
  1258. RY*(   7) C  67                  0.00000     1.63248   
  1259. RY*(   8) C  67                  0.00000     1.78035   
  1260. RY*(   9) C  67                  0.00001     1.49921   
  1261. RY*(  10) C  67                  0.00000     2.32778   
  1262. RY*(  11) C  67                  0.00000     1.33251   
  1263. RY*(  12) C  67                  0.00000     3.23162   
  1264. RY*(  13) C  67                  0.00000     2.51207   
  1265. RY*(  14) C  67                  0.00000     2.80421   
  1266. RY*(  15) C  67                  0.00000     2.30171   
  1267. RY*(  16) C  67                  0.00001     2.86325   
  1268. RY*(  17) C  67                  0.00000     2.44602   
  1269. RY*(  18) C  67                  0.00001     2.61085   
  1270. RY*(  19) C  67                  0.00000     2.56645   
  1271. RY*(  20) C  67                  0.00000     3.51853   
  1272. RY*(  21) C  67                  0.00000     3.53232   
  1273. RY*(  22) C  67                  0.00000     3.32899   
  1274. RY*(  23) C  67                  0.00000     3.80794   
  1275. RY*(  24) C  67                  0.00000     3.34370   
  1276. RY*(  25) C  67                  0.00000     3.50407   
  1277. RY*(  26) C  67                  0.00000     3.24697   
  1278. RY*(   1) H  68                  0.00012     1.44569   
  1279. RY*(   2) H  68                  0.00006     1.72320   
  1280. RY*(   3) H  68                  0.00004     2.05435   
  1281. RY*(   4) H  68                  0.00000     2.93576   
  1282. RY*(   5) H  68                  0.00001     1.49754   
  1283. RY*(   1) H  69                  0.00037     1.01617   
  1284. RY*(   2) H  69                  0.00007     1.69134   
  1285. RY*(   3) H  69                  0.00004     1.88417   
  1286. RY*(   4) H  69                  0.00003     2.08278   
  1287. RY*(   5) H  69                  0.00000     2.88676   
  1288. RY*(   1) H  70                  0.00035     1.01004   
  1289. RY*(   2) H  70                  0.00007     1.68446   
  1290. RY*(   3) H  70                  0.00004     1.97643   
  1291. RY*(   4) H  70                  0.00003     2.00762   
  1292. RY*(   5) H  70                  0.00000     2.87949   
  1293. RY*(   1) N  71                  0.00133     0.69993   
  1294. RY*(   2) N  71                  0.00106     1.86790   
  1295. RY*(   3) N  71                  0.00045     2.15267   
  1296. RY*(   4) N  71                  0.00041     2.25574   
  1297. RY*(   5) N  71                  0.00026     1.15767   
  1298. RY*(   6) N  71                  0.00010     1.96974   
  1299. RY*(   7) N  71                  0.00005     2.42488   
  1300. RY*(   8) N  71                  0.00003     2.73654   
  1301. RY*(   9) N  71                  0.00003     3.66385   
  1302. RY*(  10) N  71                  0.00001     2.85967   
  1303. RY*(  11) N  71                  0.00000     3.86828   
  1304. RY*(  12) N  71                  0.00000     2.15322   
  1305. RY*(  13) N  71                  0.00000    30.58287   
  1306. RY*(  14) N  71                  0.00001     1.50976   
  1307. RY*(  15) N  71                  0.00001     4.36813   
  1308. RY*(  16) N  71                  0.00000     4.04651   
  1309. RY*(  17) N  71                  0.00000     4.32055   
  1310. RY*(  18) N  71                  0.00000     2.70397   
  1311. RY*(  19) N  71                  0.00001     4.04945   
  1312. RY*(  20) N  71                  0.00000     4.71551   
  1313. RY*(  21) N  71                  0.00000     4.69131   
  1314. RY*(  22) N  71                  0.00000     4.43141   
  1315. RY*(  23) N  71                  0.00000     4.46249   
  1316. RY*(  24) N  71                  0.00000     4.33260   
  1317. RY*(  25) N  71                  0.00000     4.47581   
  1318. RY*(  26) N  71                  0.00000     4.43198   
  1319. RY*(   1) H  72                  0.00029     2.17716   
  1320. RY*(   2) H  72                  0.00020     2.12357   
  1321. RY*(   3) H  72                  0.00010     2.72007   
  1322. RY*(   4) H  72                  0.00009     1.12309   
  1323. RY*(   5) H  72                  0.00000     3.09479   
  1324. RY*(   1) C  73                  0.00193     1.70154   
  1325. RY*(   2) C  73                  0.00173     1.25252   
  1326. RY*(   3) C  73                  0.00093     1.52878   
  1327. RY*(   4) C  73                  0.00080     2.13373   
  1328. RY*(   5) C  73                  0.00063     1.81340   
  1329. RY*(   6) C  73                  0.00039     1.70485   
  1330. RY*(   7) C  73                  0.00021     2.59856   
  1331. RY*(   8) C  73                  0.00009     3.01506   
  1332. RY*(   9) C  73                  0.00006     2.64098   
  1333. RY*(  10) C  73                  0.00003     3.39180   
  1334. RY*(  11) C  73                  0.00002     2.36848   
  1335. RY*(  12) C  73                  0.00000    21.59801   
  1336. RY*(  13) C  73                  0.00001     1.30444   
  1337. RY*(  14) C  73                  0.00000     1.63055   
  1338. RY*(  15) C  73                  0.00000     2.75865   
  1339. RY*(  16) C  73                  0.00000     1.95061   
  1340. RY*(  17) C  73                  0.00000     3.45374   
  1341. RY*(  18) C  73                  0.00000     1.14093   
  1342. RY*(  19) C  73                  0.00001     1.82386   
  1343. RY*(  20) C  73                  0.00000     4.10231   
  1344. RY*(  21) C  73                  0.00000     3.85030   
  1345. RY*(  22) C  73                  0.00000     3.56854   
  1346. RY*(  23) C  73                  0.00000     3.84343   
  1347. RY*(  24) C  73                  0.00000     3.39249   
  1348. RY*(  25) C  73                  0.00000     3.51945   
  1349. RY*(  26) C  73                  0.00000     3.51168   
  1350. RY*(   1) C  74                  0.00245     0.62963   
  1351. RY*(   2) C  74                  0.00220     1.54882   
  1352. RY*(   3) C  74                  0.00106     1.79919   
  1353. RY*(   4) C  74                  0.00072     1.74632   
  1354. RY*(   5) C  74                  0.00062     2.33007   
  1355. RY*(   6) C  74                  0.00035     1.79018   
  1356. RY*(   7) C  74                  0.00014     1.86317   
  1357. RY*(   8) C  74                  0.00013     2.05253   
  1358. RY*(   9) C  74                  0.00009     1.29090   
  1359. RY*(  10) C  74                  0.00007     1.71478   
  1360. RY*(  11) C  74                  0.00003     2.37585   
  1361. RY*(  12) C  74                  0.00004     2.78645   
  1362. RY*(  13) C  74                  0.00003     1.85403   
  1363. RY*(  14) C  74                  0.00002     3.58085   
  1364. RY*(  15) C  74                  0.00001     2.32736   
  1365. RY*(  16) C  74                  0.00001     1.47938   
  1366. RY*(  17) C  74                  0.00000     3.82639   
  1367. RY*(  18) C  74                  0.00000     3.22156   
  1368. RY*(  19) C  74                  0.00000    21.32639   
  1369. RY*(  20) C  74                  0.00001     3.98050   
  1370. RY*(  21) C  74                  0.00000     3.98977   
  1371. RY*(  22) C  74                  0.00000     3.53205   
  1372. RY*(  23) C  74                  0.00000     3.63707   
  1373. RY*(  24) C  74                  0.00000     3.52492   
  1374. RY*(  25) C  74                  0.00000     3.48323   
  1375. RY*(  26) C  74                  0.00000     3.36047   
  1376. RY*(   1) H  75                  0.00028     0.68874   
  1377. RY*(   2) H  75                  0.00017     2.41237   
  1378. RY*(   3) H  75                  0.00009     2.24042   
  1379. RY*(   4) H  75                  0.00002     2.60299   
  1380. RY*(   5) H  75                  0.00001     3.08680   
  1381. RY*(   1) N  76                  0.00441     0.86124   
  1382. RY*(   2) N  76                  0.00354     1.31570   
  1383. RY*(   3) N  76                  0.00133     1.04455   
  1384. RY*(   4) N  76                  0.00048     1.71098   
  1385. RY*(   5) N  76                  0.00046     1.68427   
  1386. RY*(   6) N  76                  0.00028     2.10829   
  1387. RY*(   7) N  76                  0.00025     2.98266   
  1388. RY*(   8) N  76                  0.00018     3.22666   
  1389. RY*(   9) N  76                  0.00010     2.53621   
  1390. RY*(  10) N  76                  0.00006     3.02824   
  1391. RY*(  11) N  76                  0.00005     2.69976   
  1392. RY*(  12) N  76                  0.00003     2.90872   
  1393. RY*(  13) N  76                  0.00003     3.08607   
  1394. RY*(  14) N  76                  0.00001     3.47672   
  1395. RY*(  15) N  76                  0.00000     4.52717   
  1396. RY*(  16) N  76                  0.00001     4.36284   
  1397. RY*(  17) N  76                  0.00000     4.88038   
  1398. RY*(  18) N  76                  0.00001     4.69116   
  1399. RY*(  19) N  76                  0.00000    31.42500   
  1400. RY*(  20) N  76                  0.00000     4.50505   
  1401. RY*(  21) N  76                  0.00001     4.74448   
  1402. RY*(  22) N  76                  0.00000     4.25622   
  1403. RY*(  23) N  76                  0.00000     4.68466   
  1404. RY*(  24) N  76                  0.00000     4.73895   
  1405. RY*(  25) N  76                  0.00000     4.67797   
  1406. RY*(  26) N  76                  0.00000     4.49424   
  1407. RY*(   1) C  77                  0.00203     1.41984   
  1408. RY*(   2) C  77                  0.00169     0.70216   
  1409. RY*(   3) C  77                  0.00084     1.71397   
  1410. RY*(   4) C  77                  0.00039     1.93746   
  1411. RY*(   5) C  77                  0.00031     1.61694   
  1412. RY*(   6) C  77                  0.00022     2.46831   
  1413. RY*(   7) C  77                  0.00016     1.91009   
  1414. RY*(   8) C  77                  0.00014     1.70418   
  1415. RY*(   9) C  77                  0.00011     1.59327   
  1416. RY*(  10) C  77                  0.00007     2.21130   
  1417. RY*(  11) C  77                  0.00005     1.47705   
  1418. RY*(  12) C  77                  0.00005     1.97666   
  1419. RY*(  13) C  77                  0.00003     1.97905   
  1420. RY*(  14) C  77                  0.00003     3.72893   
  1421. RY*(  15) C  77                  0.00002     3.34218   
  1422. RY*(  16) C  77                  0.00001     1.49357   
  1423. RY*(  17) C  77                  0.00000     3.91315   
  1424. RY*(  18) C  77                  0.00000     3.23835   
  1425. RY*(  19) C  77                  0.00000    21.17641   
  1426. RY*(  20) C  77                  0.00000     3.95318   
  1427. RY*(  21) C  77                  0.00000     3.99319   
  1428. RY*(  22) C  77                  0.00000     3.47002   
  1429. RY*(  23) C  77                  0.00000     3.52116   
  1430. RY*(  24) C  77                  0.00000     3.42117   
  1431. RY*(  25) C  77                  0.00000     3.45825   
  1432. RY*(  26) C  77                  0.00000     3.37987   
  1433. RY*(   1) H  78                  0.00026     0.90008   
  1434. RY*(   2) H  78                  0.00016     2.19236   
  1435. RY*(   3) H  78                  0.00012     2.28853   
  1436. RY*(   4) H  78                  0.00003     2.72622   
  1437. RY*(   5) H  78                  0.00000     3.15032   
  1519. BD*(   1) C  67 - H  68          0.00173     0.37264   
  1520. BD*(   1) C  67 - H  69          0.00614     0.35933   
  1521. BD*(   1) C  67 - H  70          0.00560     0.35886   
  1522. BD*(   1) C  67 - C  73          0.00684     0.38958   
  1523. BD*(   1) N  71 - H  72          0.00714     0.36787   
  1524. BD*(   1) N  71 - C  73          0.01352     0.42996   
  1525. BD*(   2) N  71 - C  73          0.38579    -0.04599  1530(v),1520(v),1521(v)
                                                    1293(g),1325(g),1330(g)
                                                    1253(v),169(r)
  1526. BD*(   1) N  71 - C  74          0.01141     0.44865   
  1527. BD*(   1) C  73 - C  77          0.01063     0.56645   
  1528. BD*(   1) C  74 - H  75          0.00881     0.38897   
  1529. BD*(   1) C  74 - N  76          0.00905     0.53581   
  1530. BD*(   2) C  74 - N  76          0.21337    -0.00290  1525(v),154(r),1350(g)
                                                    1408(v),2(r),152(r),1447(r)
                                                    148(r),1442(r)
  1531. BD*(   1) N  76 - C  77          0.00870     0.48297   
  1532. BD*(   1) C  77 - H  78          0.00711     0.42994   
       -------------------------------
              Total Lewis   21.11036  ( 96.6296%)
        Valence non-Lewis    0.69585  (  3.1851%)
        Rydberg non-Lewis    0.04048  (  0.1853%)
       -------------------------------
            Total unit  3   21.84669  (100.0000%)
           Charge unit  3    0.15331
 Unable to Open any file for archive entry.
 1\1\GINC-BGN1026\SP\UAPFD\def2TZVP\C34H36Fe1N6O1(5)\BECSLEIP\21-Nov-20
 24\0\\# apfd/def2TZVP guess=read scf=maxcycle=999 geom=check pop=nbo\\
 6y2y_II_Q\\0,5\Fe,0,11.4264708695,-2.0562318559,0.8742548522\N,0,12.00
 56504129,-0.3699378747,1.7900845599\N,0,9.7444387004,-2.0678657454,1.9
 646452803\N,0,10.7812700702,-3.6402466901,-0.1491677067\N,0,13.0284828
 278,-1.9265302836,-0.331866458\C,0,13.1432043255,0.3383045604,1.558834
 907\C,0,13.1699162035,1.5392350853,2.3629068617\C,0,12.016609957,1.542
 9945025,3.0849557626\C,0,11.3096403287,0.3339815086,2.7256941964\C,0,9
 .3977054996,-1.1907648555,2.9460799785\C,0,8.203654596,-1.6235044142,3
 .6247411454\C,0,7.8289106043,-2.8002625202,3.0301967108\C,0,8.80506976
 11,-3.047758511,1.9863938051\C,0,9.6435218497,-4.35015868,0.0831544935
 \C,0,9.4792895418,-5.3921397812,-0.8988724491\C,0,10.5503926801,-5.293
 3886676,-1.7471796787\C,0,11.3574008856,-4.1978482567,-1.2440611756\C,
 0,13.3896848673,-2.8282177603,-1.281166311\C,0,14.7636135381,-2.626984
 1185,-1.6867259156\C,0,15.2170761963,-1.5606147417,-0.9746821923\C,0,1
 4.1153417771,-1.1328698319,-0.1410330899\C,0,14.1628763671,-0.04162838
 6,0.7051649077\H,0,15.0569185368,0.5632091089,0.6946795486\C,0,10.0976
 468424,-0.040325363,3.2722118448\H,0,9.6843393339,0.5952100339,4.04084
 05491\C,0,8.7554068275,-4.1217593762,1.1196267114\H,0,7.9402829335,-4.
 8196853756,1.2354122189\C,0,12.5775308557,-3.8303817577,-1.7810462547\
 H,0,12.961027056,-4.4187156224,-2.6011365321\C,0,11.5206653647,2.54805
 07687,4.0678620003\H,0,12.2119235471,3.3833255336,4.1488719545\H,0,11.
 409809022,2.0988726088,5.0554239964\H,0,10.5483108532,2.935829482,3.76
 31974401\C,0,14.271488009,2.5426873442,2.338400865\H,0,14.4088504969,2
 .9368392871,1.3313671843\H,0,15.2112050213,2.0878859144,2.653\H,0,14.0
 543227181,3.3735900984,3.0052444005\C,0,7.5045339537,-0.8690200946,4.7
 016119581\H,0,7.5607825614,0.2034275581,4.5215689718\H,0,7.9530884716,
 -1.0707130039,5.6760772339\H,0,6.4567597937,-1.1603040234,4.7406266954
 \C,0,6.6938813081,-3.6468662823,3.319526086\H,0,6.2697069821,-4.169107
 0765,2.4698522396\C,0,6.1538613274,-3.8333562585,4.5200135589\H,0,6.55
 94111871,-3.3817447771,5.4084236634\H,0,5.2968177469,-4.4714155311,4.6
 587610414\C,0,8.3104224943,-6.3103227392,-0.988642469\H,0,7.3921067376
 ,-5.7945429359,-0.7128721352\H,0,8.4334380746,-7.1625758597,-0.3181376
 08\H,0,8.2072109151,-6.6855531672,-2.0049248046\C,0,10.8628283329,-6.0
 707804188,-2.9256332522\H,0,11.3753061499,-5.5342597767,-3.7160835247\
 C,0,10.5812459932,-7.3582385286,-3.100012141\H,0,10.1181055177,-7.9527
 284542,-2.3321561405\H,0,10.8313441961,-7.8706726309,-4.0143220592\C,0
 ,15.4736408534,-3.4619539654,-2.6966359643\H,0,14.9796307422,-3.393768
 5605,-3.6663002919\H,0,15.4781374952,-4.5094319229,-2.3940918848\H,0,1
 6.5036751417,-3.1343353025,-2.8148698216\C,0,16.5608192811,-0.91650770
 04,-0.9892036348\H,0,17.2359274745,-1.4437501799,-1.6587674784\H,0,16.
 9971137518,-0.9164967591,0.0097983373\H,0,16.4859122524,0.118374629,-1
 .3245608777\O,0,10.349,-0.664,-0.565\H,0,10.528,0.221,-0.247\H,0,9.846
 ,-0.879,-1.266\C,0,14.6559589725,-5.8495702395,3.3735777098\H,0,15.020
 5255848,-6.2629456931,2.4383613439\H,0,14.1546917471,-6.6405881115,3.9
 318619582\H,0,15.5074666883,-5.5054383013,3.9603462645\N,0,13.16874385
 16,-3.9643500823,4.084187802\H,0,13.3278062823,-4.0771941441,5.0718730
 482\C,0,13.7230146933,-4.729425594,3.0915794352\C,0,12.3747881875,-3.0
 413138516,3.495146014\H,0,11.8115066435,-2.3037421412,4.0286954556\N,0
 ,12.3925249105,-3.1759884891,2.190892624\C,0,13.2261675727,-4.22277469
 46,1.9248534232\H,0,13.4112480309,-4.5370611059,0.9183951032\\Version=
 ES64L-G16RevC.02\State=5-A\HF=-2984.0121824\S2=6.16071\S2-1=0.\S2A=6.0
 00668\RMSD=1.521e-09\Dipole=1.0380603,-0.1422923,1.2614059\Quadrupole=
 -3.9966179,-1.1804628,5.1770807,-4.0034981,5.1911039,-4.127266\PG=C01 
 [X(C34H36Fe1N6O1)]\\@
 The archive entry for this job was punched.


 ABOVE ALL I AM AN OPTIMIST FOR NUMBER THEORY,
 AND I HOLD THE HOPE THAT WE MAY NOT BE FAR FROM
 A TIME WHEN IRREFUTABLE ARITHMETIC WILL CELEBRATE
 ITS TRIUMPHS IN PHYSICS AND CHEMISTRY.
   -- HERMANN MINKOWSKI, 1905
 Job cpu time:       0 days 23 hours 37 minutes 51.1 seconds.
 Elapsed time:       0 days  0 hours 21 minutes 51.5 seconds.
 File lengths (MBytes):  RWF=   2166 Int=      0 D2E=      0 Chk=    197 Scr=      1
 Normal termination of Gaussian 16 at Thu Nov 21 16:26:08 2024.
