78
 energy: -116.058071087846 gnorm: 0.000058513500 xtb: 6.7.1 (edcfbbe)
Fe          32.68024767049243        9.52485531989437       15.40952634322206
N           34.03863179008330       10.86425628373465       15.98356586232106
N           31.40134914176017       10.98675738960924       14.96080338241345
N           31.29628371455831        8.15166034540362       14.89893988904189
N           33.94643876975849        8.03935565082056       15.90614677308596
C           35.27688522748271       10.61951366703293       16.48615417556541
C           35.96102092069819       11.85787594616137       16.79182760017205
C           35.10484936779707       12.85796301563130       16.45499581502967
C           33.90950492284927       12.21614018625218       15.95024893713284
C           31.63347267314784       12.32290492825148       15.04403692027576
C           30.47917155764572       13.07375920767993       14.61750189068166
C           29.52526915210332       12.15270019843107       14.27765954721112
C           30.13401177666072       10.85234949903023       14.49253251497543
C           30.03780634566612        8.39792095505889       14.43739204433062
C           29.34543531058506        7.16782049104214       14.15662526499730
C           30.22182832842721        6.15625868439933       14.45252932877413
C           31.43946630669049        6.80038493838457       14.90233432613190
C           33.73546354383986        6.70188425501079       15.76600057447071
C           34.90280294712196        5.95544761399327       16.17665845264905
C           35.82780231844859        6.87482013907417       16.56562124750783
C           35.21321523478872        8.16991566039193       16.38644475074226
C           35.83808608745342        9.36961945274874       16.67323559859846
H           36.84144826444332        9.32629660917092       17.06885774045671
C           32.80106900833623       12.90550760684977       15.50404138172585
H           32.84115111936669       13.98354454253655       15.53622987120216
C           29.48510837159005        9.65514374151132       14.26079732811278
H           28.46497621731399        9.70067993233135       13.91134465943001
C           32.56983146783008        6.11606502906800       15.30983884216382
H           32.54299127432783        5.03819169112455       15.26756144960405
C           35.28601725698085       14.33316561481525       16.56168675442369
H           36.26372411189230       14.57502486005516       16.97132947876112
H           34.52516983645950       14.76454850901588       17.21218355072083
H           35.19863859194488       14.80268249703664       15.58151299976165
C           37.33407007251034       11.94099215310585       17.36609716151867
H           38.05967115109473       11.47111391370047       16.70118696762496
H           37.37793843228454       11.43049730609011       18.32832967288272
H           37.62834396392351       12.97688354116376       17.51514982434148
C           30.41122358608663       14.55757523100859       14.51784520998283
H           31.35846573000753       14.96349901126654       14.16585663229020
H           30.19338366574117       15.00260665303023       15.48998979817381
H           29.62664679197869       14.84984520558542       13.82274076259311
C           28.18732567672792       12.36484204483363       13.77160562938335
H           27.82761784955764       11.62170777016700       13.06889197375204
C           27.38785692465801       13.37341738731491       14.10372373233069
H           27.67136765633517       14.11273265703172       14.83204037563987
H           26.40461229074091       13.47748688737082       13.67549660567512
C           27.97361180382752        7.06637140778065       13.58691117543598
H           27.80656939032016        7.84349287642075       12.84246471869192
H           27.21824214726735        7.17933865992724       14.36645628964127
H           27.83684908304382        6.09613241389505       13.11378647704310
C           30.03953821988532        4.72624961506366       14.33722450170170
H           30.92401965932839        4.16193627483182       14.06476942970278
C           28.89969012496239        4.07527269920607       14.54561237855576
H           28.00288198709676        4.57729527066047       14.86440085298990
H           28.83184080294219        3.00635798343664       14.42870452353125
C           35.00270249422557        4.46876921085723       16.15074281081217
H           34.86378395889319        4.09334998692054       15.13656995073316
H           34.23633638952669        4.02092229033377       16.78392742447715
H           35.97581448640140        4.13986223841442       16.50714456969371
C           37.20993769755870        6.66448857036063       17.08248768981251
H           37.44782097139358        5.60474952414351       17.13087100435739
H           37.31315648085170        7.08504232317421       18.08307978504752
H           37.94090425341926        7.15074593715924       16.43572197521501
O           31.85664575762051        9.35152648877095       17.54236510185605
H           31.06488033972626        8.82661715917700       17.38194300476192
H           32.51671338184958        8.76024918849087       17.92032588743269
C           33.27134831558304        9.50429705985904        9.86714561892085
H           33.65275965569963        8.59143475055641        9.40967060646948
H           33.75871990370176       10.35418299139906        9.38965250984444
H           32.20364237945604        9.56594021374746        9.68189190476695
N           34.78472983054981        9.45599116511242       11.86199680417398
H           35.64298141114877        9.41506245483251       11.33729986879783
C           33.52267782238685        9.50573960061717       11.33045864126272
C           34.66322224970739        9.47053828215479       13.20860754249146
H           35.49070235445978        9.43985557585130       13.88703716449190
N           33.40190330149125        9.52620379128998       13.56155111410437
C           32.68038546309457        9.54928953761768       12.40420346908978
H           31.61129546236735        9.59448023474845       12.42085556219727
