78
 energy: -115.965253669926 gnorm: 0.301612336033 xtb: 6.7.1 (edcfbbe)
Fe          32.68700000000000        9.49200000000000       15.31600000000000
N           34.04900000000000       10.83600000000000       15.96400000000000
N           31.42800000000000       10.98300000000000       14.91700000000000
N           31.30900000000000        8.13000000000000       14.70100000000000
N           33.93800000000000        7.98500000000000       15.75900000000000
C           35.36600000000000       10.59300000000000       16.38700000000000
C           36.00700000000000       11.86500000000000       16.69500000000000
C           35.13000000000000       12.82400000000000       16.49500000000000
C           33.88000000000000       12.19400000000000       16.06000000000000
C           31.58800000000000       12.35200000000000       15.13900000000000
C           30.42200000000000       13.12600000000000       14.76000000000000
C           29.48300000000000       12.21300000000000       14.37500000000000
C           30.09300000000000       10.90300000000000       14.47200000000000
C           30.00300000000000        8.39100000000000       14.33700000000000
C           29.25800000000000        7.12800000000000       14.22200000000000
C           30.08200000000000        6.13900000000000       14.45200000000000
C           31.40300000000000        6.76500000000000       14.79400000000000
C           33.70700000000000        6.65300000000000       15.68000000000000
C           34.86600000000000        5.90000000000000       16.17000000000000
C           35.76100000000000        6.79800000000000       16.53800000000000
C           35.22799999999999        8.11900000000000       16.29200000000000
C           35.87900000000000        9.30700000000000       16.51800000000000
H           36.91800000000000        9.23300000000000       16.83700000000000
C           32.74700000000000       12.90400000000000       15.66700000000000
H           32.77300000000000       13.98700000000000       15.78400000000000
C           29.55399999999999        9.69100000000000       14.14800000000000
H           28.59000000000000        9.75600000000000       13.64700000000000
C           32.53400000000000        6.09700000000000       15.18200000000000
H           32.51200000000000        5.01100000000000       15.09000000000000
C           35.32500000000000       14.34800000000000       16.63100000000000
H           36.37000000000000       14.56200000000000       16.94100000000000
H           34.63200000000000       14.74800000000000       17.40200000000000
H           35.13100000000000       14.84000000000000       15.65400000000000
C           37.48000000000000       12.03400000000000       17.11600000000000
H           38.08100000000000       12.35800000000000       16.24000000000000
H           37.87799999999999       11.06600000000000       17.48800000000000
H           37.55700000000000       12.80600000000000       17.91100000000000
C           30.27100000000000       14.66400000000000       14.85800000000000
H           31.22300000000000       15.15000000000000       14.55500000000000
H           30.03600000000000       14.95200000000000       15.90500000000000
H           29.46000000000000       15.00600000000000       14.17900000000000
C           28.05300000000000       12.44000000000000       13.82200000000000
H           27.68100000000000       11.84900000000000       12.97200000000000
C           27.21300000000000       13.39500000000000       14.38900000000000
H           27.55400000000000       14.00300000000000       15.24000000000000
H           26.19900000000000       13.55200000000000       13.99300000000000
C           27.78600000000000        7.11000000000000       13.75000000000000
H           27.73900000000000        7.37000000000000       12.67100000000000
H           27.19800000000000        7.85600000000000       14.32600000000000
H           27.35800000000000        6.09500000000000       13.89500000000000
C           29.92400000000000        4.61200000000000       14.48100000000000
H           30.85500000000000        4.03000000000000       14.47500000000000
C           28.84000000000000        3.88400000000000       14.51200000000000
H           27.84800000000000        4.36000000000000       14.52100000000000
H           28.90500000000000        2.78600000000000       14.53000000000000
C           34.91499999999999        4.37400000000000       16.27100000000000
H           34.76600000000000        3.93100000000000       15.26300000000000
H           34.10700000000000        4.01600000000000       16.94500000000000
H           35.90500000000000        4.05500000000000       16.66200000000000
C           37.19000000000000        6.62400000000000       17.19500000000000
H           37.40300000000000        5.54300000000000       17.33900000000000
H           37.21300000000000        7.13000000000000       18.18400000000000
H           37.96500000000000        7.05900000000000       16.52800000000000
O           31.71900000000000        9.22700000000000       17.27700000000000
H           30.92500000000000        8.71900000000000       17.11300000000000
H           31.99800000000000        9.52600000000000       18.06700000000000
C           33.87500000000000        8.83900000000000        9.73700000000000
H           34.80599999999999        8.26100000000000        9.55600000000000
H           33.83200000000000        9.68600000000000        9.02000000000000
H           33.00100000000000        8.17000000000000        9.58800000000000
N           34.80300000000000       10.20500000000000       11.68700000000000
H           35.58899999999999       10.56000000000000       11.18000000000000
C           33.87700000000000        9.37600000000000       11.17300000000000
C           34.50000000000000       10.47700000000000       12.98800000000000
H           35.05200000000000       11.16600000000000       13.62600000000000
N           33.45100000000000        9.77000000000000       13.30400000000000
C           33.02000000000000        9.02300000000000       12.19700000000000
H           32.18000000000000        8.34200000000000       12.24600000000000
78
 energy: -116.023102755565 gnorm: 0.123341552844 xtb: 6.7.1 (edcfbbe)
Fe          32.68496631711034        9.50585370268148       15.29571595664654
N           34.04980922413542       10.84479573571977       15.98192560164998
N           31.39528872149893       11.00574247370708       14.94170576841072
N           31.29232370970216        8.12115569644584       14.72830021109459
N           33.94673623719137        7.99217184570177       15.76187475510539
C           35.35186054766921       10.59551632355868       16.38595939975281
C           36.01744385848804       11.85223824589113       16.69071065739200
C           35.11839076318066       12.83650785114387       16.48993571618099
C           33.88478339180075       12.19930010426617       16.04388998444483
C           31.58520617230477       12.35485797804985       15.14108904222842
C           30.40988914504827       13.11953630140115       14.76755378409356
C           29.47190344116410       12.20804499793230       14.35189686202104
C           30.10060269093516       10.90028489256348       14.44938189327788
C           30.00554590978620        8.39059377942976       14.33631966660591
C           29.25565759132786        7.14220803918972       14.19507151250055
C           30.10533295552315        6.12293864499611       14.45601919688749
C           31.40197493853876        6.76134189095544       14.79596883552949
C           33.71489479949037        6.65768597007516       15.67248359015874
C           34.86167043407902        5.89782246983977       16.17222729076547
C           35.78043060609482        6.81179427568270       16.54817509807368
C           35.22311146308643        8.12383513564846       16.28405009922198
C           35.87545916500994        9.31668395492667       16.51364565359773
H           36.90784750814603        9.24021853977561       16.84189644171434
C           32.74955636835799       12.90326269770152       15.66109679830350
H           32.77555797531832       13.97990101696022       15.78406459762026
C           29.53397637456906        9.68280661045304       14.13291396015462
H           28.55793019305903        9.74699782736590       13.66307996436057
C           32.54289856760805        6.09122710722006       15.18130264003737
H           32.51878237776977        5.01023490052297       15.10694040413221
C           35.31952898425515       14.33109654365464       16.63101304832105
H           36.34836419410268       14.55288337096214       16.93491925417147
H           34.63931356778403       14.74145199571329       17.38584064992025
H           35.13009420376325       14.83048377841978       15.67384009006338
C           37.46455825324742       12.02276394837418       17.11050547827555
H           38.06952563425410       12.34867162123554       16.25472817787055
H           37.87360523883310       11.08085896982250       17.48505892062932
H           37.55173506762079       12.78372298424129       17.89511963067802
C           30.27753446044469       14.63232954890899       14.85560781472012
H           31.20876207817491       15.13123136657907       14.56116288259923
H           30.04081398222967       14.93914545938948       15.88279776362116
H           29.47749394499904       14.98554083658580       14.19434305362650
C           28.07412810658283       12.45579079941581       13.85324406616344
H           27.71468277459974       11.85970410203388       13.01211782394422
C           27.24585098744973       13.37474688442487       14.38145394587170
H           27.55034447109457       13.98225453119148       15.22545867985928
H           26.24080373132339       13.53497769525048       13.99490220476258
C           27.80397521963040        7.11605907393587       13.75318782075126
H           27.74162456353950        7.36922594431866       12.68845949850428
H           27.21173724947029        7.84442174572007       14.31757502241106
H           27.36687556469820        6.12410825554619       13.89136515944944
C           29.93973862493523        4.63796252931762       14.47977831036766
H           30.86756358817634        4.06842878855323       14.47416427154867
C           28.83788740626420        3.90166124076707       14.50955875172822
H           27.84961077568131        4.34383703238057       14.52847554035417
H           28.89485700556162        2.81609606189931       14.52888503284790
C           34.91262272248773        4.39159745093904       16.26573396477810
H           34.76747023685166        3.93876844558702       15.27767683162012
H           34.12270883362017        4.02379776518874       16.93189010262134
H           35.88250984042512        4.06334258161549       16.65497182521099
C           37.16483587120989        6.62199339615656       17.18181453375480
H           37.39091276961151        5.56130894321696       17.33169501590940
H           37.20354584571337        7.12113112127419       18.15698557278257
H           37.94099240373787        7.05104697915135       16.53767716083762
O           31.71865535401463        9.22495147421364       17.25808083881965
H           30.91851436622528        8.71755005538428       17.12994540374601
H           31.99829123592660        9.53168486408544       18.10086322287418
C           33.88180327887690        8.84283693253981        9.74993965657760
H           34.79523072313560        8.26957486394759        9.55540874258031
H           33.83231033088948        9.67181293775890        9.03405066115737
H           33.01981256934328        8.18810832620337        9.59656087319140
N           34.79804589293271       10.21269089718924       11.67184807918215
H           35.58706853008149       10.57550824851016       11.16553982347641
C           33.87878783600521        9.35109813569228       11.16849116900610
C           34.49329262587536       10.45355594348356       12.97633564208198
H           35.03750611774836       11.13815576986994       13.60802043834249
N           33.44897915185295        9.74643209660724       13.31443669865761
C           33.03386644652213        9.03842446979285       12.20329229277695
H           32.19539589020260        8.36961418314471       12.25098317499165
78
 energy: -116.040603169177 gnorm: 0.030929709714 xtb: 6.7.1 (edcfbbe)
Fe          32.68350974462977        9.51292743305463       15.28363575731162
N           34.05150285209683       10.85253527858408       15.97961727989959
N           31.37558872434997       11.01819847587430       14.93259907766170
N           31.28525067418956        8.11694427314558       14.73484312427435
N           33.96043400526582        7.99976462868922       15.75165153156454
C           35.33240560924911       10.59925664600145       16.38213305399047
C           36.01718631254009       11.84216064256680       16.68400787382616
C           35.10915904146776       12.84076009640190       16.47837315773971
C           33.88726552418067       12.20151334557097       16.02921955040727
C           31.57903352308987       12.34704460835574       15.14595984590926
C           30.40186499714526       13.10803263559786       14.77716065205832
C           29.47008274016902       12.19785354525991       14.33713314501462
C           30.10914377190846       10.88996293063122       14.43798281523507
C           30.01088860444028        8.39032493490390       14.33521816074664
C           29.26066951301422        7.15716688876898       14.17576070556358
C           30.12417622270825        6.12237956504525       14.46018388182742
C           31.39926214965585        6.76370058676346       14.80038690220070
C           33.72063287653612        6.66549006970584       15.66380368195775
C           34.85735673292839        5.90499834495136       16.16674959332240
C           35.79030300276821        6.82456765859757       16.54792233040100
C           35.21605434604876        8.12946317173013       16.27246126286178
C           35.86875006351305        9.32683792066170       16.51248176450628
H           36.89430328429081        9.25165295216526       16.85120970936341
C           32.74561670820087       12.89734312818644       15.66048584925337
H           32.77370870412528       13.97095882862592       15.77991256710699
C           29.51027987781696        9.67474009833755       14.13077724350216
H           28.52182910154549        9.73848557100963       13.69304188755608
C           32.54820639415203        6.09089946279671       15.18781796827066
H           32.52518797434138        5.01253653205801       15.13410287581346
C           35.31282520955745       14.31230601262280       16.62775845314875
H           36.33272064279515       14.53363875632923       16.93164260931808
H           34.63752208174071       14.72771605046332       17.37408934681273
H           35.12513068245939       14.82154413443175       15.68330741024597
C           37.44354393351354       12.00920548970262       17.10463545285234
H           38.05410944057692       12.33552182165434       16.26082112990002
H           37.86010454806913       11.08168001401005       17.48246940247815
H           37.53323203600443       12.76452944615314       17.88401375320879
C           30.27953430551138       14.59771383078749       14.85528605258828
H           31.20491590780362       15.09186999866846       14.56319436920525
H           30.04445900874508       14.91657542253775       15.87237093141619
H           29.48574853840321       14.95349015509151       14.20110523210667
C           28.11172392398992       12.45652769378262       13.87207380255472
H           27.76214184714788       11.84552667747875       13.04436414495169
C           27.28467735684918       13.35653764820618       14.37922360855027
H           27.55486866844129       13.96887075223047       15.22256938515782
H           26.28747221254893       13.51491928560850       13.99438113510124
C           27.82842685348538        7.12211460353095       13.75076931188992
H           27.74730963762608        7.37685327425952       12.69386911941653
H           27.23701810947983        7.84020894190153       14.31533963022735
H           27.39084644176527        6.14090745432325       13.88978795647107
C           29.95206242144729        4.67925162545629       14.47425903432356
H           30.87959340191584        4.11890260118164       14.47082795207464
C           28.84275515401930        3.93868398521426       14.50844178131106
H           27.85146535840777        4.34994838862186       14.53530202266105
H           28.89793293128098        2.86099912873348       14.52421157016136
C           34.91033157065110        4.41462484382363       16.26016176563460
H           34.76649736891315        3.95658391851604       15.28249970695844
H           34.12926222095869        4.04074087417264       16.92193620589744
H           35.86945795403151        4.08231268372672       16.64950404527771
C           37.13501536010497        6.62454813371744       17.16646413956679
H           37.35905499796206        5.57189264216969       17.31491598001552
H           37.18674999422106        7.11775623485604       18.13688570343059
H           37.91647160805719        7.04805260458160       16.53617221165185
O           31.72464291503712        9.23314426908060       17.25402184962468
H           30.91718971062169        8.72188778234877       17.17549090455346
H           31.98828557715094        9.52973056144084       18.12480335891990
C           33.88532508434382        8.84421650507780        9.76357241252106
H           34.79176849293919        8.27730743127962        9.55805264585698
H           33.83319791657595        9.66944396311978        9.05511065306570
H           33.03040145595840        8.19673770827788        9.60359620219476
N           34.79021423498907       10.21927672111073       11.66283080678147
H           35.57643753729471       10.59350275520691       11.15589946901295
C           33.87560237693074        9.32989077406750       11.16844737208406
C           34.49007264905450       10.43258409322538       12.96834855015019
H           35.03264797547701       11.10990829014237       13.59575651682324
N           33.44814739607244        9.72678997836971       13.32738529344720
C           33.04934877838129        9.04040184337533       12.21784220192246
H           32.20608309432035        8.38412194128955       12.25855415732894
78
 energy: -116.044494542738 gnorm: 0.021022543432 xtb: 6.7.1 (edcfbbe)
Fe          32.68392752010850        9.51216927729558       15.28567050797578
N           34.04504057841003       10.85331100355486       15.97321707491161
N           31.37269422916608       11.00890101711403       14.93407986994170
N           31.28813542327510        8.12575353544191       14.73552560381774
N           33.96443682856685        8.00988158536935       15.73976528137653
C           35.32028919338443       10.60047995092967       16.37347508789398
C           36.00793789671394       11.83754605512250       16.67715956791212
C           35.10279799049924       12.83822187133769       16.46561313935887
C           33.88505061829419       12.20132248329915       16.01557896708248
C           31.57954859194584       12.33456586739362       15.14496483357743
C           30.40314913523362       13.09244448013964       14.78472537096251
C           29.47816204617556       12.18342160242464       14.33884986776242
C           30.11795048177985       10.87829231685635       14.43142501440549
C           30.01726338422707        8.39639481564382       14.33049310691100
C           29.26972836968720        7.17206683033088       14.16508663887962
C           30.13591767796234        6.13753591876544       14.45438928896575
C           31.40240178372319        6.77506180081203       14.80000290212348
C           33.72009909775711        6.67702516194415       15.65518730738852
C           34.85190627765538        5.91887128037602       16.15651084989119
C           35.78598977694126        6.83616209236954       16.53748348870834
C           35.21255051824651        8.13859033642959       16.25933901601325
C           35.86464212380369        9.33405895903511       16.50824984311370
H           36.88331044562344        9.26311166042994       16.86427926611433
C           32.74292775604134       12.89297436254821       15.65147424674952
H           32.76656901579391       13.96605893999707       15.77222566261375
C           29.50040536471919        9.67269225222218       14.13100066042872
H           28.49233976139983        9.73397265591920       13.73466628321284
C           32.54889997399940        6.09958708767611       15.19242414914035
H           32.52281185938661        5.01961003042065       15.16708785648655
C           35.30438648557452       14.30548515277142       16.62231778443956
H           36.32371291274599       14.52046630213341       16.93183624184091
H           34.62470051497985       14.71552432678031       17.36856168418020
H           35.11845015983062       14.82179859461095       15.68068602703211
C           37.42891911394887       11.99549619098611       17.10352103766057
H           38.04451960328028       12.31912018235204       16.26187068484633
H           37.84096553202609       11.06636641342603       17.48413085495979
H           37.51372896335826       12.75008396675819       17.88391091338875
C           30.28133331303276       14.57484248228122       14.85699111974495
H           31.21066801677533       15.05803400628321       14.56020862699425
H           30.04822184937388       14.89685260666371       15.87334097995429
H           29.48591145755753       14.92206460883409       14.20098699302819
C           28.13090887760154       12.43387693476113       13.87825104206615
H           27.78883993040790       11.81348715522056       13.05616599148557
C           27.30367027894589       13.34473491721975       14.37738766044776
H           27.56562802128598       13.95964156189648       15.22185506413366
H           26.31286836502769       13.49964961120217       13.98201246473381
C           27.84232143946342        7.13552033495277       13.74131310967559
H           27.75377871559521        7.39840151701581       12.68625708007251
H           27.25323468256942        7.84858523884777       14.31598292876821
H           27.41125293209041        6.15158408641445       13.87748834144491
C           29.96271314414997        4.70531323483409       14.46484993365577
H           30.89317839220199        4.14985516743082       14.45638103555209
C           28.85138994218085        3.96917378428896       14.50555645965788
H           27.85714017105879        4.37407844054882       14.55188303602591
H           28.90652236740397        2.89299844602669       14.51580407693571
C           34.90588767904790        4.43229567942555       16.25091420602270
H           34.76268445686675        3.97430182151887       15.27287225287630
H           34.12446844073496        4.05973173215046       16.91342650357705
H           35.86516530058733        4.10321191436357       16.64235683329582
C           37.12374075755310        6.62670876975757       17.15478958088590
H           37.33238492711261        5.56977125737025       17.29736772807184
H           37.17614108965002        7.11703136682530       18.12720946315544
H           37.90936372855043        7.04719210555796       16.52647060693858
O           31.72822877258635        9.25356963860306       17.27306206243659
H           30.92441692784441        8.72682566662331       17.23558352748795
H           31.99077637694477        9.53368542462543       18.15176881223917
C           33.88315577903465        8.84372082098413        9.77061005131213
H           34.79277451420091        8.28251503923098        9.55902774392207
H           33.82967710535122        9.67773709778741        9.07237271257377
H           33.03032290926687        8.19467916754033        9.60318225858740
N           34.78384865012814       10.21741336243795       11.66541124686722
H           35.55785216387158       10.60865023917673       11.15177984520532
C           33.87071779802584        9.31898812929902       11.17601154400606
C           34.49712638156892       10.41559292722709       12.97342390675810
H           35.04405255894372       11.08775509284195       13.60026553528671
N           33.46108655254779        9.70397747177565       13.34267677061841
C           33.05591440525775        9.02642964527646       12.23245492211014
H           32.20836382133647        8.37509513386042       12.26845995931996
78
 energy: -116.046750112167 gnorm: 0.016029169453 xtb: 6.7.1 (edcfbbe)
Fe          32.68676572296692        9.51088810934270       15.28767702182396
N           34.03804028343528       10.85157453151915       15.96055007504932
N           31.38092653284480       10.99418884793656       14.92566140755455
N           31.29418190987945        8.14037561629975       14.74032321726821
N           33.96158526104261        8.02439350817841       15.73534113688279
C           35.30937982662095       10.60076206996486       16.36681019740144
C           35.99770413008279       11.83481104382791       16.67012027890088
C           35.09772182340173       12.83510147439771       16.45098967084929
C           33.88232477898950       12.19995753113278       16.00149340667369
C           31.58195532275839       12.31960766361829       15.14301650530388
C           30.40657108622602       13.07507292525782       14.79055432141542
C           29.48678013433183       12.16761562435751       14.34099486280959
C           30.12604929382493       10.86589118680651       14.43298764150458
C           30.02337467038716        8.40485219613217       14.33286395824659
C           29.28008813544015        7.18634363879808       14.15616893763156
C           30.14633027068220        6.15481560416027       14.44682785695125
C           31.40592681256785        6.79032673852182       14.80135768730559
C           33.71590951086343        6.69188411994854       15.65092727469693
C           34.84610268898762        5.93488757876004       16.14555787623854
C           35.78029791785400        6.84811308085098       16.52403228751631
C           35.20870025335535        8.14943358031102       16.25037128240569
C           35.86114016014541        9.34050901733075       16.50849423511163
H           36.87437209157439        9.27397813252712       16.87621197005701
C           32.73967856525880       12.88848893870835       15.64328215385144
H           32.75750481584505       13.96159643644603       15.76291568757226
C           29.49005738396135        9.67226276009357       14.14357451484799
H           28.47412730095292        9.73109279940425       13.77446590659282
C           32.54597600918337        6.11159595636947       15.20177436616120
H           32.51795701026288        5.03133261244574       15.20178584633102
C           35.29466528159937       14.30228134889659       16.61523119875557
H           36.31262684681010       14.51529122448633       16.93207942427177
H           34.60834350227204       14.70406449281993       17.36146210240023
H           35.11108631142243       14.82482105230138       15.67579838145669
C           37.41605543897199       11.98236268895808       17.10565997203503
H           38.04029660509300       12.29901156354864       16.26697177386223
H           37.81682841021377       11.04866707223696       17.49006920590039
H           37.49864629819130       12.73636223030403       17.88732119761222
C           30.28463836784081       14.55557040588981       14.85794205408043
H           31.21580222039739       15.03248987194462       14.55559294460180
H           30.05401257231530       14.88163808642680       15.87366043502997
H           29.48669155660131       14.89525105940179       14.20071477755363
C           28.14247431610419       12.41029364059099       13.87567714673851
H           27.80053140757136       11.77606134533362       13.06548976407610
C           27.31812850715172       13.32985743834970       14.36967492778551
H           27.58342942397583       13.94872340799665       15.20929913105293
H           26.32928800681066       13.47535673240667       13.96913351278422
C           27.85512145379969        7.15279676927716       13.72576575138820
H           27.76582327573971        7.43421987827843       12.67486841128778
H           27.26454797699775        7.85566998622290       14.31383211131400
H           27.42821502042085        6.16475098475338       13.84583528608747
C           29.97359420141747        4.72368896226161       14.45132369373307
H           30.90610480372558        4.17108177671885       14.42028699161032
C           28.85992194469177        3.99567422805710       14.50753867215250
H           27.86646676189627        4.40227876289836       14.57550000670364
H           28.91246357201597        2.91943859600588       14.50451062767665
C           34.89974554560093        4.44894055983265       16.23795548220001
H           34.75654638960909        3.99316016624478       15.25823656183350
H           34.11736671412402        4.07733190105792       16.90100666352316
H           35.85984181811413        4.12122622857233       16.62972112981581
C           37.11803328171248        6.62875175991765       17.14086841182305
H           37.31330406633450        5.56771721659463       17.27735119659635
H           37.17136675922838        7.11436619732769       18.11616402056101
H           37.90685545314638        7.04582215519231       16.51366607747747
O           31.72804811727124        9.29359733045120       17.29888827064513
H           30.94578203661994        8.72726508325327       17.31064370712630
H           32.00562864996664        9.52898324743106       18.18737271916988
C           33.87655329531998        8.84473376271681        9.77754206814835