87
 energy: -124.625870054813 gnorm: 0.242846343548 xtb: 6.7.1 (edcfbbe)
Fe          33.75200000000000       -9.49900000000000        5.10300000000000
N           32.39800000000000       -8.67100000000000        3.79800000000000
N           33.91600000000000      -11.13900000000000        4.05800000000000
N           35.09800000000000      -10.30800000000000        6.44400000000000
N           33.55100000000000       -7.76100000000000        6.27500000000000
C           31.95000000000000       -7.36200000000000        3.75400000000000
C           31.14700000000000       -7.22500000000000        2.55800000000000
C           31.13200000000000       -8.41800000000000        1.92600000000000
C           31.92599999999999       -9.34500000000000        2.69700000000000
C           33.16900000000000      -11.42000000000000        2.92600000000000
C           33.68200000000000      -12.62600000000000        2.33700000000000
C           34.69900000000000      -13.04300000000000        3.09000000000000
C           34.86500000000000      -12.13600000000000        4.18700000000000
C           35.81900000000000      -11.48000000000000        6.29700000000000
C           36.56400000000000      -11.73300000000000        7.51500000000000
C           36.30200000000000      -10.71600000000000        8.36000000000000
C           35.35900000000000       -9.81100000000000        7.70400000000000
C           34.11200000000000       -7.66400000000000        7.54600000000000
C           33.80400000000000       -6.35100000000000        8.08400000000000
C           33.00500000000000       -5.64800000000000        6.99400000000000
C           32.89100000000000       -6.59600000000000        5.90500000000000
C           32.23800000000000       -6.38600000000000        4.69500000000000
H           31.92599999999999       -5.36700000000000        4.46700000000000
C           32.13600000000000      -10.68200000000000        2.41500000000000
H           31.43500000000000      -11.17900000000000        1.74400000000000
C           35.80200000000000      -12.26100000000000        5.17500000000000
H           36.57400000000000      -13.02200000000000        5.06200000000000
C           34.82800000000000       -8.64000000000000        8.20800000000000
H           34.99700000000000       -8.46300000000000        9.27000000000000
C           30.41700000000000       -8.81500000000000        0.62200000000000
H           30.01800000000000       -7.90500000000000        0.12600000000000
H           29.57300000000000       -9.50000000000000        0.85000000000000
H           31.13500000000000       -9.31300000000000       -0.06300000000000
C           30.44900000000000       -5.91400000000000        2.12500000000000
H           31.13500000000000       -5.32400000000000        1.48000000000000
H           30.19200000000000       -5.31200000000000        3.02200000000000
H           29.52800000000000       -6.15100000000000        1.55000000000000
C           33.10100000000000      -13.28300000000000        1.06600000000000
H           33.48000000000000      -12.75100000000000        0.16700000000000
H           31.99200000000000      -13.21700000000000        1.08300000000000
H           33.41800000000000      -14.34700000000000        1.01500000000000
C           35.59099999999999      -14.27500000000000        2.84000000000000
H           35.74699999999999      -15.06000000000000        3.59300000000000
C           36.18599999999999      -14.34900000000000        1.62600000000000
H           36.02500000000000      -13.56000000000000        0.87700000000000
H           36.83700000000000      -15.19900000000000        1.37400000000000
C           37.47700000000000      -12.96300000000000        7.72500000000000
H           38.37899999999999      -12.86900000000000        7.08400000000000
H           36.93000000000000      -13.88800000000000        7.44400000000000
H           37.79500000000000      -13.01800000000000        8.78800000000000
C           36.88600000000000      -10.52800000000000        9.78800000000000
H           36.21200000000000      -10.53400000000000       10.65800000000000
C           38.21800000000000      -10.35300000000000       10.01900000000000
H           38.93300000000000      -10.34000000000000        9.18300000000000
H           38.59400000000000      -10.22300000000000       11.04400000000000
C           34.20100000000000       -5.78700000000000        9.46600000000000
H           35.28900000000000       -5.94200000000000        9.63100000000000
H           33.63600000000000       -6.31600000000000       10.26300000000000
H           33.98200000000000       -4.69800000000000        9.50400000000000
C           32.43300000000000       -4.21900000000000        7.05600000000000
H           33.18400000000000       -3.50200000000000        6.66100000000000
H           32.20100000000000       -3.95300000000000        8.10900000000000
H           31.51300000000000       -4.15600000000000        6.43700000000000
C           30.15700000000000      -13.18100000000000        7.29300000000000
H           29.19900000000000      -13.30900000000000        6.74600000000000
H           29.94700000000000      -13.14500000000000        8.38300000000000
H           30.82100000000000      -14.04100000000000        7.06200000000000
N           30.21700000000000      -10.66800000000000        7.01300000000000
H           29.31000000000000      -10.52100000000000        7.40700000000000
C           30.81400000000000      -11.90400000000000        6.86100000000000
C           31.03000000000000       -9.72900000000000        6.55900000000000
H           30.79799999999999       -8.66500000000000        6.54200000000000
N           32.14400000000000      -10.31000000000000        6.14300000000000
C           32.03000000000000      -11.67000000000000        6.31600000000000
H           32.82900000000000      -12.34300000000000        6.03300000000000
C           36.62400000000000       -6.45800000000000        5.30700000000000
H           37.56399999999999       -6.13600000000000        5.80500000000000
H           35.82100000000000       -6.52200000000000        6.07200000000000
H           36.35100000000000       -5.70100000000000        4.54100000000000
C           36.82100000000000       -7.82100000000000        4.64400000000000
H           37.10000000000000       -8.56600000000000        5.41900000000000
H           37.65300000000000       -7.75200000000000        3.91200000000000
S           35.31400000000000       -8.33300000000000        3.81500000000000
C           35.96900000000000       -9.48000000000000        2.59700000000000
H           36.50200000000000      -10.32400000000000        3.08400000000000
H           36.68699999999999       -8.96000000000000        1.92800000000000
H           35.14400000000000       -9.90200000000000        1.98500000000000
87
 energy: -124.683378430912 gnorm: 0.104183949757 xtb: 6.7.1 (edcfbbe)
Fe          33.75571509615646       -9.48536114462540        5.11748616979357
N           32.41751404592650       -8.67262831115891        3.80281777050224
N           33.92717088323106      -11.12875055723575        4.04475612936218
N           35.09619870006303      -10.30276889413774        6.45367564914402
N           33.55866363388749       -7.77644197677228        6.27010523205376
C           31.96811108021944       -7.37455864461395        3.75465209477907
C           31.14789637901754       -7.21411051859407        2.56238568886908
C           31.11387926057151       -8.41856144986414        1.93183721486097
C           31.90888854512928       -9.33369054175037        2.72213780938736
C           33.17023863231341      -11.43199315925824        2.93946154858076
C           33.66410729537810      -12.64762716352446        2.33325406902505
C           34.70920804855760      -13.06801036431968        3.08582089855095
C           34.86081471761204      -12.12980634866422        4.17205522334880
C           35.82108893910021      -11.45772114299119        6.31112138596410
C           36.57947797808443      -11.72041075831486        7.51968604493768
C           36.30146361699412      -10.70594849752180        8.38470034065302
C           35.35466475475857       -9.81320591934928        7.70726488250901
C           34.08316542891058       -7.64995066443712        7.53509213006189
C           33.77114381297385       -6.33368408170054        8.05365064791489
C           33.03144082466394       -5.66808265713311        7.02409594110694
C           32.91815312793058       -6.60945072325933        5.93061111571665
C           32.25157082946347       -6.40413319000973        4.71208606959020
H           31.91784940738794       -5.39203895496607        4.49202283420566
C           32.13396813996905      -10.67258469127708        2.42675157521679
H           31.46754790393308      -11.15245939847426        1.71474882316031
C           35.79800831233880      -12.25188796735253        5.17855979603252
H           36.54744944710919      -13.03205577920935        5.07887153001482
C           34.82201435402143       -8.63032951430560        8.20637283882249
H           35.01885991876379       -8.44074167274991        9.25809630686570
C           30.42250154436823       -8.80434186641368        0.63978002239127
H           30.02521819014462       -7.91830606982203        0.13494910537998
H           29.59012619185841       -9.48819407496083        0.84621527507225
H           31.12154228742734       -9.30350678864203       -0.04132966794603
C           30.46176034040920       -5.92996520796827        2.13232095716674
H           31.12638925039179       -5.33629259965036        1.49248246514429
H           30.19645945975621       -5.32642999859858        3.00572381924704
H           29.54893681554098       -6.14868484536383        1.56665736918403
C           33.10368800846435      -13.27852248986534        1.07813575247067
H           33.47126117571649      -12.75705569156967        0.18547962066940
H           32.01053128701199      -13.22271951897367        1.08250649654930
H           33.41336288465772      -14.32680445985191        1.01745919935823
C           35.58889883292659      -14.24925986012183        2.82090427020531
H           35.73449487308468      -15.01499628826997        3.58254672486669
C           36.17994795428778      -14.35048609466532        1.63285447788961
H           36.03641215184725      -13.57951916752134        0.88498902103249
H           36.82446503952331      -15.18683998161324        1.38033311477175
C           37.46558911729008      -12.93759015124075        7.72180994778382
H           38.36200975250173      -12.86605649804498        7.09360393093327
H           36.93579341841814      -13.85900544592109        7.44964839081425
H           37.78377393853775      -13.00928912460806        8.76736079342078
C           36.88776793832242      -10.51986224655530        9.76217739954193
H           36.20811727354223      -10.52945631137113       10.61576393397595
C           38.19131486571612      -10.35919161253142       10.00091209259967
H           38.91525038357423      -10.34048940735750        9.19344190127185
H           38.57303201640088      -10.23016359357545       11.01164736135530
C           34.18400479011608       -5.79623595942915        9.41898327789827
H           35.25731259556578       -5.94434763166488        9.60741901856721
H           33.64245413473711       -6.30545204503476       10.22971334282560
H           33.98047238446763       -4.72250292686436        9.49408473533634
C           32.45592591134645       -4.25961249648779        7.06208532559256
H           33.17551835397307       -3.52650066407651        6.67018609637081
H           32.20818365650439       -3.96637263701013        8.08869240526231
H           31.54364988784591       -4.17597823428829        6.45614489229887
C           30.15224098391234      -13.17706583095092        7.29316811636240
H           29.20625678943726      -13.31428725629064        6.75688746902915
H           29.94592205048180      -13.15533698951360        8.36916088062938
H           30.80789036253466      -14.02308768290125        7.06944079167089
N           30.20990768261620      -10.68066028734372        7.01556466579749
H           29.29812251449692      -10.52720948878704        7.40975999138385
C           30.80868141019312      -11.90847832636366        6.87020267889390
C           31.04773533131522       -9.74119190123355        6.55397440841253
H           30.82151965983993       -8.68707148241433        6.53755095752309
N           32.15781436867452      -10.30708945676529        6.12879849283292
C           32.02773645207330      -11.65675403578853        6.32014901080591
H           32.81794068984494      -12.32804652779873        6.03923986570788
C           36.62598450732731       -6.46127675950341        5.30609770790302
H           37.55014721382837       -6.13971297542337        5.79894272115221
H           35.83283224027581       -6.51632573105886        6.05702354574100
H           36.35146230397736       -5.71250621928331        4.55561858620873
C           36.82921908708116       -7.82241045353403        4.65149832095923
H           37.09733246725906       -8.56801445436460        5.41198361506100
H           37.64120688004842       -7.75996477088529        3.91360969837297
S           35.31044083372409       -8.33156035393773        3.80306457095138
C           35.98711072589552       -9.48519650407191        2.59092638304135
H           36.49970076010592      -10.31848264942217        3.08278766487653
H           36.68377164869401       -8.96069000795521        1.92845088366255
H           35.15658321561922       -9.88555317690443        2.00023834268844
87
 energy: -124.702000921283 gnorm: 0.037142031775 xtb: 6.7.1 (edcfbbe)
Fe          33.74887262984653       -9.47094419853206        5.13065376470075
N           32.42760703590111       -8.67800019329493        3.81452851461254
N           33.92823007880530      -11.12413448070868        4.03734644188176
N           35.08863954652784      -10.28997478049100        6.45914360455374
N           33.56353936360554       -7.79999753121864        6.26936326405633
C           31.98676061520733       -7.38869328855787        3.76269957005019
C           31.15430329901713       -7.20856932603719        2.57694995182197
C           31.10043733090994       -8.42124102077657        1.95012192718770
C           31.90149222906862       -9.32699176505381        2.74652831783675
C           33.17008073948332      -11.43762733877483        2.95116142633926
C           33.64999192073062      -12.65589135052489        2.33405413375896
C           34.71643721687278      -13.07468299153540        3.08204963286141
C           34.85354565709500      -12.11928343298477        4.16328994489085
C           35.81418328974679      -11.43116237966310        6.31676503358183
C           36.58766875700315      -11.69815844005135        7.51253555185330
C           36.29677391878166      -10.68842669456746        8.39214554833057
C           35.34514578472437       -9.80867236709312        7.70620011008314
C           34.06814697366603       -7.64951553500181        7.52485734765989
C           33.74674813056748       -6.32572278730600        8.02554294998899
C           33.05280502349071       -5.69535880976376        7.04804495062821
C           32.93771828558159       -6.63396934261034        5.94615007870370
C           32.26315225940323       -6.42616730797122        4.73137777335369
H           31.90210242284073       -5.42237018553680        4.52897701660144
C           32.14278814960180      -10.65951780570129        2.43018840499892
H           31.51641324632354      -11.11647484851798        1.66940598691071
C           35.78424668197964      -12.23977023847951        5.18485052513317
H           36.50696655795059      -13.04418373678243        5.10594430145232
C           34.82301598140044       -8.61823742839277        8.20509242826445
H           35.05532950274422       -8.40671942302120        9.24354835602041
C           30.42521912672766       -8.79571950552566        0.66787608367204
H           30.03275814077242       -7.91980893159890        0.15853492570543
H           29.59835968885123       -9.48266112404665        0.85354169722091
H           31.12078420081740       -9.29191627444111       -0.00851171189301
C           30.47974138169503       -5.94451041371699        2.14749539096877
H           31.13281216694021       -5.34969426471748        1.50778318414645
H           30.20593023187479       -5.33708451884098        3.00615141295520
H           29.57299586657862       -6.16066900636950        1.58476914483521
C           33.10182987260978      -13.27579127853885        1.09540721925721
H           33.46473657131510      -12.75558994751771        0.20795154836686
H           32.01555147125066      -13.23009462338975        1.08611529730432
H           33.41337998969228      -14.31504246593447        1.02438695613538
C           35.58064457040653      -14.21691824504042        2.80963968040251
H           35.72223635935897      -14.96024268119009        3.58791401196925
C           36.17718694710205      -14.35103961216184        1.63487005619575
H           36.04913839411419      -13.59878297990645        0.87562591650766
H           36.81426422155310      -15.18355532048415        1.38864103830215
C           37.45437616291328      -12.90219638356625        7.71663517592907
H           38.34874760230157      -12.84983028320729        7.09422606837646
H           36.92587293355373      -13.81843566158081        7.45061096902208
H           37.77042019251110      -12.98189280803686        8.75468512011310
C           36.87069922361284      -10.50817423982348        9.72954275786630
H           36.18025831125966      -10.50914483750482       10.56821509859185
C           38.16326159415581      -10.36367840510608        9.97757546919406
H           38.89936684985863      -10.34405706355119        9.19105473883394
H           38.54836735038201      -10.24241630521641       10.97988976580930
C           34.16342892817551       -5.80460881754713        9.37379051527662
H           35.22989310302551       -5.95746632776303        9.55461641115463
H           33.63154937758255       -6.31215986365792       10.18343484255065
H           33.96635984059528       -4.73849631445151        9.46330453441349
C           32.47992185947889       -4.30331168691989        7.06769600865684
H           33.18825220633115       -3.56985800768640        6.67320215028937
H           32.22573278770526       -3.99771148156146        8.08197955121095
H           31.57343587794832       -4.22524298148592        6.46601511315186
C           30.15109439995714      -13.17457086934501        7.29447107301193
H           29.21101017770585      -13.31437089960304        6.76366153963873
H           29.94388796249965      -13.16271923882049        8.36317709325112
H           30.80224675965150      -14.01321368103570        7.07404277287136
N           30.20859809715963      -10.68678403747024        7.01640403754199
H           29.29441366770234      -10.52565495038641        7.40816082886433
C           30.80800047911777      -11.91076034977026        6.87740009767769
C           31.06516464664172       -9.75102084321612        6.54771916030739
H           30.84550111164683       -8.70295890492973        6.53031007460501
N           32.17182919422533      -10.30892597559713        6.12231337819881
C           32.02790465439379      -11.65003759618642        6.32272324374108
H           32.81086493522331      -12.32518270585524        6.04784141210112
C           36.63099917322680       -6.46365181348506        5.30773349445354
H           37.54640430994687       -6.14177222588344        5.79742554844103
H           35.84111330718459       -6.51797821429682        6.04850157944588
H           36.35322148850024       -5.72524603762604        4.56051672161898
C           36.84019865685398       -7.82239175004881        4.65958844186149
H           37.09089342148865       -8.57336101158493        5.40819273803110
H           37.63364196160727       -7.76869353359768        3.91256531677841
S           35.30841874386996       -8.33021289801566        3.79715370269193
C           36.00423495399690       -9.48839570102233        2.58518560770222
H           36.50413974283043      -10.31146591665561        3.08476593771658
H           36.68807929539259       -8.95706725150793        1.93046248824763
H           35.16748282724856       -9.87230190302176        2.00950071059149
87
 energy: -124.708139660756 gnorm: 0.021512384870 xtb: 6.7.1 (edcfbbe)
Fe          33.74540388316126       -9.46526628081613        5.13339224134413
N           32.42990063802777       -8.68745528562545        3.82742458128255
N           33.92125800909687      -11.11946805015490        4.03324980807042
N           35.07487795925037      -10.27633001222896        6.45647804217952
N           33.56340728700308       -7.82130621414193        6.27115061852638
C           31.99137189697239       -7.40190297184765        3.77618141846534
C           31.15772604330440       -7.21319397380052        2.59800252218318
C           31.09470612230201       -8.42389084345987        1.97264084280388
C           31.89949068477388       -9.32946259764659        2.76022824866323
C           33.16506511347914      -11.43482722411492        2.95062299442512
C           33.64177250601990      -12.65114711511050        2.33500313353544
C           34.71451326220909      -13.06286647773791        3.07825592673060
C           34.84408462485350      -12.11059626356157        4.16170352747193
C           35.80141107678644      -11.41336003450509        6.31079436721994
C           36.58455302095705      -11.67385061175490        7.49720623209882
C           36.28961442923357      -10.66893011872927        8.37792434392173
C           35.33663192467469       -9.79881449055043        7.69977810553385
C           34.06559117173106       -7.66552605885542        7.52459382606409
C           33.74243906665468       -6.34424968698525        8.02513877508832
C           33.05334677685713       -5.71144792805659        7.03680644966140
C           32.93918220004540       -6.65825207491920        5.94334022897142
C           32.26113436357964       -6.44392726123016        4.74369983828743
H           31.87602093668803       -5.44654749199745        4.56256327316630
C           32.15082209025845      -10.65043511612165        2.42002694687086
H           31.56427246637071      -11.08204372732152        1.60898810186022
C           35.76561799331837      -12.23295004960085        5.18919802247947
H           36.46425073100531      -13.06082184692993        5.13409230678698
C           34.83008420002709       -8.61122153306758        8.20712586459424
H           35.10418747314575       -8.37302189091379        9.23172863176540
C           30.42203635594665       -8.79054708487486        0.69246903689765
H           30.03273453358409       -7.91117828419470        0.18700088853613
H           29.59619131729628       -9.48093299420522        0.86976183563294
H           31.12471212162108       -9.28189806832249        0.02027024616656
C           30.49433341920372       -5.94864757769683        2.16783402328667
H           31.15223502441329       -5.35826291783000        1.52894255782379
H           30.21745868264345       -5.33839804075809        3.02349055759209
H           29.59042871203492       -6.16823673175023        1.60234230407340
C           33.09437809731352      -13.27620961502693        1.10201854485182
H           33.45261539595948      -12.75016366266346        0.21579777490412
H           32.00713938991784      -13.24228408494082        1.09325711595531
H           33.41719919018806      -14.31233951141899        1.03042484112406
C           35.58436513555094      -14.19455453609976        2.80831793465683
H           35.73281610466390      -14.91640989634719        3.60482811479660
C           36.17675094960594      -14.35765990012585        1.63265913372330
H           36.05498635532067      -13.62158461529214        0.85492877112336
H           36.81129491519467      -15.19611959118354        1.40407173145234
C           37.44928010152165      -12.87040110877512        7.70742431386900
H           38.34353127225494      -12.82467107210199        7.08457477450895
H           36.91261618617835      -13.78319447675363        7.44764907542463
H           37.76121891131275      -12.93998293187594        8.74710230260442
C           36.84695055483195      -10.48562161188885        9.71073918785644
H           36.14303795610979      -10.46441042701483       10.53747534699843
C           38.14240577775731      -10.36752755925025        9.96366163174720
H           38.88142323563334      -10.35920435644799        9.17959915831831
H           38.52444975417295      -10.25302662259030       10.96545667250409
C           34.15508672703312       -5.81627240324834        9.35906933990675
H           35.22169029226733       -5.97104326040315        9.52076318687336
H           33.61987356731417       -6.32714651606621       10.16096605389043
H           33.95199848697116       -4.75155346163990        9.43582617911735
C           32.48923525617402       -4.32694029096807        7.05838514129484
H           33.20553450943626       -3.60563133314229        6.66153368819843
H           32.24184152632067       -4.02770204942291        8.07513661933532
H           31.58349543819277       -4.26298036165791        6.45898798498192
C           30.15125629628777      -13.17295564514816        7.29777886734727
H           29.21144238808523      -13.31236008002892        6.76579188135096
H           29.94064312031151      -13.16604665185328        8.36621908323675
H           30.80206683433889      -14.01200419469773        7.07795404810123
N           30.21590439777481      -10.68505671696711        7.01462226645418
H           29.30050146589479      -10.51829284994516        7.40160730576780
C           30.81304520059430      -11.91103912908067        6.88235077528778
C           31.07981187541038       -9.75495815004118        6.54292102673416
H           30.86771984852800       -8.70640470402660        6.52166832348526
N           32.18422090647233      -10.31675319705598        6.12044975322359
C           32.03474118392617      -11.65524948911746        6.32876946547026
H           32.81388291861685      -12.33677323033079        6.06047093114697
C           36.63838763704275       -6.46959743990487        5.30945721889041
H           37.55221228389566       -6.14425969230794        5.79985886311574
H           35.84661669883646       -6.52239737268398        6.04837778736583
H           36.35908785139791       -5.73428273358751        4.55978695056503
C           36.84546059438174       -7.82825171161645        4.66399159026085
H           37.08490774795986       -8.58552687721051        5.40910543434160
H           37.63438144847089       -7.78158353142698        3.91330119338044
S           35.30880396744608       -8.32599388669228        3.79357206460864
C           36.01818525000534       -9.48409613069484        2.58414592288974
H           36.51601619050676      -10.30464444820079        3.08947530258847
H           36.70184405730900       -8.94809418549656        1.93311099662670
H           35.18077663077819       -9.86452776411963        2.00910765768260
87
 energy: -124.711749559433 gnorm: 0.013241068801 xtb: 6.7.1 (edcfbbe)
Fe          33.73645887770581       -9.46663693948903        5.13487372021753
N           32.43285415680312       -8.69992686469423        3.84003293673208
N           33.91278896674032      -11.11540706976524        4.02455158879777
N           35.05601085478470      -10.25910578549591        6.44606067931698
N           33.56317891000344       -7.84824304627420        6.26798747192865
C           31.98922722144263       -7.41797611111829        3.79326914144167
C           31.15653507915853       -7.22049916076793        2.62335574751611
C           31.08880099254219       -8.42629887960170        1.99509696096837
C           31.90165208456530       -9.33351662870100        2.76786163964400
C           33.16376232619830      -11.42979577154144        2.93882242609739
C           33.63926871362251      -12.64425207738169        2.32784456735161
C           34.71279467906452      -13.05081300860171        3.06997306774359
C           34.83332560751470      -12.10409012735567        4.15737835288629
C           35.78319826637241      -11.39557822051942        6.29953025671613
C           36.57804859175477      -11.64671732163123        7.47646762644202
C           36.28091226500271      -10.64552536922152        8.35688365374378
C           35.32880419878592       -9.78426079743444        7.68609476812135
C           34.06669773383038       -7.68133221169287        7.51885129657211
C           33.74163792254333       -6.36367978011648        8.01724142550245
C           33.04677553528504       -5.73620530998062        7.02646434990159
C           32.93488370981711       -6.68811777889701        5.94129132171585
C           32.24795689042492       -6.46348729518142        4.76051576217093
H           31.84731847119200       -5.47207785490176        4.59882122438323
C           32.16716087452462      -10.63861239472874        2.39465691602528
H           31.61167783134156      -11.04554678117499        1.55800133709275
C           35.74114852914528      -12.22957338637346        5.19313716647020
H           36.42111159585235      -13.07072675659071        5.16101881874844
C           34.84558950569998       -8.59749794727057        8.20470092054168
H           35.14693777593631       -8.34217894605350        9.21412402742015
C           30.41370054563180       -8.78533019797271        0.71631252393785
H           30.02246492640887       -7.90074397532518        0.22075391157287