78
 energy: -116.057484287776 gnorm: 0.000071038357 xtb: 6.7.1 (edcfbbe)
Fe          95.73830140211670       26.67333742406572       19.04794548220712
N           97.06917137178506       28.06317000678913       18.53022720994114
N           94.63700842798193       27.10843443880705       17.44465103513297
N           94.45750368183710       25.20009128411530       19.53181355536839
N           96.85058981871622       26.21657611350625       20.66026600470463
C           98.19052870684182       28.41917714831479       19.20838640926482
C           98.91029098129204       29.45671114236911       18.50073558253061
C           98.19453819011009       29.71726474527291       17.37526960745203
C           97.04273211027702       28.84161774763104       17.41600999757923
C           94.91722810488086       28.03864244996405       16.49464711773964
C           93.86120063469889       28.10722209178295       15.51842722533258
C           92.90579702831498       27.21323816317261       15.91900446842043
C           93.43060753958611       26.57928285436446       17.11389239168231
C           93.31886406302574       24.86157698561963       18.86381461977491
C           92.66963473583345       23.74201878493396       19.49369684791436
C           93.43636634399400       23.41244726192427       20.58146766332469
C           94.54909894081871       24.34093155891306       20.58123595201275
C           96.58678780407584       25.26298722545014       21.59536602252676
C           97.57449475805686       25.29537176347293       22.65019441409936
C           98.43920568311084       26.29671053147012       22.33265682924999
C           97.97153162737976       26.85848779348896       21.08585640286249
C           98.60909321784649       27.88213368356373       20.41128161275328
H           99.50758392022499       28.28540952815927       20.85258118848811
C           96.04821684424110       28.83697124006418       16.45931899264330
H           96.15267738512436       29.51445449754904       15.62533588853184
C           92.82742223378244       25.50941201234834       17.74455654270333
H           91.90635255117610       25.14220249327872       17.32024423802794
C           95.53061794676866       24.37141344493517       21.55650669615511
H           95.45576407591352       23.65788711102674       22.36271201476612
C           98.47380800694393       30.68851295237230       16.27983563890664
H           99.40473276248005       31.21988847214281       16.46170330929183
H           97.67051874780925       31.42181845762857       16.20020515458118
H           98.55485103735299       30.17155778526892       15.32368909601698
C          100.18579813950177       30.06670740075013       18.97205576984776
H          100.96210144270751       29.30695957865938       19.06481625223061
H          100.05069063019468       30.53254647065581       19.94857570103648
H          100.53218761769011       30.82623869859622       18.27548310430962
C           93.83542393278051       29.02971368086757       14.34882832526094
H           94.72374255500840       28.89042841118545       13.73251724862195
H           93.81319616507047       30.06977756956228       14.67707433447874
H           92.95506544522728       28.84803610281775       13.73750376731846
C           91.63120103729928       26.95877390599259       15.27984001833163
H           91.64296528852466       26.98663651986556       14.19536156840974
C           90.47947053925391       26.74396830427168       15.90578463685048
H           90.40128394810118       26.75914922304449       16.97975823712377
H           89.56628662216023       26.56765333756317       15.36161870382445
C           91.44474788382753       23.06557340242904       18.98569719537542
H           91.44030278164817       23.04305231225395       17.89709165179950
H           90.54598154493544       23.58942688579059       19.31532623616582
H           91.40125867632138       22.04342862142803       19.35685713406663
C           93.25048725449503       22.35263493781155       21.54728819726238
H           94.16037355370051       21.91959199384402       21.94736892366920
C           92.07892593712522       21.89089904589083       21.97283067658149
H           91.14415012005706       22.31289774848428       21.64797516387085
H           92.01685955389333       21.08578252307863       22.68616359211119
C           97.57931496371893       24.37927357190580       23.82577725803304
H           97.66944140739595       23.34122953945291       23.50396744075911
H           96.65314554300598       24.47726405191465       24.39263411038674
H           98.41155219309128       24.60451747304092       24.48805228661243
C           99.64631672512679       26.77007034675011       23.06711142425880
H          100.53978652905889       26.65184582342191       22.45333308517827
H           99.78617943654464       26.20662839838451       23.98640099276287
H           99.54937559522649       27.82549031244952       23.32210129562652
O           96.93002120829200       25.05975192259237       17.93092603823695
H           97.62882680985214       24.90484479556858       18.57573672036373
H           96.31828103832446       24.31802621502939       17.99216378418143
C           92.76830018820257       29.25614034678473       22.99285572044081
H           91.73864342731540       29.52858320290064       22.76164379681110
H           93.23214379920275       30.09135934020541       23.51755377623377
H           92.76049039092059       28.39293377289523       23.65085382395923
N           93.68490176421990       29.82930721426380       20.73384321257977
H           93.32856843975253       30.77076242604582       20.71585738711163
C           93.51829737547212       28.92947464149848       21.75378149076203
C           94.40685448805520       29.22195483466125       19.76517902819182
H           94.69031790427033       29.68891853674626       18.84429148599221
N           94.70725785812922       27.99326662281354       20.11012444948347
C           94.16164363901329       27.79681927882745       21.34445703265127
H           94.26671792187989       26.86070146324461       21.85200270884940
