78
 energy: -115.981474549163 gnorm: 0.236281067684 xtb: 6.7.1 (edcfbbe)
Fe          95.75500000000000       26.62700000000000       19.05300000000000
N           97.08700000000000       28.05000000000000       18.56800000000000
N           94.62300000000000       27.07100000000000       17.36800000000000
N           94.38000000000000       25.22300000000000       19.56500000000000
N           96.82800000000000       26.22400000000000       20.62800000000000
C           98.25199999999998       28.34400000000000       19.21400000000000
C           98.94299999999998       29.29600000000000       18.44400000000000
C           98.23099999999999       29.56000000000000       17.30400000000000
C           97.07599999999999       28.79400000000000       17.38100000000000
C           94.94100000000000       28.01700000000000       16.48700000000000
C           93.87200000000000       28.13100000000000       15.53600000000000
C           92.92199999999998       27.23000000000000       15.91200000000000
C           93.45599999999999       26.56400000000000       17.14399999999999
C           93.31500000000000       24.83300000000000       18.88000000000000
C           92.74800000000000       23.64400000000000       19.41800000000000
C           93.51300000000001       23.32300000000000       20.54600000000000
C           94.52299999999998       24.36900000000000       20.64100000000000
C           96.52000000000000       25.31500000000000       21.58900000000000
C           97.43100000000000       25.38900000000000       22.74400000000000
C           98.32100000000000       26.37800000000000       22.43100000000000
C           97.88700000000000       26.89200000000000       21.09400000000000
C           98.63299999999998       27.86400000000000       20.46100000000000
H           99.52700000000000       28.25800000000000       20.94200000000000
C           96.08400000000000       28.80800000000000       16.42800000000000
H           96.20000000000000       29.47800000000000       15.57600000000000
C           92.81900000000000       25.52200000000000       17.78500000000000
H           91.84699999999999       25.21600000000000       17.39900000000000
C           95.47900000000000       24.43800000000000       21.58500000000000
H           95.41500000000001       23.73400000000000       22.41500000000000
C           98.56399999999998       30.47800000000000       16.13500000000000
H           99.54600000000001       30.96600000000000       16.31500000000000
H           97.78399999999999       31.26300000000000       16.04000000000000
H           98.62200000000000       29.88500000000000       15.19700000000000
C          100.26700000000000       29.86000000000000       18.79700000000000
H          100.84899999999999       29.10800000000000       19.37100000000000
H          100.13299999999998       30.76700000000000       19.42400000000000
H          100.82399999999998       30.11700000000000       17.87100000000000
C           93.77900000000000       29.03300000000000       14.33600000000000
H           94.03200000000000       28.45799999999999       13.42000000000000
H           94.49599999999998       29.87500000000000       14.44300000000000
H           92.74400000000000       29.42600000000000       14.24100000000000
C           91.64600000000000       27.09900000000000       15.29200000000000
H           91.53600000000000       27.10400000000000       14.19800000000000
C           90.58199999999999       26.97000000000000       16.04600000000000
H           90.67199999999998       26.96300000000000       17.14200000000000
H           89.58499999999999       26.86700000000000       15.59200000000000
C           91.53700000000001       23.01200000000000       18.79799999999999
H           91.69600000000000       22.90100000000000       17.70400000000000
H           90.64800000000000       23.65600000000000       18.97000000000000
H           91.36900000000000       22.00700000000000       19.24100000000000
C           93.35700000000000       22.25100000000000       21.53600000000000
H           94.23600000000000       21.87200000000000       22.07800000000000
C           92.18000000000001       21.71200000000000       21.80800000000000
H           91.27400000000000       22.06000000000000       21.29000000000000
H           92.09300000000000       20.90900000000000       22.55500000000000
C           97.40100000000000       24.55600000000000       23.99900000000000
H           97.52100000000000       23.48400000000000       23.73500000000000
H           96.42800000000000       24.69300000000000       24.51700000000000
H           98.23399999999999       24.85800000000000       24.67000000000000
C           99.47399999999999       26.91400000000000       23.19700000000000
H          100.42100000000001       26.61400000000000       22.70000000000000
H           99.46299999999999       26.50300000000000       24.22900000000000
H           99.42000000000000       28.02300000000000       23.22900000000000
O           96.78199999999998       25.37400000000000       18.10000000000000
H           97.60400000000000       25.81500000000000       17.88600000000000
H           96.56099999999999       24.54000000000000       17.88600000000000
C           93.16800000000001       29.30600000000000       23.25500000000000
H           92.08900000000000       29.05200000000000       23.32800000000000
H           93.29500000000000       30.39400000000000       23.43900000000000
H           93.72700000000000       28.72400000000000       24.01800000000000
N           93.16900000000000       29.51400000000000       20.72800000000000
H           92.47300000000000       30.23100000000000       20.68800000000000
C           93.66800000000001       28.96500000000000       21.89700000000000
C           93.76000000000001       28.93900000000000       19.69200000000000
H           93.57800000000000       29.20500000000000       18.65200000000000
N           94.58399999999999       28.01300000000000       20.14200000000000
C           94.52699999999999       27.99000000000000       21.51000000000000
H           95.10599999999999       27.27800000000000       22.08500000000000
78
 energy: -116.025828223005 gnorm: 0.097513026626 xtb: 6.7.1 (edcfbbe)
Fe          95.73093216885246       26.65806642130565       19.08724835421642
N           97.08379853392648       28.03154319933135       18.54913473658925
N           94.64490739663269       27.07544847953826       17.39389722758650
N           94.40467243552031       25.21520445385460       19.56535304423187
N           96.82185276564230       26.22956455672063       20.65845724588074
C           98.23644900095451       28.35713552122143       19.20166064508546
C           98.96533209356241       29.30868958067779       18.43274416252434
C           98.24693398550352       29.57086760778825       17.30199244444317
C           97.07603605011663       28.78199651265996       17.38780808837017
C           94.94525527207563       28.01765763062110       16.48147566283371
C           93.87373326255100       28.12298761260366       15.52488356352137
C           92.92190065261504       27.22796274866204       15.91163618709099
C           93.45005112084019       26.56461195753785       17.12761086135279
C           93.32047030013428       24.83422739872489       18.87262542261713
C           92.73447450172633       23.65002634594738       19.43043844854462
C           93.49143154475391       23.32884045919447       20.54162182341953
C           94.52519635121051       24.34487849236172       20.61395795166588
C           96.52092384286622       25.31443807908987       21.61560428313517
C           97.44338805586770       25.39739202251636       22.74160612570022
C           98.31885747390761       26.38614912424273       22.42666449387896
C           97.90745658875142       26.88859061743926       21.10499729586133
C           98.62224266654903       27.86612037050170       20.44652787518807
H           99.51218221636694       28.25949106589272       20.91919702782156
C           96.08197527649115       28.79770260753638       16.43372176017179
H           96.19924479167460       29.46806177416650       15.59173293419181
C           92.81791440491729       25.51958943441946       17.77066295343417
H           91.85884903369589       25.20461166610970       17.38300512197327
C           95.48047574687511       24.41884767926590       21.59249990357542
H           95.41029328838673       23.72500625308448       22.41916115233753
C           98.57183351275637       30.47698990183815       16.14782055363058
H           99.53574769059901       30.96687924741514       16.30735440717752
H           97.80241238800022       31.24965766714312       16.04091204824046
H           98.62083572932693       29.90067504584132       15.21616722202961
C          100.28763554603704       29.86737622616333       18.80043246143045
H          100.86218528042454       29.12878554062436       19.36703295191739
H          100.15781415289534       30.76379323508791       19.41762737076831
H          100.84033835244401       30.12828904359746       17.89416709671334
C           93.78351739386784       29.03016952799166       14.33933600748792
H           94.02871730314347       28.47366867406198       13.42686391784086
H           94.47987751257308       29.86842506361442       14.43222089843059
H           92.76636832794728       29.42339996652922       14.23889604936221
C           91.63376456147826       27.07653663548923       15.29805643283772
H           91.54576177400313       27.10764687612824       14.21247376823611
C           90.54938169810133       26.95842553081634       16.04919264026601
H           90.63211074178766       26.97220916425757       17.12910105049021
H           89.56613991398339       26.86667522019016       15.60777105109782
C           91.54253095924531       23.00291875331467       18.80589123607921
H           91.69017977339377       22.89957844402724       17.72410256757465
H           90.65740701158873       23.63092003164828       18.96787630800801
H           91.36428722952716       22.01122659256139       19.22757201552817
C           93.34388251645575       22.25456882883950       21.51432391907746
H           94.22774949183967       21.90199451702359       22.04902725889636
C           92.17122319621836       21.70527655043207       21.80719393004347
H           91.26706975242502       22.04712970973582       21.32230161966908
H           92.08521787561844       20.91604199143224       22.54505223249626
C           97.40001883535551       24.55997454962887       23.98247785008585
H           97.51760255270669       23.49734953871099       23.74054673601095
H           96.44612089049187       24.68820529067118       24.50820671864220
H           98.21190148066458       24.84819915486080       24.65752078317394
C           99.47371008577740       26.91551870906619       23.19441258309394
H          100.41540480403316       26.62434957184368       22.71281164455183
H           99.47171492714794       26.51816686988609       24.21423477047892
H           99.43021884474703       28.00879057963494       23.23934682788378
O           96.79286921837003       25.38333337346203       18.08843996360668
H           97.62943261183254       25.79519668388474       17.86279932429020
H           96.57280513191070       24.49581370153083       17.86160472041072
C           93.15777142172780       29.31249459244527       23.25568670746415
H           92.09472841004630       29.06286391788040       23.34287653804555
H           93.28686368168124       30.38276158210931       23.44969471779253
H           93.71420232373525       28.74138582753511       24.00325213494957
N           93.16512743767842       29.52576414800219       20.74428166482114
H           92.46830479399534       30.24840638914865       20.70020559378944
C           93.64581663242886       28.95774596240994       21.90131428072768
C           93.76756076123974       28.93267070453160       19.70320647381157
H           93.58937243876258       29.19253612260085       18.67333685216308
N           94.59479655901357       28.01158516850889       20.13669808903730
C           94.52314153244434       27.99845475577182       21.49821947784100
H           95.10129411555975       27.29946514705501       22.07213173475492
78
 energy: -116.040671180096 gnorm: 0.033973627405 xtb: 6.7.1 (edcfbbe)
Fe          95.71133448818074       26.68122549228750       19.09739507701968
N           97.07356255326820       28.03551009749759       18.54325200292883
N           94.64718031226394       27.09177263725757       17.42723155457373
N           94.42849786714758       25.21211869264557       19.56411209579727
N           96.80444140549453       26.24340382758249       20.68824666802167
C           98.22136514655121       28.36828908896892       19.19497526966764
C           98.98274181948126       29.31887601547411       18.42727505045241
C           98.26008994353072       29.57794032509328       17.30262524179210
C           97.07441068835041       28.77416437128018       17.39702233761323
C           94.93897676843768       28.02052139270650       16.48037002605042
C           93.87196611042434       28.11372842102904       15.51602150032831
C           92.91629223739241       27.22727597360764       15.91929466201334
C           93.43729093271044       26.57417712626653       17.11679154677207
C           93.32749218021316       24.84265221615513       18.86302503418707
C           92.72389256360520       23.66410211779191       19.43497151398709
C           93.47555378659838       23.33958683929490       20.53473362159952
C           94.53081762071839       24.33174003921402       20.59192248186181
C           96.51355718225521       25.31983989103563       21.64175660550325
C           97.45061686234645       25.40413914842667       22.74231861587181
C           98.32100651719855       26.39276246037851       22.42102330806971
C           97.91414766015193       26.89343184087776       21.12153313645780
C           98.60572711187231       27.86981736294252       20.43353392128176
H           99.49856345136274       28.26176643073532       20.89331507395049
C           96.08029527327442       28.78903218267666       16.43968021400494
H           96.20380905828215       29.45873792973645       15.60330831734213
C           92.81974362427414       25.51966905845721       17.75844346921340
H           91.87673506741856       25.18324218866589       17.35979625584069
C           95.47836043573056       24.40761951006109       21.59809735231979
H           95.40517209106673       23.71326505099599       22.41812049527292
C           98.57904251356076       30.47585909777649       16.15796203515518
H           99.53376225354364       30.96739539329987       16.30740603895656
H           97.81434319491265       31.24260258971488       16.04647448417938
H           98.62222605838093       29.90917785332303       15.22847965972979
C          100.30769875271359       29.87476624001563       18.80741891126954
H          100.88075576568899       29.14477614603826       19.36901709210233
H          100.18325042503139       30.76537105645296       19.42079244954755
H          100.86328084996518       30.14375422425375       17.91512343698358
C           93.78920124230726       29.02591595126465       14.33966256041797
H           94.03122140848296       28.48256614027278       13.42650859816935
H           94.47450116112772       29.86202830861287       14.43014074417725
H           92.78045829095682       29.41891601686489       14.23885901938088
C           91.61553489362910       27.06046102669749       15.31541319588124
H           91.55496590667238       27.09721317016356       14.23461361516060
C           90.51349488401594       26.95336891483136       16.05224412614415
H           90.58133341065208       26.97178349369692       17.12388766891059
H           89.54047896053663       26.85859696010210       15.61240500854967
C           91.54438318527185       22.99882055270902       18.81295260515907
H           91.69121762797924       22.90039446577893       17.73850679271014
H           90.65273693808265       23.60662062007052       18.97086499072432
H           91.37362589587285       22.01200655294041       19.22527811480554
C           93.32469237098205       22.26819308171798       21.49648317431996
H           94.21939987124149       21.92996495239011       22.00784400690117
C           92.15997344664684       21.70519860539594       21.81022875468522
H           91.24747725696017       22.03461401176607       21.35312705854525
H           92.08447464149717       20.91466523174366       22.53436170986097
C           97.40144148555002       24.56345357806099       23.97296372365686
H           97.51393328494629       23.50795832042467       23.73191510602256
H           96.45350935267636       24.68947372777161       24.49461348450016
H           98.20238203464625       24.84156459414155       24.65198310436379
C           99.47930605418412       26.91711863542668       23.19376502931809
H          100.41719024671410       26.63235703247910       22.71826162030465
H           99.47866654926223       26.52442594202213       24.20611724196153
H           99.43979535627720       28.00244694222026       23.24701211282347
O           96.81026569163429       25.37099046224087       18.05712638526711
H           97.66884417384615       25.73504143567656       17.82127612915075
H           96.60853363984036       24.45791913375406       17.83675273883819
C           93.14760153637533       29.31682828576579       23.25704672948482
H           92.09175279573104       29.07543661953692       23.35888747572213
H           93.28063363869862       30.37837740721760       23.45023903169889
H           93.70458640918201       28.75405449727556       23.99714766703538
N           93.16339409533219       29.52991741958497       20.75380697956441
H           92.46836815001521       30.25741465305595       20.70370179918112
C           93.62728608403067       28.94792765320487       21.90344793845379
C           93.78208764784333       28.92783386599650       19.71131223010005
H           93.60693003943943       29.18463035583758       18.68807707499458
N           94.60932743891780       28.00513122972484       20.13307282289848
C           94.52141575198482       28.00297951958473       21.49189668182390
H           95.09757657655717       27.31728030195950       22.07332859061311
78
 energy: -116.045456380021 gnorm: 0.027366396467 xtb: 6.7.1 (edcfbbe)
Fe          95.70605728426102       26.68875218487671       19.09192279682628
N           97.06904478604928       28.04555634841660       18.54300740247671
N           94.64172828343776       27.10568553658008       17.44632081816959
N           94.43747942543878       25.21575593889105       19.56076452344530
N           96.79728253198543       26.25087255249762       20.69934499477879
C           98.21562090200754       28.37510055883086       19.19533844504253
C           98.99178475596327       29.32450861587102       18.42782396149004
C           98.26907386891372       29.58148990298473       17.30381446002154
C           97.07306002975170       28.77677482322891       17.40073782119001
C           94.93027738682174       28.02673447441981       16.48409529038293
C           93.86587569801819       28.11193148865508       15.51725232681285
C           92.90539408219257       27.23135316309613       15.93156020728334
C           93.42633227196481       26.58657989739715       17.11824775791526
C           93.33019642237912       24.85183975432921       18.85539048190412
C           92.71550475286848       23.68035393429974       19.43269656029982
C           93.46472063590481       23.35320345250027       20.53070109960175
C           94.53294207717038       24.33410051248420       20.58371749959908
C           96.50958009719575       25.32448966722495       21.65240785825317
C           97.45247312419787       25.40895106271044       22.74486972030999
C           98.32377057860276       26.39886890622757       22.42061901503916
C           97.91203190863594       26.90124138967760       21.13164026134361
C           98.59438873114949       27.87587775063811       20.42980158292900
H           99.49354391250576       28.26603918398849       20.87875522819959
C           96.07890460881437       28.78955825438829       16.44240355215233
H           96.21046579114392       29.45314710257737       15.60304839123651
C           92.82191293738958       25.52016981985797       17.75175396218791
H           91.89370514488047       25.16004164451287       17.33573486245904
C           95.47721838360683       24.40588214928761       21.59799431489860
H           95.40255133421088       23.70454185412223       22.41265376792355
C           98.58757046642587       30.47920241764440       16.16169760228878
H           99.54268289557025       30.97155452596926       16.30953421925762
H           97.82264738447549       31.24624255857059       16.05219827830879
H           98.62819326943914       29.91520681548828       15.23059689306364
C          100.31934079291200       29.88030855791416       18.81575642169442
H          100.89648018044713       29.15128211692587       19.37502470836106
H          100.19830811205021       30.76855796038018       19.43395188591707
H          100.88312282550226       30.15926938713710       17.93013298641338
C           93.79152154364729       29.02230500052860       14.33957995214329
H           94.03729400545417       28.48348119421536       13.42453542912001
H           94.47623721761595       29.85836602039194       14.43408302578373
H           92.78352612732205       29.41641110599011       14.23462010303866
C           91.59770163646226       27.05215044389893       15.33412130174602
H           91.55625377293082       27.08476533153663       14.25301675148406
C           90.48376613123583       26.94020622333323       16.05323189645204
H           90.52615362108428       26.97318395675417       17.12729179672833
H           89.51417416288560       26.84597370481706       15.60233830680244
C           91.54333234824142       22.99755843743719       18.81609865441839
H           91.68994315472111       22.90268817270265       17.74183988413547
H           90.63718766964713       23.58284680691572       18.97798434264601
H           91.39573324860189       22.00623472301625       19.22890203467832
C           93.30827140584550       22.27743441328764       21.48170377353941
H           94.21397417700243       21.94493373647017       21.97340914403445
C           92.15210858559468       21.70367226182538       21.80994925318604
H           91.21988662640850       22.03819827756083       21.39124202418422
H           92.09360703956885       20.90795387436324       22.53027179577299
C           97.40287498507426       24.56302976014297       23.96990880747811
H           97.51294337644779       23.50953529169438       23.72032154332000
H           96.45217144222370       24.68824578324348       24.48582708085305
H           98.20068629459527       24.83421205270550       24.65488271587643
C           99.48656310439976       26.91882704215366       23.19488475036695
H          100.42427616033572       26.63759020010164       22.71788524998070
H           99.48680054771478       26.52242115451013       24.20536337954284
H           99.44848149333298       28.00408458549241       23.25406144219430
O           96.82784683059586       25.34907173123836       18.00922998469015
H           97.71387070384237       25.66038830794555       17.78615973983588
H           96.64932293946657       24.41965096342535       17.81444377971220
C           93.13763921666094       29.32194454027926       23.25777741387147
H           92.08059720665439       29.08893445775328       23.37080811807012
H           93.27694947728536       30.38420840055036       23.44297980700700
H           93.69595679802651       28.76316770196415       23.99979208548744
N           93.16286661396629       29.52945604746616       20.75411942382947
H           92.47288207296199       30.26164914248133       20.69754510051084
C           93.61460898938198       28.94194350745372       21.90473003650186
C           93.79402258364604       28.92675474211959       19.71495683809767
H           93.62641997532253       29.18535835888266       18.69178346158695
N           94.61681242630665       27.99945048695565       20.13764136536588
C           94.51525275082707       28.00136552971051       21.49705874756688
H           95.09021386237653       27.32532026208249       22.09030769888279
78
 energy: -116.048534887432 gnorm: 0.029942705951 xtb: 6.7.1 (edcfbbe)
Fe          95.70362747953747       26.69366315792834       19.08451527378117
N           97.06739675769619       28.05595845094939       18.54266853430945
N           94.63573787843507       27.11758619637900       17.45724772301524
N           94.44183508013637       25.22069375290414       19.55470611278628
N           96.79963460567863       26.25100813576310       20.70047760295466
C           98.21390684547696       28.37976350026057       19.19696626651323
C           98.99673974445447       29.32950416966182       18.42971567260709
C           98.27677241864018       29.58494465675136       17.30437799078521
C           97.07311022526181       28.78226333772482       17.39926951613265
C           94.92239389223256       28.03447192776291       16.48797415601932
C           93.85800574978840       28.11740771713221       15.52316187817945
C           92.89201939220149       27.24274998039278       15.94571270057599
C           93.41597869741918       26.60230914237203       17.12510305854230
C           93.33163654403698       24.85992882966301       18.84796492998600
C           92.70882382437560       23.69676241886971       19.42945410716721
C           93.45524603838903       23.36954191936800       20.53020398591546
C           94.53359986755923       24.34260022158335       20.58047157907739
C           96.51061713218709       25.32555613503084       21.65502617671813
C           97.45389117442703       25.41121583811388       22.74681487690107
C           98.32641033687642       26.40348901570499       22.42245971145116
C           97.91128138083535       26.90592235151583       21.13666327777618
C           98.58829887801086       27.88066457183017       20.42859227344706
H           99.49189805850462       28.27193228910973       20.87021669605635
C           96.07897833743118       28.79231936869455       16.44133043576848
H           96.21791905766813       29.44808484821435       15.59625480885066
C           92.82396903561786       25.52121109185392       17.74632186095140
H           91.90778738576958       25.14447168298546       17.31584432905639
C           95.47755413442417       24.40723189487555       21.59465408382309
H           95.40026841841208       23.69857684740157       22.40481162721653
C           98.59757853532501       30.48543788843835       16.16363950110701
H           99.55512756298752       30.97628790631165       16.31379676417713
H           97.83317978207265       31.25528284496228       16.05765063685617
H           98.63797531685873       29.92380878719265       15.22998836291251
C          100.32505021611887       29.88504414087818       18.82483503517956
H          100.90703511372712       29.15270418595448       19.37913800827893
H          100.20475405071028       30.76868078453697       19.45321043948818
H          100.89525412087966       30.17582495170554       17.94412415083204
C           93.79193969346279       29.02217923021000       14.34029708155631
H           94.04580395895286       28.48182820677131       13.42687006617459
H           94.47804825234078       29.85854059307226       14.43933471759423
H           92.78358077832424       29.41669611705971       14.22561630546167
C           91.57996218633896       27.05463155472151       15.35395594299511
H           91.55345231233066       27.07326784563123       14.27110059348707
C           90.45568788835864       26.93395703726431       16.05293030668822
H           90.46766673061506       26.95959186493482       17.13025087244192
H           89.49299604841845       26.81854201421683       15.58430060148893
C           91.54280190496131       22.99535864872777       18.82206519757607
H           91.68221491729491       22.90488693368399       17.74539896354304
H           90.62013564835001       23.55366768819536       18.99412390924507
H           91.42812470159141       21.99795874333341       19.23904827263240
C           93.29112065602561       22.29076885293965       21.47478411474613
H           94.20856469743107       21.94546034404485       21.93638818639627
C           92.14213344880909       21.71510077776941       21.82027670555691
H           91.19519441375122       22.04022936832903       21.42425592929267
H           92.10591134086673       20.89767437384069       22.52185705862322
C           97.40376262499498       24.55959576587174       23.96787291708954
H           97.51414915658104       23.50704060734226       23.70902069074512
H           96.44896780996079       24.68185649915833       24.47926001070434
H           98.19940433462924       24.82532186876468       24.65885479008889
C           99.49251521347797       26.92000313849174       23.19677284680478
H          100.43030057972840       26.64217657833239       22.71530365036656
H           99.49556142768036       26.51681972628067       24.20589961111400
H           99.45546279585477       28.00649723055110       23.26215433920185
O           96.84374214282175       25.32565308185173       17.93498129109645
H           97.76949792850021       25.56634347619804       17.76056457426670
H           96.70437766390096       24.37511474711041       17.79623313830614
C           93.12531900492462       29.33067803288449       23.25806980860060