72
 energy: -105.979970195128 gnorm: 0.000189762255 xtb: 6.7.1 (edcfbbe)
Fe          49.14148828805957       17.59987039324932       70.33988959458365
N           48.53899013050639       18.65170169924722       71.91915936960635
N           50.98130511453217       17.46282418683370       71.11911236532058
N           49.75546914142270       16.57197064630537       68.71569018133951
N           47.33652579906484       17.82069533090779       69.50095695445462
C           47.29386764416313       19.14018231254481       72.14874807956032
C           47.23598735868429       19.81451385240595       73.42830107301539
C           48.48434748582395       19.73265757153517       73.95860900089812
C           49.28549439769643       19.00496104051105       72.99764442832840
C           51.41272644285794       18.01179233590501       72.28687402646045
C           52.80828747345720       17.72758726356085       72.50297700423242
C           53.22015737456245       16.98322329566099       71.43007139584688
C           52.05990812202693       16.84366542751028       70.57180910081627
C           50.98640623493533       16.01997399438127       68.52210964377207
C           51.02686210232201       15.29267742520877       67.28258831138557
C           49.77673290475285       15.39253073038255       66.73322062731755
C           49.00322355735621       16.21094058078857       67.64263894772459
C           46.93912416222055       17.37203130265807       68.27967143421978
C           45.56444619169859       17.74094449195873       68.02368395246380
C           45.13348899596188       18.40038402174030       69.13202322227998
C           46.25555011901985       18.44059863106434       70.04290478859795
C           46.22020263200147       19.04374651584464       71.28469476849963
H           45.28755812053851       19.48725853238544       71.59653170983370
C           50.62428143130924       18.72229101760217       73.17505394442844
H           51.09205317202422       19.08120624432783       74.07856991195743
C           52.06505001785104       16.14589265711264       69.37974037913833
H           52.98536081347221       15.66630408893652       69.08501285143488
C           47.70772511510673       16.62995563244942       67.40445034302314
H           47.25958557641280       16.34120780506592       66.46738601289221
C           48.99910342731554       20.25941632869205       75.25351697815219
H           49.39202551005292       19.44993743578843       75.86934165349301
H           48.20943420511720       20.75971346033492       75.80836101834971
H           49.80323546470420       20.97501859595044       75.08165923223352
C           46.01176613671744       20.45530289273841       73.98491393039833
H           45.20280667752227       19.72934877523384       74.06839340636461
H           45.67488427436113       21.26400211242129       73.33605889281824
H           46.20599081624536       20.86745143045906       74.97195004848328
C           53.61616692518941       18.23002960933093       73.64744528621969
H           53.47481243444125       17.60422185780916       74.53049068236564
H           53.32596792487874       19.24742792419129       73.90461614496121
H           54.67283045205505       18.22388896445054       73.38832132782061
C           54.53163870258130       16.44842643102524       71.13663807937228
H           54.80069854840011       16.41559529690738       70.08731946689747
C           55.39891341121576       16.00139463829452       72.03871576775465
H           55.16720564939222       15.96703655610765       73.08899471760807
H           56.36768942478942       15.62793498514022       71.75153022536470
C           52.20943472416486       14.55049930685576       66.76491320778882
H           52.48997309495195       13.74944123483240       67.44950321046467
H           53.06586184919029       15.21710344189159       66.65821464874681
H           51.98852040234498       14.10904305384946       65.79656730295662
C           49.31771493729692       14.78865614471724       65.49798104283461
H           50.03510335795799       14.79544351626040       64.68428861434072
C           48.13655170785511       14.21073403010556       65.31595632032418
H           47.41310626368983       14.12924335308414       66.10941289425907
H           47.86282852774573       13.77348774906166       64.37012792270151
C           44.82707488512212       17.41043788092959       66.77238515086479
H           44.74358894837241       16.33010857529789       66.65273669387163
H           45.34986207247849       17.80641909109590       65.90165720301758
H           43.82480797214243       17.83090747656952       66.79201219543117
C           43.79748580349756       18.99284353503182       69.42002281403740
H           43.12050859631437       18.84485623566161       68.58247424598828
H           43.88457596046548       20.06335214954387       69.60721738586575
H           43.35710567863455       18.52970669317456       70.30303554275548
O           49.74641744554665       19.45266258529391       69.22453325887295
H           50.35257296548669       19.07446017978198       68.57708284814574
H           48.92870248423051       19.66260251684534       68.75835924359230
C           48.82467003372326       15.60470693783934       73.08902213508789
H           48.81790637611693       14.59303406318614       73.48291048361386
H           48.02269446437071       16.18509004070045       73.53312673141529
H           49.77575677284064       16.09378741398050       73.26986353320630
S           48.49538438372806       15.54899793580263       71.29252497387641
H           49.59941438695080       14.85663853567088       70.98968011383853
