72
 energy: -105.910384076461 gnorm: 0.241094066537 xtb: 6.7.1 (edcfbbe)
Fe          49.16300000000000       17.43100000000000       70.38500000000001
N           48.55600000000000       18.61300000000000       71.93099999999998
N           51.06799999999999       17.58100000000000       70.99299999999998
N           49.82100000000000       16.54100000000000       68.68899999999999
N           47.30500000000000       17.59400000000000       69.60700000000000
C           47.27699999999999       19.06500000000000       72.21499999999999
C           47.29700000000000       19.83300000000000       73.43199999999999
C           48.56300000000000       19.86500000000000       73.86300000000000
C           49.36199999999999       19.11799999999999       72.94700000000000
C           51.50899999999999       18.12600000000000       72.19199999999999
C           52.87700000000000       17.74300000000000       72.44700000000000
C           53.28300000000000       17.01100000000000       71.39500000000000
C           52.17300000000000       16.92600000000000       70.46599999999999
C           51.11200000000000       16.11200000000000       68.40000000000001
C           51.13500000000000       15.41900000000000       67.13400000000000
C           49.87500000000000       15.43600000000000       66.64200000000000
C           49.05300000000000       16.15300000000000       67.59099999999999
C           46.92700000000000       17.13100000000000       68.34200000000000
C           45.54500000000000       17.45500000000000       68.11199999999998
C           45.07500000000000       18.16100000000000       69.29699999999998
C           46.19899999999999       18.21700000000000       70.18899999999999
C           46.16599999999999       18.83900000000000       71.41000000000000
H           45.19800000000000       19.18100000000000       71.77699999999999
C           50.72599999999999       18.88200000000000       73.06600000000000
H           51.23200000000000       19.32900000000000       73.92200000000000
C           52.18299999999999       16.27400000000000       69.25900000000000
H           53.13200000000000       15.83900000000000       68.94499999999999
C           47.71500000000000       16.44200000000000       67.45099999999999
H           47.23099999999999       16.08900000000000       66.54100000000000
C           49.09599999999999       20.59600000000000       75.10400000000000
H           49.39000000000000       19.85200000000000       75.87500000000000
H           48.30400000000000       21.25300000000000       75.52200000000001
H           49.98600000000000       21.20200000000000       74.82899999999999
C           46.08400000000000       20.46800000000000       74.11600000000000
H           45.15600000000000       19.97000000000000       73.76300000000001
H           46.03200000000000       21.54799999999999       73.86199999999999
H           46.16399999999999       20.34100000000000       75.21700000000000
C           53.65599999999999       18.13800000000000       73.72400000000000
H           53.51000000000000       17.36000000000000       74.50299999999999
H           53.27699999999999       19.10900000000000       74.10899999999999
H           54.74000000000000       18.21800000000000       73.49299999999999
C           54.63100000000000       16.33600000000000       71.12700000000000
H           54.89900000000000       16.05900000000000       70.09699999999999
C           55.53900000000000       16.05200000000000       72.10899999999999
H           55.32500000000000       16.30700000000000       73.15800000000000
H           56.49400000000000       15.56500000000000       71.86199999999999
C           52.34900000000000       14.78200000000000       66.47100000000000
H           53.06000000000000       14.43700000000000       67.25200000000000
H           52.85900000000000       15.52800000000000       65.82500000000000
H           52.03000000000000       13.90900000000000       65.86300000000000
C           49.43100000000000       14.81400000000000       65.33499999999999
H           50.10800000000000       14.80500000000000       64.46800000000000
C           48.23399999999999       14.27100000000000       65.19799999999999
H           47.52699999999999       14.25900000000000       66.04000000000001
H           47.93000000000000       13.82400000000000       64.23999999999999
C           44.73500000000000       17.14300000000000       66.85500000000000
H           44.55900000000000       16.04800000000000       66.79000000000001
H           45.29700000000000       17.47200000000000       65.95500000000000
H           43.75500000000000       17.66300000000000       66.90200000000000
C           43.67299999999999       18.72200000000000       69.55800000000001
H           42.94300000000000       18.22200000000000       68.88700000000000
H           43.66100000000000       19.81400000000000       69.35299999999999
H           43.38300000000000       18.53100000000000       70.61299999999999
O           49.71000000000000       19.47500000000000       69.20699999999998
H           50.65600000000000       19.58800000000000       69.29999999999998
H           49.15599999999999       20.01800000000000       68.77300000000000
C           47.96800000000000       15.56200000000000       72.89200000000000
H           48.00400000000000       14.68300000000000       73.56999999999999
H           46.90199999999999       15.77300000000000       72.66000000000000
H           48.40100000000000       16.43000000000000       73.43299999999999
S           48.88100000000000       15.25700000000000       71.38200000000001
H           50.07200000000000       15.27400000000000       71.96199999999999
72
 energy: -105.956386041581 gnorm: 0.095156253415 xtb: 6.7.1 (edcfbbe)
Fe          49.18483536583713       17.50992167472180       70.32945012286514
N           48.55727777938897       18.60800473015166       71.93725300025781
N           51.08039155942006       17.55629967450409       71.01588396359014
N           49.82306160810302       16.53137241401782       68.67432302066224
N           47.30416280866624       17.59489076750702       69.60428021186799
C           47.28520889204817       19.05109958025474       72.21529162026957
C           47.28729297853551       19.82727612185786       73.43508784348948
C           48.57101536829032       19.87132877795007       73.86831460604971
C           49.36107245424768       19.10839149646842       72.93887708124417
C           51.50852991429817       18.10614806625073       72.20166070068795
C           52.88731830842232       17.74926106780756       72.45373295138509
C           53.30609943901938       17.00303444384916       71.38979725809715
C           52.17453119383180       16.91455995553101       70.47933214851604
C           51.10054019867655       16.10130741832348       68.40312900324231
C           51.13721950930014       15.42081661214954       67.12987076230139
C           49.86740509035020       15.43977862022375       66.63157664842406
C           49.05037235321989       16.14640265897303       67.60106204182554
C           46.90911007213121       17.13859184181838       68.36625918188487
C           45.52728938887728       17.47112932186700       68.13200223529171
C           45.07711727742890       18.13735179621681       69.27484138970797
C           46.20373046749247       18.20007746011201       70.16970348497387
C           46.17920431014855       18.82457589055096       71.40603000337582
H           45.21943738016481       19.18799727840531       71.76137140641299
C           50.72247657510072       18.87108419736142       73.05834708797936
H           51.21970567866111       19.31630433471880       73.91348107589216
C           52.17944717737694       16.26762317877484       69.25958787209314
H           53.12405954467003       15.84128301677486       68.94118436703354
C           47.70759214043245       16.44958662347592       67.46531462439657
H           47.22933341901880       16.12401789870449       66.54944891598667
C           49.09570975436737       20.58567985205693       75.09190936420018
H           49.38961307898728       19.86244450982954       75.86196259117951
H           48.32387988819296       21.23913475640971       75.50925526308936
H           49.96996519401993       21.19234731120537       74.83459492263374
C           46.09005751495508       20.45746348488807       74.10338788746878
H           45.16565438296111       19.97850411892967       73.76982320382037
H           46.03232544378168       21.52633792781952       73.86580742289843
H           46.16249177384879       20.34528062658504       75.19076425861078
C           53.64525260061483       18.13805595880052       73.70610225665901
H           53.50975266708196       17.37561502698211       74.48386574384361
H           53.28429914134499       19.09285203002872       74.09872045432277
H           54.71409598800157       18.22961977933373       73.49175468690129
C           54.62062411032951       16.35090536607796       71.14855373198957
H           54.86749574842923       16.07702541498563       70.12339073146291
C           55.51869941718864       16.06156639522268       72.09769039257132
H           55.32980837889458       16.28294532630290       73.13916640940627
H           56.46223136318100       15.58057827557740       71.85744610349600
C           52.34147485741504       14.78959821378094       66.48383767105877
H           53.05227482385067       14.44087453333822       67.23950530906046
H           52.85160738708217       15.51439212525793       65.83769728849660
H           52.03637673911020       13.93208525527651       65.87540930967427
C           49.42187180015441       14.83216970324954       65.35540438165420
H           50.11537494026141       14.82165750249570       64.51361505535010
C           48.23091711307456       14.26945270489878       65.19972437778358
H           47.52851700177376       14.22037064960054       66.02116856609842
H           47.93213497787029       13.82841190724475       64.25472250124307
C           44.74544304574975       17.15067047220466       66.88121032343280
H           44.56653806639656       16.07042444347553       66.79736863788435
H           45.28696756918495       17.46967118754600       65.98221561778561
H           43.77535176552488       17.65533563336862       66.89981901520193
C           43.70082573909630       18.70414036130838       69.54484571929734
H           42.95824311473039       18.22890933601749       68.89657284882249
H           43.67129111874389       19.78609283700481       69.35790587691947
H           43.39855029748332       18.53160717517117       70.58480768039703
O           49.71443314422814       19.45116613888714       69.23069031934752
H           50.65643597919652       19.59489014098864       69.29538037654487
H           49.14650895304019       20.03440059697860       68.76038881172303
C           47.96413987686867       15.56646980729353       72.91129778999816
H           48.00521739186903       14.68344578097937       73.55964362133804
H           46.92039362811463       15.77396497886483       72.65745878570472
H           48.38717596903449       16.42910724335543       73.43282170315904
S           48.87587519463976       15.29176864218581       71.37936025064256
H           50.07426480616648       15.26704954886893       71.96043810702297
72
 energy: -105.968283445187 gnorm: 0.028191670609 xtb: 6.7.1 (edcfbbe)
Fe          49.19103514840243       17.53484968651330       70.31311510980296
N           48.56455184914185       18.61741238548160       71.92858583478267
N           51.08773874441366       17.54465519817056       71.02454256486564
N           49.82204053497767       16.53585312172156       68.66800788040702
N           47.31150271841744       17.61025357066553       69.59405420513012
C           47.29909685600997       19.04332088571750       72.20664281039078
C           47.28486784666643       19.81579552549865       73.43291759716998
C           48.57708861928514       19.87021931453318       73.86660380047965
C           49.36095876992795       19.10125151078199       72.92447396044125
C           51.50422366358595       18.08940008612828       72.20387705652381
C           52.88588102154947       17.75003184709261       72.45825825042951
C           53.31122172099865       16.99590223990811       71.38826245657341
C           52.16858961551412       16.90699929222513       70.48832569883305
C           51.08692945425226       16.10205026740277       68.40944997257732
C           51.13371049981553       15.42576789558720       67.13427940914195
C           49.85668608334326       15.44293480805646       66.63538353620676
C           49.04992927840760       16.15459765355530       67.61423137176234
C           46.90822143707477       17.15389793372367       68.37868475105323
C           45.51783362809904       17.47904539004798       68.14865326552214
C           45.08306781652983       18.11907859037171       69.26086500431801
C           46.21761389606805       18.19555819272986       70.15547024361074
C           46.19698210330311       18.81736040499074       71.39804545635096
H           45.24441265407350       19.19839817086691       71.74201208602200
C           50.71752637088462       18.85703440319669       73.05210394441168
H           51.20575809176153       19.29584543776421       73.91073562874982
C           52.17191070451900       16.26346536102860       69.26169698805069
H           53.11236365018436       15.84224048303103       68.93771015763748
C           47.70772415141595       16.46792136015838       67.47301526800361
H           47.23243099727961       16.16064690046831       66.55404660795459
C           49.09759212839548       20.57288619755071       75.07599061193672
H           49.39326778097716       19.85981550732434       75.84507304494754
H           48.33489300737408       21.22384785774237       75.49313918471266
H           49.96441136462384       21.18122649997851       74.82912747475311
C           46.09772653754074       20.44187171306194       74.08820022569739
H           45.17361441869173       19.97527198686323       73.76395146523545
H           46.04013193799852       21.50564427582049       73.85707121657327
H           46.16635620690661       20.34103117522302       75.16955332773934
C           53.63531924030607       18.14220636996631       73.68509359398615
H           53.50915734371341       17.38744042272782       74.46326355873333
H           53.27816027898714       19.08795609580073       74.08164576916369
H           54.69634953444292       18.24257009125769       73.47624780396576
C           54.59579295878552       16.36825538582015       71.16252579607311
H           54.82369495143463       16.10700366851502       70.13565849032184
C           55.49583971818744       16.06589264845410       72.09089266989422
H           55.33302965453804       16.25566276225928       73.13469886370969
H           56.43359780629419       15.59627644594823       71.84418017418750
C           52.33065447468705       14.79970406504624       66.49785409447747
H           53.04028161598993       14.44985507481672       67.24161270126129
H           52.84259713991505       15.51425340081923       65.85225024766713
H           52.03317701374975       13.95057760428411       65.88767689469499
C           49.41265505289316       14.84483774117888       65.38864532010734
H           50.12192413765914       14.85259651756494       64.56739558658536
C           48.23049942364632       14.26237737199065       65.20743562898242
H           47.51930573924352       14.18201306477663       66.00847591613510
H           47.94368618914031       13.83233542171079       64.26352505782079
C           44.75511444115191       17.15520386776527       66.90497555737024
H           44.58328746119556       16.08159732612609       66.81773423277221
H           45.29477669690327       17.47468799075096       66.01446598528493
H           43.78935412292726       17.65232460395381       66.90875551338637
C           43.72608847052863       18.68491543425736       69.53694898369305
H           42.97890733280926       18.22378900011974       68.89647931815786
H           43.70161577988425       19.76144859286395       69.35779249299819
H           43.42741572231058       18.51859658655810       70.57053673647684
O           49.70469750344482       19.43071757720313       69.27692223696270
H           50.64847992204510       19.60783944671866       69.27710878906203
H           49.15150231876505       20.01900854491723       68.75878410738422
C           47.95748439151744       15.57633028637700       72.92814582103323
H           48.01084046612095       14.68644303201650       73.54936481948566
H           46.92691076819672       15.77645612404157       72.65756675753420
H           48.37385713081881       16.43517677321529       73.43980482931141
S           48.86487145593976       15.30274771721281       71.37685499256304
H           50.07418243341584       15.26151981198248       71.94652318995776
72
 energy: -105.971160483069 gnorm: 0.024450301524 xtb: 6.7.1 (edcfbbe)
Fe          49.19012467169516       17.54634741268213       70.30922270330267
N           48.56789159630161       18.61204247329192       71.92539741518958
N           51.08170438410296       17.53276938935378       71.03136298304013
N           49.81849145810170       16.54493555587730       68.67328822305014
N           47.31765143494503       17.61992894551661       69.58906124917050
C           47.30682450784649       19.03849142323985       72.20083975918750
C           47.28818785242898       19.80519879947859       73.42891649733731
C           48.57901336832254       19.86068863735568       73.86333260458485
C           49.36087147033017       19.09203352997686       72.91947642988754
C           51.49638347099467       18.07698656465809       72.20844010078964
C           52.87597123562173       17.74620832844306       72.46214570516001
C           53.30068925029708       16.99212063433177       71.39224250842122
C           52.15922816325979       16.90001909173910       70.49449302439278
C           51.07943585833058       16.10538804065468       68.41851519592173
C           51.12702208173949       15.42982042177723       67.14504258281441
C           49.84860815030831       15.44535502256559       66.64877672708381
C           49.04829146849317       16.16396690701496       67.62431007586171
C           46.91717635747242       17.16506961025440       68.37592251855635
C           45.52259390373389       17.48019259396285       68.14847693401968
C           45.08681880400380       18.11314252841367       69.26684989008560
C           46.22688403544575       18.19817830838036       70.15611489435807
C           46.20571071211166       18.82059740076451       71.39349895350736
H           45.25729203470172       19.21442623812055       71.72963000384026
C           50.71305771979194       18.84414407218358       73.05621728905608
H           51.19611406034155       19.27405695361744       73.92090617404193
C           52.16581907157055       16.25981247086008       69.26705420238515
H           53.10433594335648       15.83967963748730       68.93857359144819
C           47.71157709862207       16.48537444597606       67.46905219674578
H           47.24038628194500       16.19692524270141       66.54243438392945
C           49.10397128675426       20.56134126136322       75.06807048344051
H           49.40321543053221       19.84763951814150       75.83602004087858
H           48.34150794942185       21.21272690392080       75.48615976160096
H           49.97058748938856       21.17005110893523       74.81792072592307
C           46.09972682753322       20.43014370796691       74.07625884833044
H           45.17551140127784       19.96302645248372       73.75087400395989
H           46.04506915779701       21.49341259265735       73.83977569034398
H           46.16662723267010       20.33343340188072       75.15847758827894
C           53.63182094225522       18.15386237851856       73.67568667615538
H           53.52061569615069       17.40060695864180       74.45855337219940
H           53.26631710710124       19.09856711287910       74.06943364045836
H           54.68984226478187       18.26454833591194       73.45336493101307
C           54.58226154587658       16.37741953279380       71.16078833280328
H           54.80255248359970       16.13380581179728       70.12819514977662
C           55.48876540164565       16.06205648494906       72.08217683455752
H           55.32851889792016       16.21346384292204       73.13546566783455
H           56.42555196116268       15.60177279395713       71.81812959113971
C           52.32368729503265       14.80774838357922       66.51021240583520
H           53.03218461184044       14.45606581379684       67.25482040065289
H           52.83641176933512       15.52589340608577       65.86823705397353
H           52.02668355685731       13.96115901660581       65.89577310713091
C           49.40419085572123       14.85350540061607       65.40663059894025
H           50.12384250725134       14.88020883569906       64.59531233272124
C           48.23231348264968       14.25392102939687       65.20906600844540
H           47.51803847826782       14.12671631604760       66.00668600964082
H           47.96333928595364       13.82767728864019       64.25805883381148
C           44.76353620856546       17.15309757471932       66.90900291937164
H           44.60106610153601       16.07835825604981       66.82696737590646
H           45.30813242735491       17.47902997979303       66.02469009003133
H           43.79542688460353       17.64640931459787       66.91283851867802
C           43.73481078143802       18.67529771165768       69.54442860829626
H           42.98971889307263       18.21789472457066       68.89877774499070
H           43.72279679645806       19.75184790249076       69.36715752276073
H           43.44208106736480       18.50239653729946       70.57743088654034
O           49.69244557443209       19.46271449489323       69.34740971563997
H           50.64706504884094       19.61557318972608       69.23210001344951
H           49.16037987887233       19.99671460746621       68.73374048113658
C           47.95132770464333       15.58741781627639       72.93668993095166
H           48.01502411862294       14.68919394256489       73.54435807804784
H           46.92076442733630       15.78332802309507       72.66456948694501
H           48.36482165573023       16.44526591937658       73.45209474794825
S           48.85136300621819       15.32552444703321       71.37172798585382
H           50.06692805991558       15.25926118752258       71.93027298643612
72
 energy: -105.972593704019 gnorm: 0.031741189487 xtb: 6.7.1 (edcfbbe)
Fe          49.18791614962863       17.55089354237722       70.31502729433261
N           48.57044995977472       18.60042665791535       71.92298281898566
N           51.07151315620300       17.52202973876489       71.03935816203489
N           49.81512708121098       16.56676642958629       68.67984462111258
N           47.32996499802784       17.63407017996067       69.58154066775025
C           47.31330918969802       19.03290610990157       72.19412876514157
C           47.29195861616166       19.79430520600263       73.42326285511953
C           48.57916414870712       19.84698137661880       73.86035330142384
C           49.35972301274275       19.07751794605683       72.91840266165265
C           51.48747194859340       18.06348951903871       72.21612766910796
C           52.86508937008531       17.74020075377127       72.46664868808358
C           53.28767723956214       16.98838189813338       71.39731755405865
C           52.14853934523902       16.89429540574968       70.50160471169738
C           51.07332121785728       16.11485826604788       68.42866943341960
C           51.12033102256795       15.43575719558473       67.15955737688833
C           49.84244303842585       15.44994350491591       66.66550703485103
C           49.04767244037638       16.17781363447861       67.63353307108142
C           46.92902383351642       17.17727966248790       68.36888477429241
C           45.53112544933491       17.48104267939914       68.14674930982932
C           45.09382363123114       18.10872166800323       69.27276233586093
C           46.23826057809797       18.20259681697852       70.15514038011234
C           46.21298620018400       18.82649371775966       71.38602713653286
H           45.26823720769447       19.23263736062260       71.71396044492757
C           50.70727214483487       18.82581206102334       73.06754853196961
H           51.18508652820640       19.24645777674866       73.93876715281564
C           52.15992427069310       16.25788879255396       69.27443478383204
H           53.09522672131151       15.83413758192582       68.94306202218613
C           47.71647436504050       16.50227778583452       67.45998862220492
H           47.25067410285347       16.21367754856557       66.53161473736729
C           49.11243920662113       20.54676930773168       75.06177862621966
H           49.41756860976718       19.83153957262107       75.82765795347814
H           48.35194331665618       21.19959619732570       75.48398867163178
H           49.97912009935499       21.15442378633047       74.80330156225601
C           46.09927659688761       20.41884701958567       74.06218515838192
H           45.17715309871094       19.94643059314026       73.73420699764533
H           46.04499908481619       21.48107093492076       73.81646939996907
H           46.16249515774960       20.32753236191438       75.14603330299821
C           53.63378775757031       18.16784237176667       73.66594830780771
H           53.54424289216302       17.42036750659016       74.45871524826462
H           53.25999634494982       19.11353095381372       74.05366077544883
H           54.68768348939017       18.28773070236287       73.42176791972481
C           54.57134326194810       16.38285254895792       71.15447326128637
H           54.79453895956495       16.17354054842263       70.11413391191502
C           55.47770221102559       16.04649046296764       72.07129114438801
H           55.32159372095985       16.17666188317309       73.12852426385160
H           56.42031570494022       15.60844338181570       71.78653642233203
C           52.31776648888943       14.81523866621996       66.52662385109028
H           53.02341363912478       14.45962334258857       67.27380848203127
H           52.83280348451666       15.53940359902302       65.89119141730120
H           52.02142516990779       13.97180677650348       65.90596730426473
C           49.39787661421086       14.85549750165886       65.42551193818960
H           50.11772532860174       14.91272664498779       64.61536392689953
C           48.23933422849393       14.23558190329957       65.22011232326840
H           47.51053297197809       14.10747442999422       66.00248797225019
H           47.98204287950725       13.82387694672914       64.25774910908899
C           44.77296053955732       17.14832545157611       66.91055243510769
H           44.62151667367991       16.07146927994201       66.83198754313923
H           45.31890235679461       17.48048094766142       66.02897623169515
H           43.80023625612194       17.63461916048318       66.91500256629115
C           43.74243746468365       18.66410967414515       69.55599746508405
H           42.99824358204528       18.21199604472693       68.90434006591549
H           43.73690726467603       19.74237591308729       69.38641627347467
H           43.45336749662432       18.48017762573826       70.58807764543361
O           49.68245172549257       19.49001842756451       69.39277261049276
H           50.63120043147197       19.61543481545970       69.20725034794839
H           49.18342401375704       19.97682361259175       68.70021832633715
C           47.94284903699973       15.60214811892305       72.94424037198283
H           48.01988045528084       14.69715795131475       73.54070184344737
H           46.90890794102442       15.79431841728478       72.68028127737718
H           48.35657298964008       16.45828345049763       73.46458867332218
S           48.82748417328618       15.35288030921225       71.36274736138010
H           50.04875031269663       15.25882003853874       71.90755279091454
72
 energy: -105.971812340819 gnorm: 0.042986022115 xtb: 6.7.1 (edcfbbe)
Fe          49.18528681063939       17.55506556344356       70.32262793539557
N           48.57298762816559       18.58863675254440       71.91914868191911
N           51.05912173538781       17.51199791816783       71.04785172246750
N           49.81061925603045       16.58600352051272       68.68964681202165
N           47.34245087839119       17.64740431735128       69.57526042982037
C           47.31861788719974       19.02904717434048       72.18687668752783
C           47.29583986928878       19.78571679727477       73.41671163435925
C           48.57832702289747       19.83233699676832       73.85798293443870
C           49.35825877222614       19.06164091381206       72.91971125808854
C           51.47902621866656       18.05019480043213       72.22526574226360
C           52.85558806620483       17.73378487721803       72.47070158193767
C           53.27521087183729       16.98570632114102       71.40196861009079
C           52.13746547115623       16.88767306955462       70.50960199326902
C           51.06766128242107       16.12288553218010       68.43975550166822
C           51.11267977899332       15.43863090142638       67.17559265571641
C           49.83670523333198       15.45551059922808       66.68201195403907
C           49.04665021010943       16.19220064127584       67.64174953744396
C           46.94024499755317       17.19018820176810       68.36089163333365
C           45.54001803250914       17.48264244638950       68.14453040275114