87
 energy: -124.720516582474 gnorm: 0.000048752809 xtb: 6.7.1 (edcfbbe)
Fe           6.93855953594090      -14.33041200979145        3.67985530128102
N            5.34958418975238      -14.92140833497597        4.73520441556839
N            5.98358904143185      -12.63851789804920        3.19305411860584
N            8.53425541684562      -13.72863943189783        2.61791681999762
N            7.92870952561740      -15.98342472636969        4.23245367299316
C            5.22370109665754      -16.07504033785569        5.44040149240001
C            3.90582874821449      -16.17244503048317        6.03116437237167
C            3.24096728868259      -15.04503420103682        5.66649491943041
C            4.16276045047943      -14.27495203819620        4.85941401613675
C            4.72898920367887      -12.27214618397344        3.56483619802447
C            4.40268593626752      -10.96317042253059        3.04368356210079
C            5.49452705699831      -10.54727954596721        2.34736809888778
C            6.47071034573996      -11.60864840069265        2.45277364311379
C            8.66906761223969      -12.56522489409575        1.93258271114860
C            9.95974540983985      -12.50405868699851        1.27503075994917
C           10.61312171911245      -13.65844966625354        1.61792614250370
C            9.71102734849429      -14.39695364767205        2.46343892937310
C            9.19786524291682      -16.32756046779930        3.89368480586359
C            9.56626609537036      -17.59061489187338        4.50365965608377
C            8.47716706761552      -17.98636932924250        5.23427443710204
C            7.47247977162534      -16.97153297181007        5.04618424213945
C            6.20619869418480      -17.02935853301092        5.60201296323037
H            5.96594245379436      -17.89257464034251        6.20347631888088
C            3.86293262032346      -13.03611840652150        4.32524910454496
H            2.88146762686816      -12.63137819366322        4.52040738092932
C            7.71320464263586      -11.56938474035360        1.84968926538423
H            7.95322705163799      -10.69294697570508        1.26763113713359
C           10.02541895375091      -15.61115956443454        3.05061750662858
H           10.99724596243965      -16.02819358672972        2.83485954217122
C            3.44015395527103      -17.31677132906068        6.86431033661947
H            4.06546906755397      -17.42581895497553        7.75100112547529
H            3.49125660208559      -18.24679544508614        6.29813691224248
H            2.41246085603449      -17.16813927258508        7.18670760486610
C            1.84963842171494      -14.61999204164220        5.99050939431133
H            1.27270515285056      -14.47428493159186        5.07722592043489
H            1.85200358781656      -13.67921426877146        6.54231099020583
H            1.34752248286564      -15.36992298318340        6.59669614024069
C            8.33796375420135      -19.17710944426895        6.11697876906328
H            7.80053882480590      -19.97894327796874        5.60772338111130
H            7.78646521901578      -18.92326129877712        7.02098352727164
H            9.32065782550211      -19.54872248933227        6.40058421693617
C           10.85232927978695      -18.23437334415623        4.35457338842868
H           11.70047088695469      -17.56810211924305        4.24445559988831
C           11.06020526083642      -19.54704553564209        4.33488574858315
H           10.25264290005595      -20.25579040585640        4.39169518306306
H           12.05054950724003      -19.95923001179213        4.23404544726758
C           12.00212459568785      -14.07159921203319        1.27592657572216
H           12.00506962620930      -14.79163240011211        0.45555247554183
H           12.48902353929158      -14.53667742234266        2.13200565203937
H           12.58527037558745      -13.20409018264310        0.97371586861178
C           10.41790199994010      -11.40315549966296        0.45714097716910
H           10.06360638557014      -10.42181099251028        0.75115189908185
C           11.21123582943312      -11.50917741354229       -0.60394583944245
H           11.55446964955038      -12.46090470431769       -0.97062983922267
H           11.52514720558052      -10.64226818013057       -1.16144897269457
C            5.71030318078247       -9.27656975844106        1.59971093560888
H            5.89877168918336       -9.47978695740895        0.54512844715250
H            6.57015462645979       -8.73777682628972        1.99863272110136
H            4.83801945691873       -8.63158182030943        1.67275750710416
C            3.09982482412610      -10.27267702634640        3.26103785159687
H            3.09206115100750       -9.30002503281366        2.77533940097994
H            2.91395880060044      -10.12605603263808        4.32548243571394
H            2.27996962177791      -10.86530270279923        2.85411116946525
C           10.19525784007233      -12.32006611226621        7.74163224854490
H           10.02363892066661      -12.67574847123665        8.75753798419687
H           10.35491125524114      -11.24249131575617        7.78015611171684
H           11.09356846342170      -12.79114710554256        7.35517967198569
N            7.77416875490804      -12.19844204752379        7.11200725653322
H            7.49760115510781      -11.61485054426987        7.88437917122047
C            9.04366204209086      -12.65181599970856        6.86512418730043
C            6.97117837543852      -12.67619806224941        6.13513398321140
H            5.92052652175725      -12.48206085473173        6.07189042768648
N            7.65434157948686      -13.40349169553648        5.28573490531053
C            8.94461616426313      -13.39787164172453        5.72591533500630
H            9.71078296768501      -13.92682672848558        5.19865280973363
C            4.50746076152986      -13.73783198889486        0.27981510500802
H            4.45545120154964      -13.04906249105644       -0.56109490735624
H            4.28700251706202      -13.19089851450445        1.19162483757451
H            3.75303180876876      -14.51017741606516        0.15009636509438
C            5.88907132523053      -14.35756097368265        0.35881803965124
H            6.65757487245927      -13.59590816889840        0.47936805372219
H            6.09525762839559      -14.95444387099815       -0.52964373135878
S            5.99146122221294      -15.49885410899604        1.79806925344997
C            7.28940119205303      -16.59749197465178        1.15199826665454
H            8.18621471877428      -16.02384891696793        0.94091819567687
H            6.92168707377573      -17.09218978666253        0.25677384836870
H            7.49693938658497      -17.33111413293912        1.92307409555601
