78
 energy: -115.759118478225 gnorm: 0.383953378908 xtb: 6.7.1 (edcfbbe)
Fe          -5.51900000000000       -5.74600000000000        8.44800000000000
N           -5.28500000000000       -7.59400000000000        7.67400000000000
N           -4.81900000000000       -5.01900000000000        6.72100000000000
N           -5.39200000000000       -4.11000000000000        9.59000000000000
N           -5.97000000000000       -6.85600000000000       10.07300000000000
C           -5.52800000000000       -8.87800000000000        8.07000000000000
C           -5.33500000000000       -9.99200000000000        7.10300000000000
C           -5.02000000000000       -9.34400000000000        5.82800000000000
C           -5.04500000000000       -7.91300000000000        6.22000000000000
C           -4.57800000000000       -5.52000000000000        5.49700000000000
C           -4.12800000000000       -4.51500000000000        4.48900000000000
C           -4.17000000000000       -3.30800000000000        5.32700000000000
C           -4.49800000000000       -3.56100000000000        6.74700000000000
C           -5.34600000000000       -2.73900000000000        9.00200000000000
C           -5.30100000000000       -1.62000000000000        9.98900000000000
C           -5.40400000000000       -2.38200000000000       11.26200000000000
C           -5.48500000000000       -3.82200000000000       10.89500000000000
C           -6.40700000000000       -6.05700000000000       11.28100000000000
C           -6.62100000000000       -7.10700000000000       12.29200000000000
C           -6.49100000000000       -8.46000000000000       11.75000000000000
C           -6.07800000000000       -8.17000000000000       10.36500000000000
C           -5.81800000000000       -9.23400000000000        9.43900000000000
H           -5.83900000000000      -10.27400000000000        9.75700000000000
C           -4.76700000000000       -6.92300000000000        5.19900000000000
H           -4.69700000000000       -7.25000000000000        4.16200000000000
C           -5.32100000000000       -2.59800000000000        7.52600000000000
H           -5.88700000000000       -1.81400000000000        7.02800000000000
C           -5.57200000000000       -4.96100000000000       11.80300000000000
H           -5.07300000000000       -4.99700000000000       12.76500000000000
C           -4.72500000000000       -9.98200000000000        4.48500000000000
H           -4.77800000000000      -11.08800000000000        4.58000000000000
H           -3.70400000000000       -9.69800000000000        4.15000000000000
H           -5.47600000000000       -9.64800000000000        3.73800000000000
C           -5.48600000000000      -11.46300000000000        7.36700000000000
H           -6.36600000000000      -11.63400000000000        8.02400000000000
H           -4.57700000000000      -11.84800000000000        7.87500000000000
H           -5.64200000000000      -12.00200000000000        6.40800000000000
C           -3.78100000000000       -4.76000000000000        3.04600000000000
H           -4.37800000000000       -5.61400000000000        2.66100000000000
H           -2.70100000000000       -5.00500000000000        2.95600000000000
H           -4.01600000000000       -3.85600000000000        2.44500000000000
C           -3.77400000000000       -1.93100000000000        4.94500000000000
H           -4.05600000000000       -1.09200000000000        5.59800000000000
C           -3.09400000000000       -1.64000000000000        3.85500000000000
H           -2.78300000000000       -2.43600000000000        3.16200000000000
H           -2.82900000000000       -0.59800000000000        3.62400000000000
C           -5.18900000000000       -0.14500000000000        9.68100000000000
H           -6.14900000000000        0.35800000000000        9.92400000000000
H           -4.97100000000000       -0.00300000000000        8.60100000000000
H           -4.38000000000000        0.30600000000000       10.29500000000000
C           -5.42100000000000       -1.88000000000000       12.66700000000000
H           -5.51000000000000       -2.60100000000000       13.49300000000000
C           -5.33400000000000       -0.59700000000000       12.98900000000000
H           -5.24300000000000        0.17000000000000       12.20600000000000
H           -5.35200000000000       -0.28400000000000       14.04300000000000
C           -7.02900000000000       -6.66600000000000       13.68300000000000
H           -7.61200000000000       -5.72200000000000       13.61700000000000
H           -6.12300000000000       -6.48800000000000       14.30100000000000
H           -7.66200000000000       -7.44800000000000       14.15400000000000
C           -6.63200000000000       -9.78300000000000       12.42400000000000
H           -6.87200000000000       -9.62900000000000       13.49800000000000
H           -5.67800000000000      -10.34800000000000       12.34600000000000
H           -7.45500000000000      -10.36000000000000       11.95000000000000
C          -11.08400000000000       -4.36900000000000        7.56100000000000
H          -11.81200000000000       -5.04900000000000        8.05200000000000
H          -11.41600000000000       -4.17900000000000        6.51800000000000
H          -11.04400000000000       -3.41400000000000        8.12700000000000
N           -9.52700000000000       -6.20700000000000        6.92100000000000
H          -10.21500000000000       -6.71200000000000        6.40000000000000
C           -9.74600000000000       -5.00100000000000        7.55200000000000
C           -8.27600000000000       -6.57100000000000        7.12100000000000
H           -7.82800000000000       -7.48200000000000        6.72700000000000
N           -7.68800000000000       -5.65300000000000        7.86400000000000
C           -8.59000000000000       -4.67400000000000        8.17700000000000
H           -8.32600000000000       -3.83900000000000        8.81300000000000
O           -3.33100000000000       -6.25400000000000        9.34800000000000
H           -3.11500000000000       -7.13200000000000        9.03500000000000
H           -2.82200000000000       -5.73900000000000        9.86400000000000
78
 energy: -115.904934331763 gnorm: 0.211139886585 xtb: 6.7.1 (edcfbbe)
Fe          -5.49058810696359       -5.79737291358524        8.46039214953891
N           -5.29780550031711       -7.64077785110534        7.59731621835435
N           -4.80934574768187       -5.00503320084273        6.74137466920372
N           -5.40948672842312       -4.05452802170116        9.56124867351283
N           -5.99895338053276       -6.84360981663412       10.08468465823301
C           -5.51120359050123       -8.89917239471588        8.08078503138226
C           -5.33583292061713       -9.96883683982968        7.08904303638872
C           -5.03133195032628       -9.32929259895431        5.86833638541975
C           -5.03161005439435       -7.89668758508865        6.19353874182746
C           -4.58118183157915       -5.51647533430759        5.51188863679371
C           -4.13984919933198       -4.49932892739192        4.53789628177038
C           -4.16955795394770       -3.30124152931792        5.31231091008651
C           -4.58998276986668       -3.57967500193551        6.68532196003562
C           -5.34917946108167       -2.74129495401836        8.97641278315990
C           -5.32173798206821       -1.67914730706176        9.99024923805305
C           -5.38826779060027       -2.39102070974209       11.24724092555947
C           -5.46198544131495       -3.81931318283960       10.88958671956433
C           -6.30874998781396       -6.11990563848808       11.30996980439631
C           -6.62661195916565       -7.13115068440552       12.30375815828138
C           -6.49063259264107       -8.41715038344254       11.75263742883496
C           -6.08947198994789       -8.16084441777829       10.36590346029628
C           -5.81833936917622       -9.20118099719094        9.43424753265083
H           -5.84209535332731      -10.24177170201061        9.75426724791183
C           -4.76453279338941       -6.90815395010899        5.22429201745896
H           -4.69251858818985       -7.23941252748477        4.18775853612071
C           -5.28864210457745       -2.62404891563851        7.53849355512385
H           -5.83302989897651       -1.81263141623718        7.04902251823578
C           -5.59397449377373       -4.95127490456337       11.77062985620931
H           -5.12285305378469       -4.97364575099907       12.75281515583158
C           -4.73312961153460       -9.96615508754021        4.51891279947536
H           -4.77827935111329      -11.06516537758920        4.58474896020137
H           -3.72447610089089       -9.69873093601778        4.16024777873509
H           -5.46248534174653       -9.64945426020690        3.75415715504096
C           -5.48552991154320      -11.44171752406790        7.36297997982489
H           -6.35307041930150      -11.63193301517207        8.01363564816506
H           -4.59048275388081      -11.84266116059394        7.86596159222045
H           -5.63729248787895      -11.99322258478362        6.42359466217267
C           -3.79166317148787       -4.75285303749909        3.08354960115981
H           -4.36874574344349       -5.59949719600196        2.67536386231682
H           -2.72105267647031       -4.99832331292738        2.96196488537903
H           -4.01483097120949       -3.87289840287853        2.45903757607057
C           -3.77781958025621       -1.94012975536387        4.93846320272595
H           -4.05756478145942       -1.11564493396202        5.60052300897354
C           -3.08934869759672       -1.63783392378168        3.84661451794052
H           -2.77350951600348       -2.41685183504682        3.16335320282854
H           -2.82765406986475       -0.60856410301300        3.61850564587049
C           -5.19632611758528       -0.18940804036162        9.68920818780129
H           -6.13461117151715        0.34451044041066        9.92230071914512
H           -4.97538610962354       -0.01519684504451        8.62310235397585
H           -4.39439482930164        0.28765915409645       10.28090248220580
C           -5.41640908218504       -1.88639081368934       12.63796245403197
H           -5.50893700564835       -2.60535120358173       13.45996966646928
C           -5.33538082860578       -0.59904822261960       12.98018950036517
H           -5.24534135745807        0.16980658172387       12.22250074342185
H           -5.35148424886189       -0.28751238052533       14.02450313564785
C           -7.03211616145837       -6.67969925389855       13.68023176450558
H           -7.60118356723064       -5.73923349192375       13.61802901284716
H           -6.13877570868484       -6.49596216336520       14.29739648590786
H           -7.65682634777637       -7.44137011110430       14.15935683992592
C           -6.63146722739666       -9.75749596508122       12.41676635063076
H           -6.86883120638477       -9.63052243483061       13.48296127422408
H           -5.69533105660046      -10.33705687352198       12.34496856064760
H           -7.44009493131807      -10.34965324385041       11.95554624369290
C          -11.08947329403655       -4.36791905938736        7.56109164032594
H          -11.81243123897436       -5.03781317883488        8.04645348332755
H          -11.41928221359059       -4.17648654964743        6.53064265877747
H          -11.04787703973203       -3.42460632138955        8.11759725140122
N           -9.53385157350152       -6.20112549939086        6.92002301100394
H          -10.22260576798110       -6.71086021596341        6.39607090964791
C           -9.75328395248474       -5.00551476364757        7.55793294511859
C           -8.26382574595701       -6.56160207033259        7.12776934312723
H           -7.82481170400482       -7.46684180632147        6.73527878312889
N           -7.66069618549003       -5.65695782828816        7.87129143023319
C           -8.57862186162309       -4.68531887452322        8.16977174771946
H           -8.32309078923649       -3.85021034507533        8.80109852481665
O           -3.34984979628686       -6.25561410701201        9.32302236778655
H           -3.10770970254284       -7.13432471819861        9.03926692186502
H           -2.80540439692776       -5.73126389095461        9.87675683693747
78
 energy: -115.977773978347 gnorm: 0.079108916518 xtb: 6.7.1 (edcfbbe)
Fe          -5.47240269603539       -5.84262143290432        8.46754807494175
N           -5.29362824941881       -7.67957677475836        7.52685063275367
N           -4.82077506149817       -4.96975193746566        6.75694487025651
N           -5.41197422198936       -4.00259615626196        9.53651716482118
N           -6.00034253470969       -6.81591861768536       10.11404103449436
C           -5.50239544132823       -8.91034516898693        8.08515369669484
C           -5.33077999763749       -9.94757824031302        7.07503263173750
C           -5.04251328967389       -9.32056194341641        5.90126113114175
C           -5.03184909038687       -7.88584590938230        6.18786046898893
C           -4.58068876975430       -5.51507208771332        5.52867250111730
C           -4.15615295946319       -4.48999267115462        4.58268727849510
C           -4.19183515403850       -3.30217943618574        5.30421529365627
C           -4.67729660273533       -3.60571807475375        6.64692510656215
C           -5.36080493387669       -2.76250849981048        8.95732824667741
C           -5.33612418143934       -1.73192996833122        9.98467944220010
C           -5.37440316552131       -2.40212586386199       11.21956959675312
C           -5.44534760068356       -3.82630246531875       10.88161409034712
C           -6.20690001768949       -6.17162451018145       11.32006498753534
C           -6.60588967832492       -7.14916860528285       12.30936198349016
C           -6.48783129414826       -8.38169516544190       11.75378066353671
C           -6.09760916924701       -8.14961764980730       10.36378952704397
C           -5.82419409022208       -9.15891571631266        9.42417707096640
H           -5.84908817390578      -10.19974823336159        9.74781538099310
C           -4.76023929207816       -6.89418805041769        5.25833208949162
H           -4.68063214801119       -7.22534155637422        4.22107099921851
C           -5.25596818339849       -2.65673986925957        7.55044313660631
H           -5.74439685702479       -1.79578198820348        7.06937415408157
C           -5.62022105176373       -4.94712847479108       11.72784759845691
H           -5.20534117511758       -4.93865569767565       12.74328309182978
C           -4.74180170598232       -9.95218751842403        4.54886388096814
H           -4.78133952262415      -11.04381061024567        4.59966143958240
H           -3.74277469424324       -9.69010625169070        4.18197401152322
H           -5.45685454883776       -9.64244758423787        3.77779840258410
C           -5.48371437430228      -11.42161670444547        7.35604400151649
H           -6.34211509302288      -11.61900336268086        8.00258756511166
H           -4.59918749602380      -11.82920220240373        7.85712828243290
H           -5.63182869198395      -11.98206203903292        6.43207546719496
C           -3.80156318652888       -4.74710167448866        3.12237642047254
H           -4.36574503552866       -5.58821131628347        2.70484373175815
H           -2.73862767203151       -4.98952555585356        2.98346694660716
H           -4.01951222326584       -3.88296013021001        2.48695388344573
C           -3.78876310615849       -1.95730234520396        4.93273781657061
H           -4.06261526139295       -1.14679302684182        5.60479068656734
C           -3.08856307194976       -1.64049756894398        3.84316188535742
H           -2.76286246208927       -2.40069504546115        3.16214663555211
H           -2.82758010604819       -0.62003820742505        3.61843381623118
C           -5.20452612033906       -0.23267886939472        9.69468419164667
H           -6.12738008589880        0.31699545016149        9.92499920806805
H           -4.98132331080536       -0.04276818562636        8.63995365029193
H           -4.40600459655627        0.25149045561973       10.27298903832732
C           -5.40923466423938       -1.89257196974883       12.59642643436545
H           -5.50508795820431       -2.61322805659081       13.41154826853140
C           -5.33473775313459       -0.60715910906489       12.96437391065783
H           -5.24724915648485        0.17307785442104       12.23467113802504
H           -5.35393745232639       -0.30055357010242       14.00215271708003
C           -7.02864587407284       -6.69550299392168       13.67404086464477
H           -7.59030510587962       -5.75987404767247       13.61183665836976
H           -6.15014318584468       -6.50501048417380       14.29649229761977
H           -7.65006141299170       -7.44024434832353       14.16200461026300
C           -6.63550912513810       -9.73502609780287       12.40864113882075
H           -6.86731035308273       -9.62385477836928       13.46850708308175
H           -5.70962456995959      -10.31698861495805       12.33706983260689
H           -7.43099446976154      -10.33385720844677       11.95317453022793
C          -11.09191097060937       -4.36632844155701        7.56308020329548
H          -11.81449786283342       -5.02719277302093        8.04220149058646
H          -11.42036322276937       -4.17397819405582        6.54175282006564
H          -11.05096101850208       -3.43096746207082        8.11096783440608
N           -9.53706560709676       -6.19784354941506        6.91985188188641
H          -10.22490547418657       -6.71139518797007        6.39316863134210
C           -9.75622045707400       -5.01098763196241        7.56608659649062
C           -8.25247274229003       -6.55339029639202        7.13287202875371
H           -7.82091626885942       -7.45338975486921        6.74139893352621
N           -7.63879047382645       -5.66163225638579        7.87402022299540
C           -8.56630803611513       -4.69737542579551        8.16306169243823
H           -8.31988993447262       -3.86021436850562        8.78862153866297
O           -3.36857887050259       -6.24422838464650        9.28767903705216
H           -3.09159850264651       -7.13187215688652        9.05420152267045
H           -2.80237203036041       -5.74265763318588        9.87918317483416
78
 energy: -116.006756803845 gnorm: 0.056272229852 xtb: 6.7.1 (edcfbbe)
Fe          -5.46929930335594       -5.86765947410523        8.46904975397562
N           -5.30459655948497       -7.68757345546736        7.50889590380411
N           -4.84537799393024       -4.96194174835175        6.77118313570357
N           -5.42177623505579       -4.00680980215829        9.51773950338530
N           -5.98281607762873       -6.80441515478456       10.12585563220608
C           -5.50147830528306       -8.90919858327143        8.08188733108016
C           -5.32964545481150       -9.94368916590625        7.07593034036441
C           -5.04603092721853       -9.31461515549904        5.90368116288120
C           -5.02513869853330       -7.88495715314701        6.19510304759621
C           -4.58574822479322       -5.51981739949356        5.54787055185428
C           -4.17640939100157       -4.49614870226901        4.60695203782927
C           -4.23401611827268       -3.30103016222147        5.29677120400044
C           -4.74940741653655       -3.61765953129985        6.62783343299327
C           -5.36421633524856       -2.78782653226757        8.93885303409068
C           -5.34650334246990       -1.75810454566142        9.96446427907299
C           -5.36053714298012       -2.41603325004415       11.18784880465482
C           -5.43824356911103       -3.83837532565221       10.86162899855664
C           -6.13055027660072       -6.19080438980418       11.32921902948775
C           -6.56408345181255       -7.15135544376855       12.32497238857188
C           -6.48217359941149       -8.37756143293508       11.74581073533659
C           -6.10494129741708       -8.14414080404500       10.35527594918955
C           -5.83674721563489       -9.13310457808078        9.41427886864573
H           -5.86812627766795      -10.16626352763560        9.74354994747510
C           -4.74503335513492       -6.88425882997792        5.27690965887605
H           -4.64928015869761       -7.20582850163562        4.24347200447688
C           -5.23321290793947       -2.65055510964557        7.54663619012050
H           -5.61247751430354       -1.71543083916225        7.08818387986455
C           -5.63747191089698       -4.92716004816518       11.71399471129341
H           -5.32403221443564       -4.85515350356259       12.77065165722723
C           -4.74895249925127       -9.93975211630148        4.56424759582774
H           -4.78900801214657      -11.02661647661081        4.62365159020083
H           -3.75243249136877       -9.66986176197353        4.21096571028926
H           -5.46346799732058       -9.62292307263828        3.80248427229614
C           -5.48138093822739      -11.41140750747681        7.35158301563199
H           -6.33932929489165      -11.60078217514467        7.99540493987053
H           -4.59778133047977      -11.81168858515878        7.85237942009096
H           -5.62572519821656      -11.97003329134291        6.42945710509362
C           -3.81286602340660       -4.74848097006314        3.15973511077195
H           -4.37251857883064       -5.59087366822479        2.75131001319645
H           -2.75117031946076       -4.97918974883417        3.02974897418922
H           -4.03736648969508       -3.88563006971368        2.53186820910960
C           -3.81005733457072       -1.96981545816964        4.92124251994003
H           -4.07730846118206       -1.17346111761919        5.60770106189415
C           -3.09214177400710       -1.64477883702652        3.84407537869391
H           -2.74474129690417       -2.39066146084928        3.15708106431643
H           -2.82480866531875       -0.62501599526374        3.62839338546087
C           -5.21592949856260       -0.27119968792167        9.69014015051641
H           -6.13425007782248        0.27188315967051        9.93187687730347
H           -4.99288758377576       -0.08678400809223        8.64005998480853
H           -4.41226877442566        0.18996857394937       10.27039807389590
C           -5.39512963303208       -1.90082613790184       12.55134385736938
H           -5.49445193997568       -2.63514913624738       13.34810252225769
C           -5.33318709691180       -0.62186273764396       12.93805842058064
H           -5.24910474233169        0.18167649400767       12.23236108296404
H           -5.35988205558662       -0.33055552328389       13.97753820532592
C           -7.01533305031951       -6.71109158226084       13.68034415437202
H           -7.57893336202272       -5.78082893998840       13.60212508323440
H           -6.15042044804387       -6.51804077573535       14.31607943611726
H           -7.64275379732363       -7.45453064549802       14.16165996137108
C           -6.64281822104258       -9.72296062659132       12.39657977579422
H           -6.87067331016466       -9.60869623074639       13.45457211456550
H           -5.71710232671529      -10.29673232226054       12.31997847421537
H           -7.43528119254806      -10.31408402253062       11.93766207177090
C          -11.08708868639237       -4.36665776663903        7.56756558735104
H          -11.81967985528877       -5.01842921626452        8.04263987444820
H          -11.41711817215456       -4.17101171234399        6.54832416047677
H          -11.04907687682024       -3.42988664935842        8.11065254491368
N           -9.53155503578862       -6.19990247371359        6.92173782080476
H          -10.21884999448853       -6.71258598362943        6.39244149657278
C           -9.75078074417540       -5.01661964239084        7.57454065489765
C           -8.24269905105489       -6.55172459890887        7.13311746744690
H           -7.81050544899375       -7.44787152252815        6.74034530350634
N           -7.62642858261885       -5.66630732771983        7.87437624945864
C           -8.55457577816499       -4.70480340964652        8.16161005162612
H           -8.30918015429509       -3.86400151829079        8.77836731501140
O           -3.35688394320031       -6.22339167734468        9.22701835707528
H           -3.07295350693466       -7.13616040932340        9.07759333804563
H           -2.81378907807750       -5.75638748039305        9.87795699041403
78
 energy: -116.024334246834 gnorm: 0.049855240225 xtb: 6.7.1 (edcfbbe)
Fe          -5.46764323479995       -5.87799472584129        8.46763049375665
N           -5.31481401887216       -7.67870077927232        7.51535435563858
N           -4.88277926625360       -4.95067639446071        6.78535092426073
N           -5.43293088159235       -4.03069898917789        9.49712907184700
N           -5.95235638878958       -6.78880630995864       10.13729168580120
C           -5.50841354405464       -8.89818559708738        8.08033823116281
C           -5.33289201450440       -9.93494986945828        7.08414805417091
C           -5.04417344086664       -9.30216185028412        5.90817012210394
C           -5.03037082936439       -7.87924022642810        6.20400121098229
C           -4.60038085185217       -5.51965259115236        5.56992116119358
C           -4.19685348289151       -4.50382629446005        4.62589581559991
C           -4.27683893134220       -3.30031415104971        5.29366771804793
C           -4.79507917310354       -3.61365008309505        6.62347194058693
C           -5.36682035439918       -2.81105557117976        8.91751974291092
C           -5.34686189491095       -1.77928762456367        9.93892650728320
C           -5.35641972250662       -2.43172584386363       11.15656309118248
C           -5.44566899232689       -3.85322178675494       10.83643373591151
C           -6.08153182750664       -6.19290962445847       11.34436151693440
C           -6.51695459305957       -7.15031783092261       12.33848020941506
C           -6.47681316699049       -8.37388458785737       11.73777739628352
C           -6.10454202444704       -8.13206424934816       10.35236350343063
C           -5.85432303243994       -9.11211883826438        9.40979041218115
H           -5.90327309910741      -10.13986871254300        9.74141672039268
C           -4.73301781602449       -6.87342220879309        5.29097500800649
H           -4.59972144783312       -7.18917368412028        4.26384816898657
C           -5.20472854209106       -2.63914850014069        7.54088854404869
H           -5.48444289151919       -1.66256107149147        7.10976647572949
C           -5.66786498851060       -4.90594326750402       11.70904244503509
H           -5.44402866092610       -4.77770142486009       12.77992088327843
C           -4.75325299841968       -9.92226507944323        4.58078102767604
H           -4.79518474065980      -11.00715271793104        4.64491354732526
H           -3.75788373890965       -9.64753638268849        4.23414758577728
H           -5.46928634200056       -9.60060519966998        3.82513326274895
C           -5.48003671532310      -11.39773733859868        7.34996219475916
H           -6.33968582005458      -11.58645437691476        7.99016689888879
H           -4.59623200933847      -11.79367913813918        7.85144077266495
H           -5.61890247607772      -11.95412614859632        6.42622824277021
C           -3.82560737328278       -4.75432217714251        3.19603734192001
H           -4.37842431913651       -5.60207440032373        2.79530917391582
H           -2.76215385133021       -4.97135516230113        3.08018164378850
H           -4.05870102744928       -3.88950043374741        2.57759625263828
C           -3.83738197138384       -1.98094958916171        4.90835197288334
H           -4.10536177952478       -1.19287746123613        5.60108581182274
C           -3.09888741628719       -1.65186538419853        3.84719543626415
H           -2.73119222415255       -2.38256170381135        3.15057859131882
H           -2.81847687093539       -0.63081233674444        3.64768032571832
C           -5.22350405346336       -0.30966574247281        9.67789935764044
H           -6.14046182897561        0.22283683784272        9.93629820448988
H           -5.00695486611795       -0.12351238939627        8.62972858288585
H           -4.41446041529086        0.12829906355947       10.26332525601542
C           -5.38717478156837       -1.91151854534423       12.50837477193822
H           -5.47775966578315       -2.66190462248628       13.28711535793166
C           -5.33244931931751       -0.63965805189237       12.90868591559436
H           -5.25239423442262        0.18711021665185       12.22614252008676
H           -5.36541772302101       -0.36827775784986       13.95274237769915
C           -6.99012282562462       -6.72940163380712       13.68911640528378
H           -7.56434257106091       -5.80713960656184       13.59890322299254
H           -6.14401491532188       -6.53260346550831       14.34846663792795
H           -7.62450010953243       -7.48002106735834       14.15295894127243
C           -6.65331119105529       -9.71102599554706       12.38052613411536
H           -6.88136523237962       -9.59446926296273       13.43775100976962
H           -5.72797894122171      -10.28302811307272       12.30235602439480
H           -7.44572321467597      -10.29401584553302       11.91584584142939
C          -11.07644251447356       -4.36701555769610        7.57249372455911
H          -11.81938976340694       -5.01084909278597        8.04487415785583
H          -11.40598925756664       -4.16841844917511        6.55256390301293
H          -11.03942792460139       -3.42761522023894        8.11331736079781