78
 energy: -116.057409897505 gnorm: 0.000058480918 xtb: 6.7.1 (edcfbbe)
Fe           7.05410530082827        4.84525748642391       -1.27399876372457
N            6.88196079268671        3.29764431740167        0.00318949522759
N            8.88404045671439        5.21563628942434       -0.57879568313209
N            7.17307515578692        6.42302143320245       -2.48574756689082
N            5.19241437949184        4.47465110142936       -1.94199841820822
C            5.84017355207265        2.42848548765741        0.10537767899593
C            6.10208877946515        1.43468022821441        1.12157511195476
C            7.33043497477344        1.72237004989328        1.63151970178480
C            7.80605650665471        2.88314012581798        0.91398250119970
C            9.53793866678679        4.54616856983411        0.40805370469397
C           10.85737905701549        5.08795429871833        0.60603663763893
C           11.00576501905705        6.08829272904279       -0.31540080655746
C            9.74348410004588        6.16564247258021       -1.02635200005667
C            8.23083634989176        7.26844567892792       -2.61164938822769
C            7.93474757228817        8.32615174508337       -3.54523770573273
C            6.66079076563900        8.09879982298942       -3.99262349323529
C            6.21253997070663        6.89295050307473       -3.32090277569827
C            4.51296521630173        5.17593892391584       -2.88952382392829
C            3.22835285054386        4.56779001829551       -3.15196845023028
C            3.15115493532651        3.47485648087766       -2.34524140534105
C            4.38652195973898        3.43420677940176       -1.59597916992908
C            4.67799273985044        2.47712839003587       -0.64237975851017
H            3.93983653883607        1.71028649755648       -0.46479861716128
C            9.03972767538141        3.46819829961975        1.12093136279002
H            9.67257581082131        3.04125197543213        1.88414741048465
C            9.43647361532141        7.14867075416519       -1.94557037613145
H           10.18747064567981        7.90043438459491       -2.13130082185783
C            4.96915260990541        6.31975617785318       -3.51772985817000
H            4.30358066012525        6.79488928784932       -4.22203505292638
C            8.09422871001567        1.02750016361954        2.70637135306151
H            7.52344864020028        0.19513749761924        3.11062034675438
H            8.32134512033480        1.71548516373453        3.52099111691139
H            9.03748064409432        0.64039461719619        2.31958470656633
C            5.16066540366649        0.33928050712045        1.48902870849652
H            4.95369473184694       -0.29356613652319        0.62571024074803
H            4.21359895996162        0.74866268681142        1.84168983833480
H            5.57879780629987       -0.28251219437475        2.27684161049792
C           11.85090137857984        4.58397693609645        1.59549496955954
H           12.13893703837924        3.55706603940057        1.36610158862896
H           11.43139804181975        4.59895942919367        2.60165753504516
H           12.74758438876540        5.19833942391934        1.58299534236738
C           12.18647951130199        6.89710664675566       -0.53833932202429
H           12.73425866508631        7.17550253767659        0.35567885524012
C           12.65352846439996        7.27277649957469       -1.72359442799676
H           12.17777783738894        6.97799225814083       -2.64375699131653
H           13.54491129540417        7.87116220044350       -1.81521684272725
C            8.88621579943111        9.39187478567656       -3.96302204539490
H            9.89701697544160        8.99583913435153       -4.04667565956827
H            8.90290714222574       10.20364358354725       -3.23421093450084
H            8.59018671723315        9.80081056057169       -4.92707168420345
C            5.88041447294206        8.84716419127220       -4.95293318424156
H            5.20551103780277        8.26224803551705       -5.56762047667989
C            5.92447534270895       10.16458224515070       -5.12363758064541
H            6.53767511920320       10.80106537425735       -4.51023019201889
H            5.32279777741974       10.65635396566045       -5.87009073345348
C            2.23513818035406        5.09155221460548       -4.13180427098240
H            2.65740162118311        5.10329592635480       -5.13701280411706
H            1.94477168730164        6.11089968719067       -3.87610931066108
H            1.34048423893344        4.47387889365238       -4.14394510468960
C            2.04951586063616        2.48102086395062       -2.20471591333675
H            1.23095120674724        2.71251072257970       -2.88175691397595
H            1.66113058880973        2.47882696278460       -1.18573854550784
H            2.40876722740277        1.47691813592631       -2.43103145127204
C            8.23908615057900        2.21152567756729       -6.03936268308969
H            7.95054213236200        1.16385513650388       -6.12433392303237
H            9.23999862047498        2.32414438670693       -6.45575217504781
H            7.54917814455488        2.81098705497676       -6.62485983372227
N            8.98445611531942        2.08347633008971       -3.65208794062257
H            9.64018878185579        1.33224922183567       -3.79086435784733
C            8.20439944541327        2.65523128146119       -4.62282657120456
C            8.71407258868242        2.71231344202749       -2.48596264504924
H            9.17940535013200        2.47233035941581       -1.55222070510661
N            7.81083065178827        3.64645361785988       -2.65949336990077
C            7.48402868982717        3.62305519311646       -3.98345551409396
H            6.75736766864523        4.29890331213333       -4.38399469441306
O            6.06683513540324        6.11853078498033        0.35642556680771
H            6.01376494589661        5.46192756712820        1.05951837472888
H            5.18181128799955        6.21156676539453       -0.01256102043950
