78
 energy: -115.948993103064 gnorm: 0.282195917446 xtb: 6.7.1 (edcfbbe)
Fe          10.16300000000000        2.36400000000000       26.56900000000000
N            9.39500000000000        2.54400000000000       28.39300000000000
N           10.24900000000000        4.39600000000000       26.46900000000000
N           10.80500000000000        2.19900000000000       24.69500000000000
N           10.00400000000000        0.36300000000000       26.68600000000000
C            8.89100000000000        1.53300000000000       29.16800000000000
C            8.30500000000000        2.07600000000000       30.40100000000000
C            8.42500000000000        3.36900000000000       30.32700000000000
C            9.10300000000000        3.69600000000000       29.09400000000000
C            9.82800000000000        5.31900000000000       27.38000000000000
C            9.86800000000000        6.62600000000000       26.78700000000000
C           10.33200000000000        6.47300000000000       25.53500000000000
C           10.54500000000000        5.08500000000000       25.33200000000000
C           11.22600000000000        3.22700000000000       23.88700000000000
C           11.86700000000000        2.73500000000000       22.69200000000000
C           11.84500000000000        1.39700000000000       22.77200000000000
C           11.16700000000000        1.07100000000000       24.01400000000000
C           10.25300000000000       -0.50300000000000       25.64800000000000
C            9.75000000000000       -1.81200000000000       25.96200000000000
C            9.08700000000000       -1.67200000000000       27.31600000000000
C            9.35300000000000       -0.30500000000000       27.66700000000000
C            8.93900000000000        0.22800000000000       28.86100000000000
H            8.61900000000000       -0.47400000000000       29.63200000000000
C            9.42200000000000        4.98400000000000       28.65300000000000
H            9.34300000000000        5.79300000000000       29.37900000000000
C           11.08300000000000        4.54200000000000       24.20600000000000
H           11.44600000000000        5.25200000000000       23.46400000000000
C           10.91500000000000       -0.20500000000000       24.45200000000000
H           11.25100000000000       -1.03600000000000       23.83100000000000
C            7.93300000000000        4.34900000000000       31.39800000000000
H            8.66800000000000        4.38900000000000       32.23000000000000
H            6.95400000000000        4.00800000000000       31.79800000000000
H            7.83000000000000        5.36400000000000       30.95900000000000
C            7.64900000000000        1.26300000000000       31.51100000000000
H            8.23000000000000        0.33100000000000       31.68100000000000
H            6.61300000000000        0.99200000000000       31.21600000000000
H            7.63400000000000        1.85500000000000       32.45100000000000
C            9.50700000000000        7.95400000000000       27.44500000000000
H           10.43500000000000        8.47500000000000       27.76200000000000
H            8.87400000000000        7.77000000000000       28.33900000000000
H            8.96200000000000        8.59600000000000       26.72000000000000
C           10.57100000000000        7.56900000000000       24.44800000000000
H           10.34900000000000        7.34200000000000       23.39500000000000
C           11.04500000000000        8.80700000000000       24.73400000000000
H           11.28300000000000        9.08800000000000       25.77000000000000
H           11.19700000000000        9.54500000000000       23.93300000000000
C           12.53300000000000        3.57700000000000       21.53700000000000
H           12.44400000000000        4.66000000000000       21.76900000000000
H           12.01600000000000        3.37000000000000       20.57600000000000
H           13.60900000000000        3.31400000000000       21.45300000000000
C           12.39600000000000        0.38800000000000       21.74000000000000
H           12.38500000000000       -0.68200000000000       21.99299999999999
C           12.89300000000000        0.71300000000000       20.54500000000000
H           12.93500000000000        1.76500000000000       20.22500000000000
H           13.26700000000000       -0.06700000000000       19.86500000000000
C            9.76300000000000       -3.09600000000000       25.18400000000000
H           10.68800000000000       -3.66400000000000       25.42200000000000
H            9.74500000000000       -2.87500000000000       24.09500000000000
H            8.88100000000000       -3.71200000000000       25.46100000000000
C            8.38900000000000       -2.79900000000000       28.12200000000000
H            8.74100000000000       -3.78800000000000       27.75800000000000
H            7.28900000000000       -2.73500000000000       27.98200000000000
H            8.64100000000000       -2.70100000000000       29.20000000000000
O            7.47000000000000        2.39300000000000       25.84300000000000
H            7.00200000000000        2.78700000000000       26.57900000000000
H            7.10700000000000        2.10000000000000       25.08600000000000
C           15.85800000000000        2.93000000000000       27.07600000000000
H           16.51100000000000        2.04000000000000       26.94700000000000
H           16.24300000000000        3.54100000000000       27.92100000000000
H           15.87300000000000        3.52600000000000       26.13900000000000
N           14.11900000000000        1.71400000000000       28.46900000000000
H           14.77100000000000        1.39000000000000       29.15500000000000
C           14.45100000000000        2.48200000000000       27.37200000000000
C           12.81600000000000        1.48300000000000       28.46000000000000
H           12.28800000000000        0.89800000000000       29.21200000000000
N           12.29300000000000        2.07500000000000       27.40400000000000
C           13.29300000000000        2.70500000000000       26.70700000000000
H           13.08500000000000        3.25600000000000       25.79800000000000
78
 energy: -116.011105035633 gnorm: 0.118790073529 xtb: 6.7.1 (edcfbbe)
Fe          10.13687757979052        2.36221523240373       26.56336582724627
N            9.36643902786419        2.55577085999466       28.39361961212510
N           10.22431249115327        4.39652842925942       26.44884383980369
N           10.83150770070583        2.19317342785887       24.68350710843703
N            9.97073863745798        0.36414394440506       26.66255379011407
C            8.89925941427812        1.53510563279132       29.17941566023220
C            8.30943945124651        2.06194871149504       30.40581411259407
C            8.43608625422484        3.39484883928721       30.33812357064459
C            9.11349770773690        3.70877313500849       29.09524163404085
C            9.83382499920362        5.32218044232362       27.37252610208330
C            9.88352321479523        6.64601999513805       26.79366083474708
C           10.33839360226529        6.50184111135559       25.51728486000501
C           10.55003691652257        5.09547789916158       25.32475497798952
C           11.24431924105999        3.22291043313173       23.87663231890473
C           11.88176552401128        2.73260121101487       22.67507681692190
C           11.85104313716611        1.37246165361501       22.75280100988353
C           11.18139545356195        1.05352849299883       24.01256407931891
C           10.24086047892685       -0.52386719699173       25.65898572678805
C            9.72714323488849       -1.82120145555225       25.99866626754321
C            9.12562055214076       -1.69471050328497       27.28532139367981
C            9.34885579339918       -0.32689511932081       27.64996031428553
C            8.94036454819248        0.20949913117756       28.86355397844018
H            8.60093146459237       -0.48518467399123       29.62247982121951
C            9.42310418472263        4.98872683583160       28.65446548248937
H            9.31864453264026        5.79600345315747       29.37119101523285
C           11.09221485990370        4.55277863817439       24.18533564318864
H           11.44402640622467        5.26221215985633       23.44851613172270
C           10.91016976172745       -0.22073224589034       24.46450744015388
H           11.23221936503639       -1.04478474392107       23.84030900818485
C            7.94145708539836        4.35787278229469       31.38850546570900
H            8.65783415842609        4.39600093436241       32.21822090936507
H            6.97572847782837        4.02102746097796       31.78427439732357
H            7.82806973903086        5.36005545596675       30.96971735587109
C            7.65836550388094        1.25941883181215       31.50008565890921
H            8.22021116381246        0.33780915889560       31.68190211916101
H            6.63111856996324        0.99323394651941       31.22208041312720
H            7.63414652080621        1.83995145412084       32.42921960925296
C            9.50734169806097        7.94463768668981       27.45180310526143
H           10.41645708974353        8.46968758611084       27.76798218051738
H            8.87806411565764        7.77456896438089       28.33007275892046
H            8.97250048084985        8.58268918792776       26.73768601407758
C           10.56864933804384        7.56451787772656       24.47510959844101
H           10.34896275500584        7.32005039496528       23.43428383772027
C           11.03424914378839        8.78633190231326       24.74044989483949
H           11.28501000673567        9.08506135931636       25.75062599965145
H           11.18967898575412        9.51897414361775       23.95156055674499
C           12.51494629389610        3.57914280783711       21.56679464373136
H           12.44127273305910        4.64933634821322       21.77697879857389
H           12.01188271254960        3.38928296010412       20.61051658267806
H           13.57762892400664        3.32141257939088       21.46642533180143
C           12.38599217033404        0.39866654708257       21.75349400020521
H           12.37002212478025       -0.65741042641693       22.01912705459536
C           12.88776473836157        0.70750198697310       20.55854090151430
H           12.94228003429741        1.72642152650453       20.21087164812860
H           13.25698057769604       -0.05974569346373       19.88467479341753
C            9.76175925625327       -3.08281932664731       25.19435156302739
H           10.67350627290867       -3.65626713138159       25.41585503513987
H            9.74328617603179       -2.87804131021257       24.11642436298090
H            8.89737025469410       -3.70500330238971       25.44913439672781
C            8.41544074455152       -2.77478161409495       28.09436912379562
H            8.74001388666611       -3.76664110400940       27.76129057038653
H            7.32258919508030       -2.72373403325409       27.97836350064371
H            8.64081146265488       -2.69261831861764       29.16650330972005
O            7.52432360624229        2.40224133406891       25.86964875329650
H            7.01147901080495        2.78392971108880       26.57896793817173
H            7.11552771164444        2.09419595042237       25.07987618918101
C           15.85521421364299        2.92408443892894       27.08037652353012
H           16.50927209042118        2.05375472566252       26.94875870316275
H           16.24377110443447        3.53343372552752       27.90523264965328
H           15.87062004731933        3.51504244265462       26.15995845971663
N           14.12839504455891        1.71851155197354       28.46305018204568
H           14.78015849835954        1.38893173475704       29.15472982601539
C           14.45786346883123        2.48398740177121       27.37153236498315
C           12.80460729058198        1.49777023424820       28.44094104230293
H           12.28392591745621        0.91570791752575       29.18568294650209
N           12.26600557901705        2.08848423488200       27.39531872536022
C           13.28410424284486        2.70226661799563       26.71481707554737
H           13.08472424779307        3.24969262438954       25.81173475054954
78
 energy: -116.031351439788 gnorm: 0.041068498708 xtb: 6.7.1 (edcfbbe)
Fe          10.11320646891858        2.36104288803302       26.55534984071527
N            9.35014414088133        2.56051573780231       28.39580931773414
N           10.20184205928242        4.39468140171760       26.42806534270830
N           10.85324069205384        2.18759718461609       24.66991620050662
N            9.93037277849450        0.37050486947184       26.63903517144404
C            8.90049648453341        1.53909428941340       29.18274529501127
C            8.32399695026105        2.05522200855211       30.40634943895851
C            8.45276416395972        3.40924536768369       30.34621442664863
C            9.11666703057727        3.71317799054264       29.09157821659593
C            9.83201813184536        5.31921224016633       27.36082715062231
C            9.90394819216110        6.65499979851409       26.80191466392160
C           10.34872730839231        6.51862251961051       25.50921125750145
C           10.54670970636094        5.09782810659976       25.31466929417735
C           11.26180619496253        3.21863984589161       23.87186401983317
C           11.89302622696714        2.73043031028787       22.66812368352040
C           11.85782548900242        1.35548996125520       22.74273695790881
C           11.19374995959973        1.04107606200844       24.01202961408111
C           10.22085959455033       -0.53380350465388       25.66081445622507
C            9.71512140521165       -1.83436583596216       26.03331281683225
C            9.15755547958941       -1.71237563470836       27.25769221172138
C            9.33201952977239       -0.33431534543600       27.63643623536053
C            8.92811790417645        0.19955207365730       28.85698488252617
H            8.57485897401544       -0.49185662463162       29.60652836747829
C            9.41109293443710        4.99126364957504       28.64651133926292
H            9.28105422306931        5.80059287146803       29.35275241318669
C           11.09450373047399        4.56046921435790       24.16573741340455
H           11.43562962812767        5.27156278436474       23.43061421315918
C           10.89643484188120       -0.23111175573961       24.47318770473496
H           11.20333271689745       -1.05638725677217       23.84836811653490
C            7.95588290653786        4.36512754231097       31.37855102533006
H            8.65631438322678        4.41119237147689       32.21258859780503
H            6.99581050625598        4.03165936977724       31.76953795898888
H            7.83232462756645        5.36214833063150       30.97304074452173
C            7.67315911268743        1.25962228185167       31.48840151191601
H            8.21926573716494        0.34002316320966       31.67821026363517
H            6.65005168697704        0.99533984997689       31.21836768805679
H            7.63965143143558        1.83197113665948       32.41254782450464
C            9.51319638632142        7.93244076104910       27.46202939518938
H           10.40382736099656        8.46869192480993       27.78861239646511
H            8.87824325035885        7.76678131702034       28.32581413762015
H            8.98482062033012        8.56898826571581       26.75283907988830
C           10.56903094477646        7.54583395843785       24.50642640166263
H           10.34688782284668        7.28123741260356       23.47641311783332
C           11.02529144636804        8.76767097768326       24.75127463377668
H           11.28972978037031        9.08797976133753       25.74226335875782
H           11.17596838092775        9.49368602593034       23.96695984027155
C           12.49676852450990        3.57492590766845       21.59562204438417
H           12.42847274057671        4.63599889158248       21.80880613784576
H           11.99896742921611        3.40258228323743       20.64075175000081
H           13.55306296170138        3.32538345331552       21.47865747719927
C           12.37177332913021        0.41019465105229       21.77674693900689
H           12.34585831403107       -0.63551934616153       22.05827920685291
C           12.87872522474102        0.69718900609014       20.57607675495352
H           12.94637627825390        1.69332914861764       20.19408430900770
H           13.24500970684387       -0.06964778754715       19.91401439437092
C            9.76389274502297       -3.07683430466649       25.20273672640882
H           10.67086765993989       -3.64763417473817       25.41252102347736
H            9.74313166905412       -2.86253650733485       24.13639540170929
H            8.90889145569608       -3.70569670384145       25.43935187227508
C            8.44705686690600       -2.75805009273860       28.06694605954032
H            8.75052368336813       -3.75469375830672       27.75355939649842
H            7.36061490064002       -2.69354171249248       27.95637093365368
H            8.66059802860791       -2.66785448675932       29.13257173582589
O            7.61352753933969        2.41886438738869       25.88780399346737
H            7.03869373423227        2.76964535542218       26.57242356503458
H            7.15808598384005        2.09261033076502       25.10686553510067
C           15.84945342588857        2.91917971410153       27.08118747171446
H           16.50438728299916        2.05950496089448       26.95012856467237
H           16.24099249167585        3.52626286146156       27.89590787461136
H           15.86634019881176        3.50862292941046       26.17095398844527
N           14.12605341310276        1.72144325185857       28.45501149721503
H           14.77412274807979        1.38424891061412       29.15029243695577
C           14.45745548172627        2.48683722342396       27.36785425393698
C           12.78804888078072        1.51683177105095       28.42263833654271
H           12.27017715891646        0.93646825574842       29.16024098376742
N           12.24543309774666        2.10935552280791       27.38605585897058
C           13.27550114792941        2.70961226403640       26.71872601295353
H           13.08855657108615        3.25591812587227       25.81815942506099
78
 energy: -116.038565271451 gnorm: 0.022549142109 xtb: 6.7.1 (edcfbbe)
Fe          10.08969776789332        2.35978443898296       26.54665282636713
N            9.33921662640173        2.56095181977697       28.39249279126684
N           10.18563444950536        4.38819370331751       26.41911813144794
N           10.85877038463317        2.18503710325997       24.66808036534457
N            9.89758218223067        0.37588214913624       26.62079240839976
C            8.89578538079246        1.54172627365729       29.17961175825076
C            8.33776105470336        2.05640851783441       30.40749053426066
C            8.46624556127232        3.41316673734596       30.34978852392745
C            9.11374931198936        3.71291076800428       29.08836921611359
C            9.82436616968004        5.31135622705020       27.35574013141314
C            9.91687368757162        6.64940167751646       26.81328099137244
C           10.35872652494864        6.51481646034934       25.52022110313918
C           10.54025525981137        5.09207275168494       25.31196496488542
C           11.26547756404351        3.21716567762469       23.87572905512152
C           11.89300727035799        2.73056299012091       22.67534403673554
C           11.85727729377124        1.35411522923228       22.74683179623859
C           11.19463314446728        1.03991105224516       24.01307139800449
C           10.20304692990017       -0.52859794362669       25.64696469653587
C            9.71769873459330       -1.83964263357717       26.02200952772288
C            9.17031354419967       -1.71679095014767       27.26025383077031
C            9.31327523195679       -0.32815248442836       27.62893963925898
C            8.91075816358863        0.19998195629983       28.84649276398543
H            8.54104528546707       -0.49309709481205       29.58790609989736
C            9.39426831691252        4.99114265244862       28.63762010026038
H            9.23474480241024        5.80694445171707       29.33137844783106
C           11.08917547687868        4.56145524759895       24.16041858103268
H           11.41979239486753        5.27441859866705       23.42025057230897
C           10.88143310181962       -0.23133845176784       24.46873644840515
H           11.17187027085407       -1.06308843156817       23.84316364369520
C            7.97163749809179        4.37673774210934       31.37444818802753
H            8.66704035207860        4.43282976727090       32.21278279061490
H            7.01005131524902        4.04420975515283       31.76203407042056
H            7.84475145689179        5.37333183634372       30.96566448967385
C            7.68781141307637        1.25693422122344       31.48468437535626
H            8.23036995608922        0.33441640468860       31.67466634571745
H            6.66531857202385        0.99427467274978       31.20927829340116
H            7.65049603643319        1.82801677030966       32.40882312344510
C            9.51978844317964        7.92094280410100       27.47939339857896
H           10.40012779589935        8.46337784913196       27.82589827246778
H            8.87025083378729        7.74740598775464       28.33186162893411
H            8.99892533290745        8.56013841381446       26.76666269420502
C           10.57320545371039        7.53400315569471       24.52098286406367
H           10.35180592742840        7.25116460578207       23.49670219691896
C           11.01870915927873        8.76341778274701       24.75623358954403
H           11.29503632886546        9.09285276363099       25.74178302430236
H           11.15903076616957        9.48188618292470       23.96604095874059
C           12.48358106986556        3.58769903582616       21.61319958763733
H           12.41859615546361        4.64371762939205       21.85406046897171
H           11.96866763266866        3.43793802496812       20.66329493592600
H           13.53740327466237        3.33581815224708       21.47830516397359
C           12.36273867731797        0.40139320267214       21.79439955834345
H           12.32223868477801       -0.63773118429045       22.09918745926801
C           12.87550038882225        0.65909624262959       20.58785937275405
H           12.95787731459332        1.64379846121615       20.17286082408735
H           13.23362174411592       -0.12658370969741       19.94523524760877
C            9.77370860147806       -3.07866896208718       25.19117278786278
H           10.68400390262001       -3.64231986923232       25.39929718249399
H            9.74844636008694       -2.84811018749128       24.13018822494921
H            8.92194538949304       -3.71419801414021       25.42368596633441
C            8.46783012717276       -2.75669163161062       28.06559712281868
H            8.76614099146151       -3.75341204747119       27.75059943989934
H            7.38570780123917       -2.67135327636775       27.94334001277034
H            8.68679503703777       -2.65298355785730       29.12623980890801
O            7.73106414070918        2.46065246402339       25.89713814982979
H            7.11197167173910        2.74565613658373       26.58424725496995
H            7.25909898336149        2.07937929190404       25.14512770832767
C           15.84091463012974        2.91557687130299       27.07982696990483
H           16.49461964002975        2.05451774361025       26.94946991213920
H           16.23545827396600        3.52051338132135       27.89515541840950
H           15.86231391985992        3.50706329602894       26.17107512970789
N           14.10423060239094        1.72539016095053       28.44340727443205
H           14.74705169377553        1.37790093317569       29.13884791830155
C           14.44507594126869        2.49297931024273       27.36040809905397
C           12.76204601508912        1.53768028474234       28.40518883007575
H           12.23663993947846        0.95909618470353       29.13727067817865
N           12.22814572057589        2.13914588314003       27.37151144215185
C           13.26617724303134        2.73140341034073       26.71126275103974
H           13.09154990303423        3.28299712985429       25.81188461046268
78
 energy: -116.042967811840 gnorm: 0.029337269204 xtb: 6.7.1 (edcfbbe)
Fe          10.09282876462556        2.36335732902912       26.54867665011549
N            9.33270870705444        2.55980279748668       28.39027177107268
N           10.17267461530968        4.38079653139196       26.41521181773878
N           10.85445177013310        2.18492808669131       24.66934622598142
N            9.87384814905595        0.38657130006302       26.60652372140913
C            8.88868846867219        1.54306414584151       29.17468138973617
C            8.34994230860409        2.05682834094292       30.40932189168588
C            8.47786120641610        3.41346688161775       30.35327556382875
C            9.10747038046626        3.71025746848863       29.08575837660831
C            9.81306260546354        5.30109183957964       27.35277340867152
C            9.92769311732481        6.64049088545277       26.82691306624543
C           10.36865936032301        6.50791334019236       25.53602612786172
C           10.53210823254160        5.08450978665091       25.31301906522455
C           11.25984280157575        3.21670204659975       23.88011836492080
C           11.88840194433708        2.73049035359512       22.68407355368033
C           11.85190781565570        1.35551683882730       22.75514031835997
C           11.18600665992901        1.04358815889646       24.01394284265523
C           10.18427641949751       -0.51579051316859       25.63397526903851
C            9.72551421612581       -1.83698548101985       26.01308762076854
C            9.17809682097524       -1.71311899423395       27.25499052235917
C            9.29711172481355       -0.31851666537974       27.61801926860155
C            8.88688474808186        0.20139268504278       28.83033778972201
H            8.49829477980298       -0.49356891086347       29.56165128006089
C            9.36990731690143        4.98912775538450       28.62783379268329
H            9.18168977932957        5.81024487788360       29.30723715736152
C           11.07688618117784        4.56168006013976       24.15835201781530
H           11.39596539061257        5.27619557657800       23.41383311741762
C           10.85830371023188       -0.22681272096066       24.46044456411185
H           11.13141208756340       -1.06528227604253       23.83464024928089
C            7.99057025218306        4.38805353376728       31.37224331136086
H            8.68572926316468        4.45609541111378       32.21088064500712
H            7.02657829773699        4.06225224274855       31.76189684711585
H            7.86565791359984        5.38209872089879       30.95194457873065
C            7.70448738191997        1.25184813903347       31.48503545726587
H            8.24947025260998        0.32881823886489       31.67190473089969
H            6.68318024535767        0.98749780525864       31.20253595854324
H            7.66368201890041        1.82103443464041       32.41062488957748
C            9.52771939082614        7.90675024097793       27.50190922089939
H           10.39979210306904        8.44625619424319       27.87637810685136
H            8.85856754533191        7.72117447135427       28.33923554291952
H            9.02097728618198        8.55477821507033       26.78524572053903
C           10.58335697121190        7.52441025028373       24.53267018265906
H           10.36005423497184        7.22679942419142       23.51376250088833
C           11.01689564129566        8.76073581301088       24.75999920298002
H           11.28849313286229        9.10117785972661       25.74349946764885
H           11.13762327359045        9.47413944180048       23.96232042162883
C           12.47641612725488        3.58953114054042       21.62089307176051
H           12.41907242526752        4.64244469448429       21.88537191501780
H           11.94835853476028        3.45282103845123       20.67614455495535
H           13.52671165746561        3.33683984322575       21.46752739251311
C           12.35218526626499        0.38789569824757       21.81478780249660
H           12.30039396896838       -0.64480062923141       22.14142548907027
C           12.86585529325824        0.62188886155415       20.60543648516064
H           12.95551658369439        1.59987050358079       20.16927418578775
H           13.21801637873256       -0.18510001687048       19.98299819601709
C            9.78951077434487       -3.07377018502515       25.18185121687024
H           10.70431464962174       -3.63263587779381       25.38320581592016
H            9.75998649981799       -2.83112161788322       24.12342858032065
H            8.94252484638672       -3.72028746299555       25.40761127321195
C            8.48809704815115       -2.75467001034179       28.06440592140691
H            8.78261509120771       -3.75182472033397       27.74830482673390
H            7.40703954200405       -2.66182482146018       27.94324460308250
H            8.71626037090829       -2.64665791857006       29.12165766373004
O            7.86206192294438        2.52456574639894       25.88014497613105
H            7.22856179126634        2.71537968493870       26.59347833205655
H            7.35430310606013        2.05597984667787       25.18624552504469
C           15.82923672916471        2.91208319324373       27.07818135285812