78
 energy: -116.058163492950 gnorm: 0.000178456214 xtb: 6.7.1 (edcfbbe)
Fe          10.04369697695992        2.41155888351071       26.42743412825586
N            9.22860780101185        2.56540162842512       28.25988361475285
N           10.16923186738724        4.39532329334034       26.31292869252903
N           10.81848645005151        2.23580901644752       24.59601042752924
N            9.83206259565710        0.40990601391206       26.52411346287739
C            8.81970711737416        1.55029427016458       29.06925061234181
C            8.35274661290572        2.06367553205042       30.33689320927282
C            8.49767590238064        3.41530523691736       30.27824322378569
C            9.04413630083368        3.70979556761830       28.97303778933312
C            9.81301800323745        5.29649822004540       27.26683416523624
C           10.04599244076571        6.64519690639025       26.81298447310804
C           10.56254931521743        6.54110527584159       25.54987258539558
C           10.62584059562516        5.11997048856897       25.26120680870385
C           11.23006015132899        3.25055718170986       23.78966071075140
C           11.77247826365133        2.73978656387403       22.55586806709701
C           11.67610198119337        1.37607634837464       22.63023016371497
C           11.08135197474767        1.08817228964135       23.92219850435294
C           10.20980138120409       -0.49521501992747       25.58101348236445
C            9.91473974540394       -1.84069856614122       26.01752336087833
C            9.35603174353801       -1.72888376637122       27.25348628040921
C            9.31959682570695       -0.31660196424540       27.55594034056381
C            8.84226667208159        0.20552113255684       28.74443265613348
H            8.47425241957300       -0.49120713706022       29.48204388894538
C            9.30786550256550        4.98567573741622       28.51713964330507
H            9.10091311198445        5.80417552421595       29.18939415456107
C           11.13551977785956        4.59824019130390       24.08865015434682
H           11.48673867556445        5.29675592455072       23.34447996362019
C           10.79248705433910       -0.18853955233134       24.36622921312238
H           11.03667969635787       -1.01287406007706       23.71404869309918
C            8.17427721248566        4.44446276676781       31.30620606736597
H            9.06211414698716        5.02355165852838       31.56065100685856
H            7.79581515856972        3.98035589572116       32.21374077393682
H            7.41703419313700        5.13438894487606       30.93277815829909
C            7.82831812981987        1.21638650025531       31.44558728784541
H            8.58589061284775        0.50669237663024       31.77964472122250
H            6.95719010588856        0.64910836624110       31.11652783629710
H            7.53578192012920        1.82885191591064       32.29480660169407
C            9.70190435771621        7.87776011195804       27.57404363038541
H           10.47843580065491        8.11548380449296       28.30317174772958
H            8.76319964064243        7.74927761958417       28.11083202600805
H            9.60079442405772        8.72021272440409       26.89290295580238
C           10.95291367079798        7.58706030314577       24.63060908936677
H           10.78260016516757        7.37495385233032       23.58145425446082
C           11.49467400232699        8.75165446747890       24.97247862820818
H           11.72834637169338        8.99697067994649       25.99386996357525
H           11.74757535877823        9.49412286219678       24.23374058463626
C           12.37229086572907        3.56882437055460       21.47448347883578
H           12.93441547073323        4.40232713934550       21.89335408356592
H           11.59770615998560        3.97746410651964       20.82355333395291
H           13.04484265173495        2.96376506276865       20.86975053362453
C           12.08964540381874        0.37552990010688       21.67146293343137
H           12.45283089610403       -0.55489046056862       22.09297468069891
C           12.04937288063192        0.51026567042425       20.34979440988121
H           11.65402186985786        1.39153064607330       19.87589330532723
H           12.38852997730203       -0.27359477959125       19.69285028954835
C           10.19421942387700       -3.06503913954405       25.21549282687827
H           11.26168640478770       -3.15421397323305       25.01237318119794
H            9.67148124511997       -3.02481443932348       24.25962099017459
H            9.87098506927043       -3.95772138447707       25.74546875240641
C            8.86032545202955       -2.79757354845255       28.16681567870143
H            8.97419594295017       -3.77825293027346       27.71165830922133
H            7.80536191082122       -2.64711258057161       28.39749516387936
H            9.41492996844987       -2.78957542089905       29.10579434555628
O            7.90667224817381        2.43532304269572       25.59728198145117
H            7.41914455182892        2.52121733648238       26.42382173513355
H            7.82653070876387        1.51769930157394       25.31517704289243
C           15.45042993053271        3.02590202366795       27.64056045498231
H           16.10860002029823        2.17281436426591       27.47615302839970
H           15.71387844330254        3.48064297682374       28.59543344632698
H           15.61801038301963        3.75191259170017       26.85127419629010
N           13.52368727666506        1.69085862172301       28.52231755045579
H           14.04501149208913        1.22781118905603       29.24851626404050
C           14.02715740312691        2.60315268382359       27.63230446836162
C           12.21021791704528        1.52998663387998       28.24514169389672
H           11.55908463279681        0.87311931690209       28.78371838871787
N           11.85185400211278        2.28401919887582       27.23463775280821
C           12.97121962363174        2.95811101025166       26.84269219916823
H           12.94215754520595        3.64843545820341       26.02505569612588
