87
 energy: -124.719929402247 gnorm: 0.000192864040 xtb: 6.7.1 (edcfbbe)
Fe          84.54502834827343       17.95062093258401       30.67192376905395
N           84.02737586310910       16.52467798455723       31.98403248413317
N           83.29163749614317       17.16431705522657       29.33086206935488
N           84.99535633958530       19.41915792732794       29.39762591088138
N           85.80648541436624       18.72553627317552       32.02052186774883
C           84.52413108413219       16.34296323009400       33.23732836007822
C           83.86316635372869       15.23734030293854       33.89415293551829
C           82.94232265526908       14.76627001740187       33.01096597808611
C           83.06551632209276       15.57981588311981       31.82228646237949
C           82.46840531270085       16.09823811544575       29.50236342670030
C           81.74940363776227       15.80661934752971       28.28124423906973
C           82.16453330331102       16.72282492057413       27.36682039850984
C           83.11728271675238       17.57260236067619       28.04792605846050
C           84.53947278844932       19.56772694720476       28.13067026448611
C           85.04444308240771       20.79525953640794       27.54474049069231
C           85.79814771687380       21.39451978524959       28.51864869293086
C           85.76475980514623       20.51049270641452       29.65583454601634
C           86.55701108016119       19.84811698490683       31.88146838910661
C           87.39335872776846       20.05069640557367       33.04699887728494
C           87.08794441363601       19.03392089681147       33.91135421199395
C           86.09981383396230       18.22299920401840       33.25130557119807
C           85.51153012931920       17.10832525964776       33.82606915755299
H           85.82922349860439       16.83653391774842       34.82145334330265
C           82.33142644378110       15.37110259001240       30.66917213459623
H           81.61364452514931       14.56506926307936       30.67437449305056
C           83.70440129526628       18.68302860420103       27.47279299091523
H           83.46127255693378       18.89438554175388       26.44283946727538
C           86.49073044114985       20.72300603607843       30.81373720102422
H           87.07184462247649       21.62922759137821       30.88354665208584
C           84.17756903117646       14.76814201597676       35.27368838300171
H           84.00209302774581       15.56220553086724       36.00043119579612
H           85.22327775931585       14.46827901140823       35.34882154125252
H           83.55822915152305       13.91595621394653       35.54255376835665
C           81.97876963296757       13.63968641737962       33.16313061636011
H           82.18440368949508       12.85748989507042       32.43158173969939
H           80.95690901372367       13.98625974529585       33.00815638552024
H           82.04587066629321       13.20379965639364       34.15704441946443
C           87.66981898564016       18.75236973408621       35.25392015061439
H           88.18378693751090       17.79041331283153       35.25739594909432
H           86.88836827140578       18.71767012992179       36.01411079277857
H           88.38713716845560       19.52178007638332       35.52786543983682
C           88.37358515135560       21.09829772243116       33.24841263330027
H           88.43242954024454       21.49070619690075       34.25836529741690
C           89.20758600353980       21.56419066529700       32.32588973067331
H           89.22860819427379       21.17192379816347       31.32328796768803
H           89.91851522549885       22.34217870770518       32.55044266182077
C           86.48744989632301       22.71346526885339       28.48074180668191
H           87.54556731507246       22.59336356309240       28.24191785457966
H           86.41488401815535       23.21382478058227       29.44525097494073
H           86.03539133183743       23.34909761238593       27.72185844564844
C           84.73946390492800       21.25776098739950       26.20932509599321
H           83.76515582343121       20.97561006143600       25.82702691897853
C           85.54823133338287       21.97552603673686       25.43628975949227
H           86.54420929096422       22.24406555666782       25.74160603630843
H           85.24772433344405       22.29733095430987       24.45284416228775
C           81.75940041082048       16.88779719476337       25.94241601839819
H           82.63301342653982       16.85647168138546       25.29156623141437
H           81.26055608399390       17.84609300597920       25.79288334762552
H           81.07710670013574       16.09714552941768       25.63980884614680
C           80.76727410803770       14.69605169778602       28.12869811641347
H           81.24241696672087       13.73351931635318       28.32012146434029
H           80.35508628464568       14.67987783940229       27.12289125862204
H           79.94452474113712       14.81247463561727       28.83445987567982
C           80.15040040503192       21.31724981597911       31.26143703523732
H           80.32173569475000       22.31011039095036       31.67729363817396
H           79.24708034288152       20.90899970834203       31.71471860194043
H           79.99151715289017       21.41100500082890       30.19178832125300
N           81.75161869700548       20.13124998220472       32.77850921969161
H           81.34535267395518       20.46639660852563       33.63655358453512
C           81.31490062526757       20.43161710456591       31.51463139428869
C           82.81991952252721       19.31150461143685       32.65823004609117
H           83.36778238894611       18.91335928554762       33.48709071851329
N           83.08519963413831       19.07520668008263       31.39718834327240
C           82.15795864950364       19.76422606154366       30.67322879172473
H           82.16010367335589       19.73336804678597       29.60368829059406
C           88.62696016088968       17.93749419995836       29.85539818961257
H           89.57579276327618       18.08151517675205       30.36866097660126
H           88.04335989757568       18.85053649867687       29.93617292050879
H           88.81969379791809       17.74193509114961       28.80322617527515
C           87.86870767248624       16.78115986701188       30.47670928973509
H           87.69410224915036       16.94860741885227       31.53861691314097
H           88.40377527150882       15.84197128002797       30.33365994523771
S           86.23465602110443       16.59187710284111       29.65577807751447
C           85.89834592759640       14.87815749611104       30.16152615809470
H           85.93863427611781       14.79718780527977       31.24311160460359
H           86.62709463819722       14.22048756926318       29.69466301844607
H           84.89922463587513       14.63955702397373       29.81325341624655
