78
 energy: -115.940375315282 gnorm: 0.347228237832 xtb: 6.7.1 (edcfbbe)
Fe          -5.69900000000000       57.15700000000000      111.78499999999998
N           -6.51400000000000       56.20600000000000      113.43500000000000
N           -6.67400000000000       58.89900000000000      112.29699999999998
N           -4.86500000000000       58.13200000000000      110.20999999999999
N           -4.64200000000000       55.44299999999999      111.33600000000000
C           -6.28600000000000       54.93400000000000      113.78600000000000
C           -6.83000000000000       54.67600000000000      115.01599999999999
C           -7.41100000000000       55.86399999999999      115.44400000000000
C           -7.16300000000000       56.77900000000000      114.44600000000000
C           -7.34100000000000       59.11900000000000      113.44799999999998
C           -7.87100000000000       60.40999999999999      113.47899999999998
C           -7.43600000000000       61.00299999999999      112.28899999999999
C           -6.63300000000000       60.07000000000000      111.65600000000001
C           -5.03500000000000       59.41400000000000      109.82500000000000
C           -4.27600000000000       59.73000000000000      108.70399999999999
C           -3.57800000000000       58.55000000000000      108.42600000000000
C           -3.99000000000000       57.62100000000000      109.35800000000000
C           -3.90900000000000       55.28700000000000      110.23500000000000
C           -3.61100000000000       53.95900000000000      110.00199999999998
C           -4.23700000000000       53.24100000000000      111.02100000000000
C           -4.84300000000000       54.21000000000000      111.83600000000000
C           -5.57100000000000       53.99000000000000      113.02100000000000
H           -5.58300000000000       52.96500000000000      113.39199999999998
C           -7.52800000000000       58.14500000000000      114.44199999999999
H           -8.02900000000000       58.49399999999999      115.34399999999999
C           -5.87000000000000       60.31099999999999      110.50299999999999
H           -5.93500000000000       61.31600000000000      110.08600000000000
C           -3.57200000000000       56.29800000000000      109.38300000000000
H           -2.86500000000000       56.02400000000000      108.60100000000000
C           -8.14300000000000       56.07500000000000      116.77800000000001
H           -7.46200000000000       56.57400000000000      117.50000000000000
H           -8.45300000000000       55.09300000000000      117.19499999999999
H           -9.03400000000000       56.71900000000000      116.61899999999999
C           -6.74600000000000       53.33400000000000      115.73999999999998
H           -5.73400000000000       52.89800000000000      115.59699999999999
H           -7.50200000000000       52.63499999999999      115.32299999999999
H           -6.92400000000000       53.48199999999999      116.82700000000000
C           -8.74300000000000       60.93500000000000      114.62600000000000
H           -8.24300000000000       60.72900000000000      115.59600000000000
H           -9.72900000000000       60.42299999999999      114.61299999999999
H           -8.88400000000000       62.03200000000000      114.51899999999999
C           -7.72200000000000       62.23500000000000      111.69999999999999
H           -7.14000000000000       62.51800000000000      110.81200000000000
C           -8.69700000000000       63.18800000000000      112.12000000000000
H           -9.32700000000000       62.99099999999999      113.00000000000000
H           -8.83000000000000       64.13100000000000      111.56899999999999
C           -4.17700000000000       61.12899999999999      108.05400000000000
H           -4.31200000000000       61.90999999999999      108.83199999999999
H           -4.97200000000000       61.24400000000000      107.28700000000001
H           -3.17700000000000       61.25599999999999      107.58599999999998
C           -2.65300000000000       58.24000000000000      107.41700000000000
H           -2.15200000000000       57.26400000000000      107.47499999999999
C           -2.27800000000000       59.05500000000000      106.30499999999999
H           -2.72700000000000       60.04899999999999      106.16500000000001
H           -1.53600000000000       58.69799999999999      105.57599999999999
C           -2.90100000000000       53.37400000000000      108.79500000000000
H           -1.88500000000000       53.81600000000000      108.71200000000000
H           -3.47300000000000       53.60999999999999      107.87199999999999
H           -2.80600000000000       52.27300000000000      108.91200000000001
C           -4.19500000000000       51.71200000000000      111.17100000000001
H           -3.14100000000000       51.37900000000000      111.28599999999999
H           -4.62700000000000       51.23400000000000      110.26600000000001
H           -4.76900000000000       51.40700000000000      112.07199999999999
O           -4.44500000000000       57.66699999999999      113.27900000000000
H           -4.69100000000000       57.12300000000000      114.02700000000000
H           -3.79300000000000       58.27100000000000      113.25999999999999
C           -9.04900000000000       55.11099999999999      107.83000000000000
H           -9.46100000000000       55.81499999999999      107.07599999999999
H           -9.86800000000000       54.45600000000000      108.19600000000000
H           -8.25500000000000       54.49700000000000      107.35400000000000
N           -9.10900000000000       56.74199999999999      109.78499999999998
H          -10.06100000000000       57.02000000000000      109.65799999999999
C           -8.46500000000000       55.89500000000000      108.98800000000000
C           -8.31700000000000       57.14800000000000      110.74400000000000
H           -8.59200000000000       57.83599999999999      111.54099999999998
N           -7.15800000000000       56.56600000000000      110.54500000000000
C           -7.19400000000000       55.79899999999999      109.48999999999999
H           -6.32800000000000       55.23799999999999      109.16199999999999
78
 energy: -116.012999226483 gnorm: 0.138878023912 xtb: 6.7.1 (edcfbbe)
Fe          -5.69958801601016       57.15304543104787      111.78637714738475
N           -6.50575248479906       56.20879271809478      113.40957666722386
N           -6.64517445320282       58.88413957320749      112.30581979911166
N           -4.86286687657075       58.13395551895362      110.23153892806221
N           -4.66645819399624       55.45032788775064      111.33972411675909
C           -6.27864795250241       54.92392036884081      113.76862767142489
C           -6.83780991521491       54.66550211905008      115.03638233222487
C           -7.41412040718939       55.84752151107908      115.46313511198811
C           -7.17067201751117       56.78940509048959      114.43520151704858
C           -7.34644703346067       59.09808095801505      113.45168872715684
C           -7.87925197357152       60.41489640062188      113.48491383669219
C           -7.45368357794120       61.02107491970870      112.30447657489582
C           -6.63360137909934       60.05972891062804      111.64322405451459
C           -5.04477708974606       59.42237860250825      109.83973631701473
C           -4.26327590816363       59.74362539110862      108.70084328376298
C           -3.56846675494014       58.57434529885050      108.39796547430073
C           -3.98077303327917       57.61599988114886      109.36292684580785
C           -3.91631427250623       55.29039104279740      110.23232739330879
C           -3.61529520680370       53.92784392212000      110.00220883745131
C           -4.22613509322108       53.22597154867782      111.01970997996166
C           -4.85667524225439       54.20795780393167      111.84603981208068
C           -5.57345525705900       53.98047639392624      113.01651383824786
H           -5.58330647001062       52.96451880300505      113.39052886816737
C           -7.53926105966916       58.13982914581396      114.44656043850226
H           -8.03520335990881       58.48816719772594      115.34440451128256
C           -5.88315782634001       60.31108504559722      110.49984906255675
H           -5.93372840882979       61.30980312904130      110.08666814664157
C           -3.55640387862167       56.29921457307040      109.37371204261697
H           -2.86553857686709       56.01450051315962      108.59292127691079
C           -8.13629196514974       56.07397214396983      116.77014035459500
H           -7.47283337728129       56.56887694791951      117.49141721064919
H           -8.45122584025443       55.11270703148632      117.18903714583018
H           -9.01945400162607       56.70635951735842      116.62173316742879
C           -6.75018042190998       53.34119500510536      115.74500187473879
H           -5.75313336210961       52.90560862634066      115.60467134737668
H           -7.49207544164719       52.64368911457834      115.33549886850322
H           -6.92528554886108       53.47295376584024      116.81649227194164
C           -8.73334137558709       60.93347468878081      114.61607681271595
H           -8.24967750085931       60.73001485821191      115.57936721102820
H           -9.71231646869473       60.43544274246079      114.61150479711408
H           -8.87948423578876       62.01262459948479      114.53111277590665
C           -7.74579951149834       62.27899405465272      111.71989257218399
H           -7.16914820194924       62.53557661478093      110.83081999790758
C           -8.68194989377617       63.18059404755088      112.11379527042595
H           -9.31980288108401       62.99731460201735      112.96895583815324
H           -8.82247722010171       64.10970228035674      111.57441780996838
C           -4.17707875502667       61.11443894654969      108.06308635136959
H           -4.31095335410168       61.89481201687941      108.82097951227871
H           -4.95606252072224       61.23828505940575      107.29895405708164
H           -3.19558017010376       61.25730345088122      107.60080618359022
C           -2.63268234182709       58.26924393600088      107.37525894456934
H           -2.14730073696542       57.29559562870141      107.44974488596550
C           -2.28019205028313       59.04366057491481      106.31711023774668
H           -2.72058991793646       60.01913702912114      106.15886767352589
H           -1.54898726946770       58.69921000533116      105.59553600254084
C           -2.90018700962305       53.37129944805975      108.80470883114596
H           -1.89747574145400       53.80777858081105      108.71170988179746
H           -3.46032891241222       53.60186820182703      107.88798500649060
H           -2.80426206280735       52.28651259843705      108.90427925459764
C           -4.19531665036643       51.72414356088376      111.17541033209135
H           -3.15800585487354       51.38298841723232      111.28589277136102
H           -4.62182286556415       51.24284134046440      110.28598356745323
H           -4.76233950026014       51.41006358450242      112.05721966149314
O           -4.42001793691285       57.65786567621463      113.27634683649450
H           -4.66835876082795       57.13701620036157      114.04248387995305
H           -3.74215779541424       58.30460048008031      113.28125968138919
C           -9.05492053272916       55.11631862290339      107.82525347268898
H           -9.46257730554778       55.80405383453795      107.07613741577225
H           -9.85897734386020       54.46228250101187      108.18331809154895
H           -8.27220638028298       54.50814763157663      107.36288806759070
N           -9.13253727812036       56.73156920565856      109.77067496252755
H          -10.08700968092837       57.01378165134471      109.64360766276361
C           -8.46613314124308       55.87499453004666      108.97009281052445
C           -8.32015327486171       57.14745093738082      110.74392443849040
H           -8.59278542048020       57.82665267364986      111.52986319338878
N           -7.14576102905241       56.58388378632955      110.56884068052064
C           -7.19629231927663       55.79761099283199      109.49218862032895
H           -6.33762711919807       55.24198855520191      109.16404909134906
78
 energy: -116.033477045913 gnorm: 0.043495782058 xtb: 6.7.1 (edcfbbe)
Fe          -5.69982086249100       57.14971642519514      111.79021528047210
N           -6.49898457988812       56.20827018119913      113.38614812531954
N           -6.62437839108630       58.86943507179164      112.31360973780023
N           -4.85012161264536       58.13284006374326      110.25345383402687
N           -4.70207038182217       55.45636160414780      111.32657459487685
C           -6.27583016218697       54.91683058627422      113.75105687314532
C           -6.84297358505995       54.66162069073396      115.04525287134047
C           -7.41212323514465       55.83341812036376      115.46681840921126
C           -7.17536157421342       56.79362870996381      114.41883680829896
C           -7.34775333695981       59.07646702243361      113.45283434209976
C           -7.88303575926195       60.41137459768019      113.48418920844789
C           -7.46833189768573       61.02149352611539      112.31631023036245
C           -6.63576034681137       60.04607164026773      111.63700137722245
C           -5.04560135465274       59.42352645531870      109.86046779278880
C           -4.24921573432859       59.74767726646414      108.70809004607219
C           -3.56234937466455       58.59337020025983      108.38767386913879
C           -3.96872589807568       57.61190254426846      109.37067151296948
C           -3.93269611687191       55.29533974401685      110.22248986228668
C           -3.62381633360350       53.90866948376812      110.00453163718288
C           -4.22013498650904       53.22005664623351      111.01901507570804
C           -4.87724933094659       54.21045935664690      111.84631423197402
C           -5.58123423253769       53.97055361060591      113.01006570864148
H           -5.58480377289005       52.95981051875155      113.38952937793880
C           -7.55156632283026       58.12904646751426      114.44832141876267
H           -8.05401558267133       58.47252456574782      115.34117571675182
C           -5.89420365438265       60.30885634827922      110.50072631277948
H           -5.94383820217007       61.30303205244777      110.08522081137822
C           -3.54319552693588       56.29867612093480      109.36111705872445
H           -2.86483208160467       56.00248721456980      108.57837673871256
C           -8.12728173820013       56.07407226617339      116.75589161936408
H           -7.47672349329556       56.56942721339885      117.47874235421777
H           -8.44955088123354       55.12825815851853      117.18422796330898
H           -9.00571865574710       56.70004909318456      116.61206288895251
C           -6.75598085401635       53.35017744193456      115.74912497675594
H           -5.76758621687817       52.91351776326514      115.61452389598196
H           -7.48869610618530       52.64985475851356      115.34637486068863
H           -6.93346933171763       53.46789121175870      116.81330005527107
C           -8.72145032513167       60.92853429200410      114.60581791431733
H           -8.24757839717481       60.72148002555848      115.56527410084328
H           -9.69969403993036       60.44394760368480      114.60650345141507
H           -8.86729128388916       61.99942935142581      114.53597878191157
C           -7.76448760456524       62.30335948974103      111.73591053717381
H           -7.17940985821490       62.54567513759616      110.85512121828879
C           -8.67912507638898       63.17855854171218      112.11275252927501
H           -9.32955918048576       63.01227209613073      112.95028610850295
H           -8.82098121230521       64.10216591591148      111.58012256301421
C           -4.17643125141274       61.09839707765464      108.07748317821527
H           -4.31713714663246       61.88052679499744      108.82134890965591
H           -4.94419651140301       61.22245865227544      107.31114653871992
H           -3.20541166836577       61.25510689967998      107.61749330588168
C           -2.61865484383152       58.29344503330871      107.34745482630170
H           -2.14052269690919       57.32390745436687      107.43746388346673
C           -2.28254608559725       59.04255645137495      106.31399955632619
H           -2.71803544902245       60.00600072461976      106.13281165009505
H           -1.55186870241909       58.70719152919174      105.59932342057013
C           -2.89908148732433       53.36799149579377      108.81803925687171
H           -1.90565222102978       53.80496786835626      108.72268048475479
H           -3.45052337527938       53.59552990558182      107.90374349824825
H           -2.79764892156553       52.29060453108788      108.89991899362397
C           -4.19759714757966       51.73678040648397      111.18607420695974
H           -3.17054512417967       51.38613036086250      111.29321087517590
H           -4.62143404629543       51.25247696393633      110.30545342240295
H           -4.76281635901229       51.41773589628571      112.05556492306134
O           -4.33166122326718       57.63074201683891      113.25869177839320
H           -4.61650931006197       57.18819554687841      114.07126936042033
H           -3.69270963254709       58.34421242786925      113.31610520922123
C           -9.05644909693572       55.11928646247432      107.82116747576241
H           -9.46472624771030       55.79886838794843      107.07633174485869
H           -9.85589372893137       54.46608387335334      108.16850194477144
H           -8.28526159495027       54.51254216999526      107.35980817446095
N           -9.15935472644204       56.71758999004904      109.75858868598664
H          -10.11627884518669       56.99871173891299      109.62830120560587
C           -8.46412976471893       55.85741242480832      108.96182923492572
C           -8.33606608163588       57.14692141367865      110.73709286110636
H           -8.61246163276707       57.82172619909420      111.51472696214671
N           -7.14625616296754       56.60962916877154      110.58969496688702
C           -7.20298936735460       55.80480381069458      109.50105301269910
H           -6.34754106037181       55.25227912652542      109.17352176870538
78
 energy: -116.040410723473 gnorm: 0.058156534452 xtb: 6.7.1 (edcfbbe)
Fe          -5.69139452296339       57.14762910735410      111.79466237242333
N           -6.48855691693419       56.20634814996628      113.37540718644563
N           -6.60667002647096       58.86087704283803      112.32408091523720
N           -4.83326455632738       58.12752848060084      110.26545779394117
N           -4.73441917483111       55.45495488777281      111.30467533687990
C           -6.27581668041718       54.91193199704966      113.74025606723229
C           -6.84626450606473       54.65767273078003      115.04460313373228
C           -7.41063707209813       55.82483754407338      115.46162634484192
C           -7.17368101914572       56.79113454528407      114.40693182537186
C           -7.34528347928523       59.06262361071733      113.45451292740398
C           -7.88509141496563       60.40226468765811      113.48264265866962
C           -7.47443034705876       61.01406489208025      112.32268962730542
C           -6.63346074196407       60.03525665418479      111.63925046808920
C           -5.03552211234702       59.41863901467242      109.87813393892574
C           -4.23521875354886       59.74654907126649      108.72078703763052
C           -3.55117251789889       58.60222852008512      108.38980490925016
C           -3.95512972532042       57.60718245474854      109.37476775995279
C           -3.95244734129105       55.29386326950640      110.20750921702779
C           -3.63362881441981       53.89855720504559      110.00269512961069
C           -4.22438063728645       53.21698399043620      111.01777302605139
C           -4.89904036081189       54.21105823358483      111.83590197825005
C           -5.59189907017239       53.96164053031601      113.00132149218207
H           -5.58830280136567       52.95265117196620      113.38472173069452
C           -7.56168004942148       58.11771658509663      114.44717297104285
H           -8.08395448032787       58.45123091433191      115.33221461902660
C           -5.89605013962705       60.30200891540326      110.50404257507469
H           -5.95771041745104       61.29082250605795      110.07902706872299
C           -3.53855694868155       56.29219617366898      109.34858559092551
H           -2.86662823260891       55.98707747314294      108.56380912420947
C           -8.12356134246553       56.07839397919943      116.74457556036661
H           -7.47463803150758       56.57802138738992      117.46468022460083
H           -8.45094596883700       55.13952308134812      117.18259068139677
H           -8.99944759711500       56.70387261124781      116.59428398536112
C           -6.76294018187266       53.35171626405831      115.75336435738026
H           -5.77484083170630       52.91547206754348      115.62785819817435
H           -7.49243503503025       52.64864802382430      115.35217565499615
H           -6.94815725160277       53.46875113669338      116.81597415890180
C           -8.71329724658545       60.92023912054797      114.60519615116849
H           -8.24087801105688       60.70071437397720      115.56128421428575
H           -9.69710157968498       60.44951217274179      114.60371036865178
H           -8.84623662320519       61.99249970986555      114.54532052855087
C           -7.76889738104875       62.30951917727327      111.74961173918810
H           -7.17408942766947       62.55498384284164      110.87947498052807
C           -8.69510597373516       63.18556113705758      112.11539031616338
H           -9.36805458102954       63.02677408864974      112.93586212400905
H           -8.82515806774261       64.11098374431018      111.58372723320373
C           -4.17515541175544       61.09283733707344      108.09302456795524
H           -4.33148047777533       61.87441111786352      108.83258907948492
H           -4.93689951276675       61.20425887702766      107.32007174441206
H           -3.20384318017164       61.26062682084788      107.63966899616884
C           -2.60540752239869       58.31104655038356      107.33860193017158
H           -2.11870484670132       57.34960351489210      107.43405649197170
C           -2.28149522568654       59.05638737035891      106.29058390997935
H           -2.72895345555413       60.00865110808450      106.08355798632846
H           -1.54598681658177       58.72092036874582      105.58164428834935
C           -2.89362675573399       53.36209913493881      108.82722044471518
H           -1.90366800036753       53.80500106845481      108.74106640375223
H           -3.43842693898149       53.58772227400522      107.91005906814166
H           -2.78572316061212       52.28545871372741      108.90265511287032
C           -4.20304385596453       51.73989871910673      111.20131938549770
H           -3.17850643649363       51.38595406718574      111.31070739844135
H           -4.62715080705381       51.25122253958346      110.32446563460628
H           -4.77051991218768       51.42710794385592      112.06952380690124
O           -4.18915374294083       57.57135509022997      113.22362988753527
H           -4.56437781196713       57.27411173323460      114.10431495714549
H           -3.65706969791202       58.40331197289628      113.34551486333861
C           -9.05581450018409       55.11836085476327      107.81574678625690
H           -9.46458816786355       55.80138832608085      107.07501415368411
H           -9.85757015968239       54.46388792444242      108.15336714636244
H           -8.28948336202958       54.51217643810149      107.34830965873542
N           -9.18582403668284       56.70395148774293      109.75221580575645
H          -10.14575163146390       56.97554778078464      109.61550324931753
C           -8.46628363324237       55.84729180799475      108.96242368255994
C           -8.36450487769887       57.14949017325338      110.73146052587555
H           -8.65328457312172       57.82498950686237      111.50346806320435
N           -7.16245294545515       56.63408864537999      110.60499150196719
C           -7.21245748810374       55.81775096246585      109.51276308594203
H           -6.35371306186333       55.26937349137263      109.18831507949241
78
 energy: -116.044868375764 gnorm: 0.032088181447 xtb: 6.7.1 (edcfbbe)
Fe          -5.68226417443311       57.14864466497218      111.79926881144958
N           -6.47436326952144       56.20720256053676      113.37381184217024
N           -6.58946880665937       58.85834630530887      112.33731922225144
N           -4.81585331771506       58.12091042305436      110.27175959532467
N           -4.76283066608921       55.45320523785464      111.28155458426063
C           -6.27479904127443       54.91066685404670      113.73491777113674
C           -6.84879378404361       54.65469661435068      115.04086536593154
C           -7.41024218258101       55.82007000453033      115.45443424338639
C           -7.16860873386500       56.78804147077185      114.40006134037829
C           -7.34228972569491       59.05468914236314      113.45768789860676
C           -7.88902053059262       60.39222402692435      113.48096692117701
C           -7.48037839179142       61.00490102232277      112.32507099635693
C           -6.62949000876063       60.02847839979903      111.64525113241449
C           -5.02221489572996       59.41217766496389      109.89302564499184
C           -4.22256539396292       59.74481703661381      108.73468089230812
C           -3.53869375568612       58.60758351859258      108.39481988403976
C           -3.94087375482671       57.60332674198865      109.37601085069329
C           -3.97204488368068       55.29113509412488      110.19165720865639
C           -3.64366725752880       53.89351386828131      109.99986874592504
C           -4.23327557935591       53.21688101156049      111.01717314329935
C           -4.91960586216803       54.21331587172100      111.82267075599157
C           -5.60233493668913       53.95647532429933      112.99293241728441
H           -5.59354740630205       52.94749495703848      113.37759819400971
C           -7.57148507711696       58.10827367830921      114.44594372934506
H           -8.12055890238786       58.42906151367558      115.32055191141225
C           -5.89448435877083       60.29399875279631      110.50796165278332
H           -5.97419774712107       61.27620571843769      110.06939530896143
C           -3.53778666293375       56.28440234010510      109.33589435253803
H           -2.86947764030284       55.97228848088857      108.54954719244827
C           -8.12395811957649       56.08555532431041      116.73481034231922
H           -7.47292780523313       56.59145537516349      117.44995589748923
H           -8.45474128637203       55.15094870668102      117.18251849191489
H           -8.99817305756859       56.71212209933243      116.57402103988602
C           -6.77085759741228       53.35077968368694      115.75656507078160
H           -5.78003946324905       52.91537980182903      115.64341345997568
H           -7.49805995899047       52.64466342360948      115.35413919492574
H           -6.96715935757809       53.47328073929373      116.81871852420090
C           -8.70948704121921       60.91265977735812      114.60758843721636
H           -8.23680406766771       60.67655250469613      115.56075574064323
H           -9.70137019152038       60.45729031584616      114.60144675187769
H           -8.82290749245998       61.98947033483719      114.55261065965637
C           -7.77366114839609       62.30766204168472      111.76118779181270
H           -7.16400631779878       62.56935091426696      110.90737692186163
C           -8.71445833881113       63.18648918832852      112.11838522273791
H           -9.41014756516345       63.02909481819567      112.92270499952107
H           -8.82668679614818       64.11693093662791      111.58725043070612
C           -4.17261012680297       61.09192481348965      108.10744615977782
H           -4.34797682448629       61.87223125576787      108.84552527131439
H           -4.92938919001357       61.18672185079667      107.32618020159943
H           -3.19720014222090       61.26742108262678      107.66209955262181
C           -2.59380960031564       58.32868551874515      107.33578276968538
H           -2.08492917364859       57.38031423735679      107.43478365212295
C           -2.28587471434007       59.07239760207454      106.26855025943843
H           -2.74944812246522       60.01444612313211      106.04057302776836
H           -1.54272201721023       58.73521030776953      105.56564024687384
C           -2.88522505025025       53.35582217487725      108.83629299209335
H           -1.89616710819839       53.80543499079522      108.76498440018902
H           -3.42096836094936       53.57822666280673      107.91216130359527
H           -2.77088797546603       52.27827317770291      108.91222073014676
C           -4.20994310460914       51.74109695302317      111.21949166334770
H           -3.18530189317121       51.38703809009466      111.33454088782135
H           -4.63455379122698       51.24401349653212      110.34639245967237
H           -4.78007846021163       51.43944490530945      112.09113095587477
O           -4.13225538015842       57.61363041405092      113.22993564119534
H           -4.42422656754628       57.26810600373346      114.07162625711324
H           -3.59067894737976       58.40874795581950      113.34377149379333
C           -9.05326938186743       55.11559795207659      107.81039370000674