78
 energy: -115.975229537801 gnorm: 0.250356777823 xtb: 6.7.1 (edcfbbe)
Fe          11.56300000000000       -2.51400000000000        1.44000000000000
N           12.15300000000000       -0.85000000000000        2.42500000000000
N            9.85900000000000       -2.50000000000000        2.57300000000000
N           10.92900000000000       -4.15900000000000        0.42100000000000
N           13.22300000000000       -2.41700000000000        0.25600000000000
C           13.33000000000000       -0.15300000000000        2.19100000000000
C           13.32200000000000        1.04400000000000        3.00100000000000
C           12.17900000000000        1.05700000000000        3.71400000000000
C           11.43700000000000       -0.14000000000000        3.37700000000000
C            9.51900000000000       -1.61500000000000        3.57300000000000
C            8.32200000000000       -2.08900000000000        4.22900000000000
C            7.95600000000000       -3.23900000000000        3.62500000000000
C            8.92300000000000       -3.51600000000000        2.57900000000000
C            9.76700000000000       -4.83800000000000        0.68200000000000
C            9.59400000000000       -5.83000000000000       -0.36500000000000
C           10.65900000000000       -5.75500000000000       -1.19300000000000
C           11.52700000000000       -4.70800000000000       -0.69600000000000
C           13.55500000000000       -3.34800000000000       -0.72300000000000
C           14.90700000000000       -3.12000000000000       -1.17000000000000
C           15.39600000000000       -1.92900000000000       -0.38200000000000
C           14.30800000000000       -1.55800000000000        0.47900000000000
C           14.34700000000000       -0.49800000000000        1.34300000000000
H           15.24900000000000        0.11300000000000        1.35700000000000
C           10.21100000000000       -0.47100000000000        3.90000000000000
H            9.75900000000000        0.21400000000000        4.61700000000000
C            8.89100000000000       -4.59200000000000        1.72600000000000
H            8.09900000000000       -5.32300000000000        1.88600000000000
C           12.74100000000000       -4.32900000000000       -1.22000000000000
H           13.08500000000000       -4.85700000000000       -2.11000000000000
C           11.70600000000000        2.12000000000000        4.73500000000000
H           12.47000000000000        2.92300000000000        4.81500000000000
H           11.57200000000000        1.64900000000000        5.73200000000000
H           10.74800000000000        2.56700000000000        4.39400000000000
C           14.44900000000000        2.10100000000000        2.97900000000000
H           14.79500000000000        2.25200000000000        1.93400000000000
H           15.30500000000000        1.75000000000000        3.59500000000000
H           14.06600000000000        3.06600000000000        3.37500000000000
C            7.65900000000000       -1.33800000000000        5.39800000000000
H            7.69100000000000       -0.24500000000000        5.20200000000000
H            8.20800000000000       -1.55100000000000        6.34000000000000
H            6.59900000000000       -1.65600000000000        5.49600000000000
C            6.76700000000000       -4.15900000000000        3.94100000000000
H            6.30800000000000       -4.74600000000000        3.13200000000000
C            6.25100000000000       -4.28900000000000        5.16300000000000
H            6.67100000000000       -3.72600000000000        6.00900000000000
H            5.39800000000000       -4.96100000000000        5.34000000000000
C            8.37100000000000       -6.76600000000000       -0.45900000000000
H            7.45100000000000       -6.20100000000000       -0.19900000000000
H            8.48900000000000       -7.61000000000000        0.25400000000000
H            8.27500000000000       -7.15500000000000       -1.49500000000000
C           10.95400000000000       -6.55400000000000       -2.47400000000000
H           11.41600000000000       -6.03500000000000       -3.32600000000000
C           10.68800000000000       -7.84900000000000       -2.63400000000000
H           10.22600000000000       -8.42900000000000       -1.82100000000000
H           10.92700000000000       -8.35500000000000       -3.58100000000000
C           15.68400000000000       -3.92600000000000       -2.22300000000000
H           15.25300000000000       -3.73400000000000       -3.22900000000000
H           15.60500000000000       -5.01100000000000       -1.99800000000000
H           16.75000000000000       -3.61400000000000       -2.22300000000000
C           16.78200000000000       -1.27100000000000       -0.46400000000000
H           17.26800000000000       -1.54800000000000       -1.42400000000000
H           17.41600000000000       -1.62600000000000        0.37600000000000
H           16.67600000000000       -0.16600000000000       -0.41900000000000
O           10.59400000000000       -1.28700000000000        0.19100000000000
H           10.76200000000000       -0.40000000000000        0.51000000000000
H           10.10500000000000       -1.50700000000000       -0.51800000000000
C           14.83500000000000       -6.31100000000000        3.97700000000000
H           14.38700000000000       -7.29700000000000        4.22400000000000
H           15.41600000000000       -5.95000000000000        4.85300000000000
H           15.50600000000000       -6.43000000000000        3.09900000000000
N           12.75900000000000       -4.99500000000000        4.55100000000000
H           12.66600000000000       -5.38100000000000        5.46900000000000
C           13.74800000000000       -5.33500000000000        3.65400000000000
C           11.96900000000000       -4.08900000000000        4.00100000000000
H           11.10000000000000       -3.65000000000000        4.49000000000000
N           12.41600000000000       -3.82400000000000        2.78400000000000
C           13.51100000000000       -4.60300000000000        2.53300000000000
H           14.02300000000000       -4.56700000000000        1.58000000000000
78
 energy: -116.027800811789 gnorm: 0.101011200526 xtb: 6.7.1 (edcfbbe)
Fe          11.56535248305976       -2.52684229021727        1.45975512202630
N           12.15536223109352       -0.84704162617786        2.42430762110406
N            9.86131480605357       -2.51722982112871        2.58068374322554
N           10.92577436695560       -4.14454854087062        0.41396848065142
N           13.22809156669804       -2.43183247398795        0.27753638033609
C           13.31972503192501       -0.15133570639974        2.19633687275970
C           13.33147341339052        1.05337021956802        3.00329291655283
C           12.18078093513453        1.06626087957084        3.72142391250471
C           11.44633598679589       -0.13207695050929        3.36061063574549
C            9.51275316647736       -1.63214100600412        3.56525607144111
C            8.31141416382879       -2.08904148724244        4.23286781159244
C            7.94238754479907       -3.25698061246941        3.63101729296055
C            8.92202841691292       -3.51423171919900        2.58345513873729
C            9.77506835792980       -4.83425156438973        0.66291846913990
C            9.59333264032952       -5.84589239301094       -0.36580644990339
C           10.66190123917826       -5.76117253756999       -1.20993936691117
C           11.51192147618612       -4.69536004645071       -0.69807866169942
C           13.57359833584666       -3.32426793245735       -0.70865532467944
C           14.92445670217135       -3.08342198543758       -1.15440794112072
C           15.38930506125253       -1.96749555657300       -0.40925339138094
C           14.30694091407804       -1.59188479514547        0.46059108975020
C           14.33786333875091       -0.51508149635307        1.33592329401613
H           15.23408653279710        0.09711557953447        1.34806984132316
C           10.21536402758578       -0.48003525698558        3.88739439740439
H            9.77414839153827        0.19532835572877        4.61363948824534
C            8.89707050231905       -4.59084540665224        1.71624795992122
H            8.10234435000698       -5.31344510515556        1.86873733504933
C           12.74099303025628       -4.31749123256742       -1.21288859113851
H           13.08988203116622       -4.85634393752641       -2.08936561304408
C           11.71209925159049        2.10604886450816        4.72116734227149
H           12.45515496549164        2.90448963246654        4.81338380410089
H           11.57184211557155        1.65381426702112        5.70922960497643
H           10.76422696412020        2.55319852223437        4.40006126710916
C           14.43693242206638        2.08860330326695        2.97793462141862
H           14.78644021013928        2.24904628295418        1.95250646763166
H           15.28726164232871        1.75585831884920        3.58488104524004
H           14.07573601625806        3.04445441261915        3.36988702710128
C            7.66302418234838       -1.34467401077632        5.37979921076273
H            7.69150857043157       -0.26423748221455        5.20202244223152
H            8.19532708935690       -1.54830325175667        6.31802623378090
H            6.61789343878417       -1.64799500585494        5.49104509240323
C            6.78479435775076       -4.14210099189251        3.94446633435432
H            6.34450431891690       -4.71910330791935        3.13115451638445
C            6.25949233436436       -4.28164989048964        5.15765854844865
H            6.66444026972008       -3.74878698289008        6.00823918460608
H            5.41684491314275       -4.94375647146072        5.33591171878713
C            8.38543989831543       -6.75441840902262       -0.45818858312475
H            7.47101812211440       -6.20755643979591       -0.20236619517022
H            8.48823697979168       -7.59471830276147        0.23908052380104
H            8.28160817278679       -7.14688659295702       -1.47469047432297
C           10.94562236476479       -6.54477380421539       -2.45098392899222
H           11.40960766127962       -6.01643130811900       -3.28463796619518
C           10.68275172225943       -7.83637186984536       -2.62055603159101
H           10.23702506185916       -8.42919912238930       -1.83100261085612
H           10.91822546720809       -8.34168663793243       -3.55397600757612
C           15.66985748116471       -3.89652597441298       -2.19499817000970
H           15.25538578881984       -3.73037725998798       -3.19967146821025
H           15.60312514698172       -4.97387288731825       -1.99012816679952
H           16.72796196171686       -3.61743845215542       -2.22395958718488
C           16.74879234327240       -1.29731940427510       -0.47255933105178
H           17.25659603663659       -1.54737624757281       -1.40975752183546
H           17.39148693444373       -1.62270846866204        0.35750708834038
H           16.66469789072613       -0.20346824033746       -0.42024427850839
O           10.60359911174175       -1.27080587728176        0.18826958342082
H           10.74515242923960       -0.37286140485385        0.48880987989727
H           10.07790576991871       -1.49170493492599       -0.55903792554011
C           14.83163787849954       -6.31636037475225        3.98029497601538
H           14.40096427609963       -7.29375949003664        4.22463041045256
H           15.41449797836196       -5.96456031394910        4.83956726086012
H           15.49454913903138       -6.42773928607590        3.11824930489675
N           12.77258351782691       -5.00632359695334        4.55751568565056
H           12.67432487853315       -5.39371765489295        5.47936916687773
C           13.75409340544199       -5.34270837238396        3.65969640248305
C           11.98142839339632       -4.08497346373768        3.99302157174969
H           11.12088714108921       -3.65084223432484        4.47394082864863
N           12.41336023026768       -3.81275044296583        2.78103575613845
C           13.50583915675365       -4.59489034527212        2.54645116476598
H           14.01414355275747       -4.56056254841876        1.60030564675220
78
 energy: -116.043241783360 gnorm: 0.036263396220 xtb: 6.7.1 (edcfbbe)
Fe          11.56719801310325       -2.53838060826844        1.47051829176376
N           12.16010171160647       -0.85054253078426        2.42553230768522
N            9.86832256169718       -2.53637436344825        2.58462380186029
N           10.92091210069444       -4.12870658095382        0.40982129426403
N           13.23673756127981       -2.45229779742153        0.30110722526228
C           13.31234417561661       -0.15811004178509        2.19994360503688
C           13.33670330630367        1.05382860339473        2.99882551246764
C           12.17998560325055        1.06707524715266        3.71943150229325
C           11.45566177865443       -0.13476723146759        3.34816208649277
C            9.51682192703701       -1.65071330486498        3.55726395949458
C            8.31361992020606       -2.08981003415555        4.23172910019346
C            7.94166359953431       -3.27067003481641        3.63437019724315
C            8.92698567652062       -3.51650541590450        2.58561186312257
C            9.77954168540644       -4.82581699825213        0.64974448018120
C            9.59517720790993       -5.85031743405223       -0.36100811851785
C           10.66634621700209       -5.75727715238958       -1.21505339449393
C           11.49935177220542       -4.67663817317249       -0.69569980223066
C           13.58195617650775       -3.31807028163001       -0.68967430220562
C           14.93352912168857       -3.05693689943190       -1.14155792618408
C           15.37900613808104       -1.99980952343502       -0.42906257141253
C           14.30312589147514       -1.62296971828831        0.46152729634155
C           14.32876146585097       -0.53705984114937        1.33445227333985
H           15.21779798235698        0.07908380590357        1.33595482411698
C           10.22546383565862       -0.49672291455541        3.87729833587300
H            9.79315585163301        0.16928204920483        4.61199722995531
C            8.90032816814642       -4.58856790090425        1.70561163021699
H            8.09859727608793       -5.30126770024293        1.84333728097964
C           12.74060525515204       -4.31020850832251       -1.20018248889881
H           13.09696400820114       -4.85883688404334       -2.06298953048551
C           11.71622803761639        2.08845884618719        4.70521111617646
H           12.44848505002637        2.88543750134294        4.80463463627935
H           11.57154281230779        1.64380975180143        5.68878571190349
H           10.77123926125287        2.53361159869486        4.39558616184633
C           14.42655621967389        2.07322964054113        2.97664363963245
H           14.77787670516997        2.23979858958060        1.96101065427575
H           15.27529436827547        1.74996154030637        3.57894083927051
H           14.07580488319869        3.02377221489368        3.37031915399885
C            7.66808579025527       -1.35127757381789        5.35737268579157
H            7.69889290622024       -0.27704479689783        5.18803871979621
H            8.18823524043442       -1.55187560670425        6.29612997916468
H            6.62950658913656       -1.64765056916972        5.47275211330741
C            6.81336846775426       -4.12534782970354        3.94460762602127
H            6.38959378087782       -4.69122878343741        3.12237069106556
C            6.27409007824696       -4.27618904417457        5.15163877485675
H            6.66547989366683       -3.77073186189089        6.01506062633543
H            5.43101985213941       -4.92541755696242        5.32243761828019
C            8.40347033769975       -6.74335651376470       -0.45540470687430
H            7.49327409809181       -6.20285537842920       -0.20211048534508
H            8.49404690456115       -7.58457827662024        0.23245885104960
H            8.29866433146958       -7.13633724023160       -1.46354707481266
C           10.94395499031344       -6.52656356192914       -2.41751145611454
H           11.41172845449193       -5.98702447165110       -3.23483007407451
C           10.67797274088178       -7.81690169358148       -2.59955213938483
H           10.24366263880953       -8.42644633722744       -1.82800342824914
H           10.90623067881102       -8.31783076303038       -3.52757035237343
C           15.65587181172050       -3.86743019583401       -2.17486069136190
H           15.24074294670907       -3.70865571652398       -3.17292281661005
H           15.58623217130153       -4.93596063948896       -1.96365558507861
H           16.71025651799962       -3.60382173824824       -2.20204111445330
C           16.71675324928824       -1.32348540994114       -0.48290025471097
H           17.23646556683975       -1.56121874592157       -1.40804417498828
H           17.35314513136480       -1.63685902136855        0.34851139485611
H           16.62565962242065       -0.23827477016642       -0.42427207582153
O           10.61743902153358       -1.24835575491526        0.15821361818221
H           10.70144529602097       -0.33417208326778        0.44142573741565
H           10.05169544131991       -1.45845301408618       -0.58559418135408
C           14.83018328487207       -6.32212625200095        3.98043046388757
H           14.40850601219809       -7.29489151306528        4.22446159424909
H           15.41484904076718       -5.97760759083207        4.83191842546431
H           15.48865586974576       -6.42927016789081        3.12642778434652
N           12.78306840166956       -5.01272103724794        4.56362932388746
H           12.67907859483707       -5.40160208979210        5.48666212481879
C           13.75869239539020       -5.34669076782167        3.66337025638471
C           11.99477792851949       -4.07739182806501        3.99029297299557
H           11.14143302079249       -3.64531297484110        4.46790383463316
N           12.41484139204284       -3.79768575408401        2.78101677516265
C           13.50484038451113       -4.58484729992329        2.55825810429481
H           14.01529579788417       -4.55347929071392        1.61866263822137
78
 energy: -116.047951827554 gnorm: 0.025367315337 xtb: 6.7.1 (edcfbbe)
Fe          11.56531400442303       -2.53538193935778        1.46712337848182
N           12.16486947590626       -0.85808272551904        2.42574611766455
N            9.87751065816383       -2.54572965815552        2.58106912868737
N           10.91439797223996       -4.11358401297216        0.41280092046575
N           13.24162563756029       -2.47027473297502        0.32268281377244
C           13.31312987995459       -0.16714010137999        2.20299345621942
C           13.33801320806823        1.04562715922126        2.99585284544367
C           12.18052946814901        1.05832082651421        3.71445486990974
C           11.46118287211874       -0.14362875904912        3.34434124677136
C            9.52944631459652       -1.66145637633142        3.55361334825028
C            8.32875079129114       -2.09318408957677        4.22867309149008
C            7.95563870351881       -3.27537100350470        3.63555232065085
C            8.93357929609368       -3.51933123455407        2.58361580712309
C            9.77589876247324       -4.81470312758795        0.64880888375205
C            9.59721098459469       -5.84402290275870       -0.35033377529438
C           10.66893546966321       -5.74813589530330       -1.20186039707247
C           11.49288976242730       -4.66392572950262       -0.68587212407136
C           13.57526557980937       -3.32870196253666       -0.67483977059944
C           14.92270217645503       -3.06297131595817       -1.13974310774024
C           15.37437360614235       -2.00488577253645       -0.42035121004480
C           14.30075852914675       -1.63685210264537        0.48004658142409
C           14.32847702701203       -0.54955368864861        1.34131854957540
H           15.21382412854592        0.06925349670535        1.33075373853736
C           10.23658463161907       -0.51034175428440        3.87596421722041
H            9.81113150364188        0.14556897597163        4.62180147517117
C            8.89472551808287       -4.58383949294808        1.69845119253976
H            8.08376346075114       -5.28817365629302        1.81977188481724
C           12.73698162504684       -4.31288553156688       -1.18729309959261
H           13.10090503236328       -4.87221899069342       -2.03870355113790
C           11.71226237432254        2.07466828350313        4.69676126657470
H           12.44223013425199        2.87329035304752        4.79850059664839
H           11.56664851363487        1.62580674660993        5.67831784587349
H           10.76524730810259        2.51491450271520        4.38620251378453
C           14.42603400645242        2.06195914465647        2.97527093016653
H           14.77621408888704        2.23241196213700        1.95977794179631
H           15.27509280722732        1.73587457161665        3.57576459119947
H           14.07579337045346        3.01030464930337        3.37487666889065
C            7.67259220965336       -1.35116039119467        5.33992230189103
H            7.70871054453089       -0.27772940144716        5.16704712562368
H            8.18072011829006       -1.55227042423591        6.28516860928623
H            6.63249558899556       -1.64736391798858        5.44247211082376
C            6.83009128116724       -4.12156449186540        3.94208314557753
H            6.41665683606826       -4.68025318647700        3.11062647305809
C            6.28230486759317       -4.27824508289629        5.14503956344665
H            6.67781469528341       -3.79730837048257        6.02243114414952
H            5.43275244931338       -4.92012916524414        5.30336315771255
C            8.41226594715195       -6.73776170537908       -0.45051471340128
H            7.50169529722074       -6.19703230479263       -0.19988105795377
H            8.50046594177089       -7.58147340123458        0.23464276208663
H            8.31607080757166       -7.12803816674145       -1.46059418333211
C           10.94951324113586       -6.51096652807864       -2.39574552695091
H           11.42879271702322       -5.96402804956115       -3.20069832809234
C           10.67574351162418       -7.79882135859765       -2.58374721780087
H           10.24742412288428       -8.41607568760496       -1.81433212305329
H           10.90007036455294       -8.29501756367160       -3.51323293604111
C           15.64142038365655       -3.86192231954541       -2.17304119935239
H           15.21745310767867       -3.69585764944647       -3.16334412882535
H           15.56887496018331       -4.92602689332185       -1.95172696760259
H           16.69413538898813       -3.59372733069695       -2.20199515818291
C           16.70323889174075       -1.33054184944083       -0.48321460127709
H           17.21952959548004       -1.57330082206535       -1.40807493352210
H           17.33176985695192       -1.64471266389495        0.35159692002985
H           16.59575584896113       -0.24906187135576       -0.42869326595887
O           10.64438635431976       -1.22059034990660        0.10014235691572
H           10.63859905313526       -0.29870814661409        0.40125597265396
H           10.01740183224045       -1.42861196335700       -0.60436319145065
C           14.82951912630828       -6.32747622115905        3.97825779841955
H           14.40721703374719       -7.30059149269958        4.22097003897515
H           15.41921312212816       -5.99049412162813        4.82963905975701
H           15.48682251224389       -6.43463041107641        3.12337963899147
N           12.79013121873579       -5.00878839223745        4.56865335701336
H           12.68305069136399       -5.40040823745336        5.49049572302365
C           13.76264933179721       -5.34423571081472        3.66580669793459
C           12.00666041599241       -4.06578271203615        3.99584434942198
H           11.15802066092866       -3.62955505814696        4.47624845562405
N           12.42192113903145       -3.78425318943996        2.78506650700728
C           13.51150231245534       -4.57461303731876        2.56538408925127
H           14.02760793690866       -4.54349447421313        1.62975098677431
78
 energy: -116.050173854533 gnorm: 0.052061893514 xtb: 6.7.1 (edcfbbe)
Fe          11.56763522399486       -2.53226648248863        1.46485202265881
N           12.16954270784030       -0.86682619052093        2.42069447380678
N            9.88606827522100       -2.54796816802535        2.56531075312255
N           10.90843625586208       -4.09342228926804        0.42003770416887
N           13.23910014116863       -2.48770978563086        0.34774708934130
C           13.31612592004833       -0.17734039767736        2.20339668012211
C           13.34050051744911        1.03416995641817        2.99226631970624
C           12.18276855396022        1.04645711438572        3.70787673422789
C           11.46712933833235       -0.15395091803709        3.33903563095167
C            9.54520652260567       -1.66957648182447        3.54614830523687
C            8.35098406480290       -2.09730680628402        4.22429804806918
C            7.97465975533951       -3.27808779363887        3.63432506767260
C            8.94038937752078       -3.51921896716681        2.57691576324449
C            9.76992619262851       -4.79913210430526        0.64971713761947
C            9.60125984313411       -5.83375605003379       -0.33665818329835
C           10.67602577125636       -5.73684579280252       -1.18166112499545
C           11.48976230475578       -4.65005887021675       -0.66968349509209
C           13.56502427133156       -3.34088636657481       -0.65468091824726
C           14.90690838732158       -3.07147412080509       -1.13169076090566
C           15.36337357081908       -2.01076844491772       -0.40872926439874
C           14.29433996211129       -1.65157734357373        0.50167526750183
C           14.33159838135218       -0.56339432252713        1.34857389484930
H           15.21632229081624        0.05419316535201        1.32615797721118
C           10.25110924114587       -0.52485424847964        3.87697072985255
H            9.83384287870125        0.11733465694162        4.63810950233248
C            8.88336313349997       -4.57563704624172        1.68864543262903
H            8.06493731385799       -5.27244532355654        1.79379216627081
C           12.73727344385822       -4.31987242080902       -1.16823520482087
H           13.10780583983094       -4.88940676415522       -2.00825117288444
C           11.70478963275594        2.05861148601308        4.68933196209925
H           12.43013641789390        2.86185847043098        4.79483866662865
H           11.55792047389346        1.60386493066072        5.66918072575238
H           10.75465119158661        2.49143619493231        4.37464475026158
C           14.43006635034152        2.04863293745649        2.97417403824188
H           14.77612707407279        2.22536745090583        1.95727495897845
H           15.28123477566278        1.71490936625696        3.56941079782547
H           14.08106816327703        2.99454745105978        3.38351197607368
C            7.67887180090444       -1.35104065436577        5.32150612533577
H            7.72046932302118       -0.27784195822107        5.14263947269112
H            8.16715369843495       -1.55014472503100        6.27861302944683
H            6.63559342423883       -1.64897025575026        5.40142227025190
C            6.84800479199683       -4.12325300262172        3.93796902486279
H            6.43552746835526       -4.66615397018244        3.09559027369633
C            6.29725936801521       -4.28980108947107        5.13779282288619
H            6.68585074731937       -3.81887746467830        6.02406283488371
H            5.43590072733155       -4.92041199700300        5.28041773959781
C            8.42118943650853       -6.73207943861670       -0.44421119671399
H            7.50673431219581       -6.19439390112811       -0.19769627240024
H            8.50806696737687       -7.57912272593310        0.23826439927743
H            8.33633856314119       -7.11868636337279       -1.45790352276852
C           10.96557715852112       -6.49620137235537       -2.37263171451533
H           11.45273447016949       -5.94139867045945       -3.16703126097825
C           10.67992690441079       -7.78049214635452       -2.56569190560788
H           10.24106450983058       -8.39748579291685       -1.80119980393887
H           10.89856822784702       -8.27202077896051       -3.49858377426148
C           15.61992129344307       -3.85848636021025       -2.17293146646994
H           15.18582540892409       -3.68673704347245       -3.15690260066727
H           15.55116963308444       -4.92155336599445       -1.95018360294022
H           16.67136014401036       -3.58380879468468       -2.20891225820201
C           16.68675815062686       -1.33668751079844       -0.48188801306749
H           17.20172425233082       -1.58849244967379       -1.40543310487365
H           17.31319382272827       -1.64324336338941        0.35673678317044
H           16.56850482181720       -0.25692234894989       -0.43921102614473
O           10.70328962689305       -1.17821651892984        0.00463717634256
H           10.54559265328049       -0.26308937511925        0.35737345115222
H            9.94221108927329       -1.38071336806121       -0.60117077241663
C           14.83030156641027       -6.33412803676831        3.97569269782734