78
 energy: -116.057578240761 gnorm: 0.000097404692 xtb: 6.7.1 (edcfbbe)
Fe          56.92695043666667       21.43308466161646       37.68087286784000
N           58.27124468950115       21.76830979547340       36.21981281221013
N           57.70103614756547       19.59295575330814       37.95034001467965
N           55.66997897396054       21.12930239692652       39.19384097982193
N           56.18340786229707       23.25921580582834       37.41016714422406
C           58.36946783458620       22.87947751922454       35.44239309087092
C           59.45328540078320       22.74678959837500       34.49576764744775
C           60.00907424553294       21.52459412368249       34.71719737208320
C           59.25005186867180       20.92243926389416       35.78967815156398
C           58.73002254018215       19.02515722505061       37.26011729368225
C           58.93234836921994       17.66426743549034       37.67661414480081
C           57.97025063626091       17.39871105647236       38.61546285452875
C           57.22916417569412       18.63113222028592       38.78780859180299
C           55.56429792307489       20.00599850096094       39.95533807517475
C           54.57537194937171       20.17880587687048       40.99023095571918
C           54.06701198285621       21.43966011048952       40.82844089974771
C           54.77479628703129       22.01290754549839       39.69862990516724
C           55.17435183099037       23.83708244090588       38.11070960708320
C           54.87428538509290       25.15317645762003       37.58748629582032
C           55.73123029040791       25.35500671201081       36.55245513924005
C           56.54432916415174       24.16062248620167       36.46049337729853
C           57.55929626709336       23.99549253864414       35.53805945187580
H           57.74132863949903       24.80273785460628       34.84533198283781
C           59.47848935191123       19.64909227181840       36.27442018800246
H           60.28333592456818       19.08321166391339       35.83043176240761
C           56.26752287630593       18.83135660951291       39.75920693440601
H           56.06008643303727       18.00713452275135       40.42327398333043
C           54.51795054090633       23.27134536029170       39.18658417581411
H           53.74531222310509       23.85711794219193       39.66092018681286
C           61.15988385172861       20.87089667646073       34.03138043358913
H           61.58722681400145       21.53037525518102       33.28014568993326
H           60.84272129368188       19.95103924543346       33.53874802748323
H           61.94083119353110       20.61677611538440       34.74851473337993
C           59.83472010203172       23.79087995822443       33.50331693512908
H           60.11133764094198       24.71662604573775       34.00838840632310
H           59.00041318058494       24.00733568690914       32.83580211057360
H           60.67897752447812       23.46370703877296       32.90130771378733
C           59.96325145013724       16.74328810730263       37.12047684656228
H           60.95865338727916       17.17886937067112       37.21242194569746
H           59.77783723743698       16.54950147124759       36.06308416161850
H           59.94981992144501       15.79214153647841       37.64656584229275
C           57.74135562445678       16.13824129805771       39.29061627892487
H           58.63525408465209       15.57445736274574       39.53613100301814
C           56.55307411602341       15.62089804991778       39.58132964048563
H           55.63435725630460       16.11343481470109       39.31130786778032
H           56.45898306870038       14.67093642898711       40.08103470776012
C           54.25637168148050       19.17813667236796       42.04536747552009
H           55.15668533089292       18.65656455220842       42.36641983765519
H           53.54914891077843       18.43365755529432       41.67557563605062
H           53.81363465133439       19.67343750549924       42.90718384135359
C           53.06203681724975       22.12963196192711       41.60620975686163
H           53.19772150292177       23.20091441697911       41.69895080912540
C           52.01295544417147       21.56071973908132       42.19151194558138
H           51.80252289554348       20.50992027061224       42.09487155142807
H           51.31016865250986       22.13649771720051       42.77077708860850
C           53.82058030434413       26.05445418647622       38.13339837301132
H           54.03241373314792       26.30298498628772       39.17352191633561
H           52.84360005140102       25.57213041148840       38.09347515399573
H           53.76967573881682       26.97969821310006       37.56466393937442
C           55.86968969217400       26.53775963504468       35.65635000354253
H           55.13365483254535       27.29869244127373       35.90384524696032
H           55.72807472704091       26.24855087626624       34.61475177608244
H           56.86264544108094       26.97758490346563       35.75319189444067
O           58.53972881771285       22.19301142406687       39.12417046198691
H           59.18917820403439       22.50055031427686       38.48232008750583
H           58.85768776459068       21.35078738635915       39.46705187646189
C           52.33937584484773       20.08705075683426       34.81846096827984
H           51.99842350389122       19.05284539457224       34.86455960438887
H           52.25843480055858       20.42680016018765       33.78596788434675
H           51.68814117056200       20.69601678704876       35.43748047886791
N           54.78053427302189       19.53842750384275       34.71423306399431
H           54.71224880632024       18.92306699451695       33.92036702256313
C           53.73763216773803       20.20330076025703       35.30425703839492
C           55.90569086860993       19.85720518676514       35.39271218469265
H           56.87831989703022       19.48089785839786       35.15203629516718
N           55.63882401365809       20.68275394524773       36.37526717825173
C           54.29409536017946       20.90787923216931       36.33310579238920
H           53.82112610204832       21.55648003873032       37.04128558613279
