78
 energy: -115.986254229147 gnorm: 0.226762135478 xtb: 6.7.1 (edcfbbe)
Fe          56.78799999999999       21.31500000000000       37.52100000000000
N           58.25999999999999       21.75000000000000       36.16999999999999
N           57.65900000000000       19.51800000000000       37.87599999999999
N           55.69199999999999       21.11600000000000       39.21400000000000
N           56.23200000000000       23.28600000000000       37.44900000000000
C           58.44400000000000       22.91100000000000       35.44200000000000
C           59.58100000000000       22.81200000000000       34.56300000000000
C           60.11600000000000       21.57500000000000       34.76500000000000
C           59.28099999999999       20.91200000000000       35.74799999999999
C           58.71299999999999       18.94900000000000       37.18899999999999
C           58.93100000000000       17.60100000000000       37.63400000000000
C           57.94200000000000       17.33100000000000       38.57600000000000
C           57.17999999999999       18.55600000000000       38.77400000000000
C           55.58299999999999       19.98200000000000       39.99700000000000
C           54.60799999999999       20.18400000000000       41.07000000000000
C           54.20700000000000       21.49500000000000       41.02200000000000
C           54.88300000000000       22.06000000000000       39.85700000000000
C           55.20300000000000       23.86900000000000       38.17299999999999
C           54.85300000000000       25.14600000000000       37.61099999999999
C           55.69900000000000       25.35000000000000       36.56700000000000
C           56.56799999999999       24.20500000000000       36.46000000000000
C           57.60600000000000       24.02900000000000       35.55000000000000
H           57.78600000000000       24.84400000000000       34.84900000000000
C           59.47600000000000       19.60500000000000       36.20500000000000
H           60.29499999999999       19.04200000000000       35.75800000000000
C           56.21500000000000       18.75800000000000       39.71800000000000
H           55.90700000000000       17.89400000000000       40.30700000000000
C           54.62100000000000       23.33000000000000       39.33499999999999
H           53.90699999999999       23.95400000000000       39.87200000000000
C           61.32899999999999       20.94300000000000       34.10300000000000
H           61.76899999999999       21.65800000000000       33.37600000000000
H           61.02400000000000       20.02200000000000       33.56300000000000
H           62.09100000000000       20.69700000000000       34.87300000000000
C           60.11900000000000       23.88300000000000       33.65500000000000
H           59.75800000000000       24.87600000000000       33.99800000000000
H           59.76299999999999       23.70900000000000       32.61700000000000
H           61.23000000000000       23.87500000000000       33.68200000000000
C           60.03600000000000       16.70400000000000       37.11300000000000
H           61.02200000000000       17.17300000000000       37.31900000000000
H           59.92299999999999       16.56800000000000       36.01600000000000
H           59.99200000000000       15.71900000000000       37.62400000000000
C           57.67300000000000       16.11200000000000       39.28400000000000
H           58.57100000000000       15.59800000000000       39.63800000000000
C           56.46700000000000       15.39800000000000       39.64100000000000
H           55.48000000000000       15.79000000000000       39.35400000000000
H           56.52300000000000       14.45400000000000       40.20400000000000
C           54.28900000000000       19.13900000000000       42.10500000000000
H           55.18500000000000       18.50700000000000       42.28300000000000
H           53.46000000000000       18.49400000000000       41.74400000000000
H           53.99999999999999       19.63100000000000       43.05800000000000
C           53.34300000000000       22.21700000000000       41.90900000000000
H           53.56300000000000       23.28500000000000       42.02999999999999
C           52.29399999999999       21.79300000000000       42.62499999999999
H           51.97899999999999       20.73999999999999       42.58300000000000
H           51.73500000000000       22.49200000000000       43.26400000000000
C           53.66200000000000       25.97400000000000       38.02000000000000
H           53.82400000000000       26.37800000000000       39.04200000000000
H           52.74900000000000       25.34200000000000       38.02300000000000
H           53.53400000000000       26.82200000000000       37.31399999999999
C           55.69199999999999       26.50000000000000       35.58799999999999
H           55.29700000000000       27.41000000000000       36.08800000000000
H           55.04000000000000       26.25300000000000       34.72300000000000
H           56.72699999999999       26.70100000000000       35.23800000000000
O           58.69899999999999       22.16600000000000       39.01200000000000
H           59.35400000000000       22.53200000000000       38.41800000000000
H           58.75300000000000       22.13400000000000       39.89899999999999
C           52.16100000000000       20.24300000000000       34.34700000000000
H           51.64699999999999       19.26700000000000       34.47699999999999
H           52.27499999999999       20.44800000000000       33.26100000000000
H           51.54800000000000       21.03900000000000       34.82099999999999
N           54.48100000000000       19.28100000000000       34.61400000000000
H           54.38600000000000       18.57900000000000       33.90800000000000
C           53.49400000000000       20.18900000000000       34.98900000000000
C           55.57700000000000       19.52800000000000       35.37900000000000
H           56.49600000000000       18.94900000000000       35.29500000000000
N           55.38500000000000       20.52900000000000       36.20800000000000
C           54.06199999999999       20.95400000000000       35.96699999999999
H           53.64800000000000       21.78000000000000       36.53200000000000
78
 energy: -116.030964961116 gnorm: 0.091053778066 xtb: 6.7.1 (edcfbbe)
Fe          56.84529312556381       21.34503248956294       37.58147387166587
N           58.25343156009028       21.73855547724527       36.14908408182066
N           57.64652428890265       19.51253343286333       37.86803440699156
N           55.67849601861655       21.11511429822241       39.22500425027582
N           56.20560041034836       23.27664784177140       37.43360400099414
C           58.42699565532812       22.90301116207040       35.44359115375676
C           59.57827760853101       22.80598814892483       34.57569324245740
C           60.10677746777076       21.56207223138169       34.77060433176221
C           59.26850585834045       20.90073950737136       35.75082102598662
C           58.69844178901628       18.95071175773806       37.19594894101287
C           58.91176188366723       17.59683836401229       37.64347570171650
C           57.92028000537982       17.31954090358913       38.57264907977454
C           57.16638463606090       18.55494891448860       38.73936136201549
C           55.55514072224487       19.97387545910041       39.97260853084882
C           54.62813092962477       20.18137738586069       41.07073228545954
C           54.21633093687651       21.49105134510484       41.00977079611333
C           54.87462377240867       22.05406355584476       39.83606377289698
C           55.20370135391885       23.85811335875837       38.16797614109603
C           54.84726446542398       25.13523460770081       37.60019181554372
C           55.69417559217418       25.34333155911634       36.55328766945708
C           56.55546129970195       24.18786755458358       36.46141399057404
C           57.59639587733918       24.01746525323936       35.55670160903934
H           57.78361701407281       24.83411306014750       34.86548014521324
C           59.46059859663427       19.60380500398286       36.21716618361446
H           60.28053780582300       19.04637722684667       35.77520748324675
C           56.19895812403342       18.76381545636673       39.69827060095257
H           55.92377804086651       17.90992551464657       40.30980160093028
C           54.62837531076804       23.32052263811678       39.32117205489417
H           53.91821890766353       23.94355640123131       39.85583734609014
C           61.31344950138534       20.94926966150847       34.11208566848013
H           61.75719782267953       21.64457593397467       33.39200580090808
H           61.03236946982027       20.03649318014264       33.57537723390329
H           62.07444060429717       20.69536853647767       34.85913764224820
C           60.10915939717218       23.87621697063316       33.66865957196900
H           59.76613304654136       24.86451123237359       33.98922544473833
H           59.77169391471241       23.71435372451515       32.63703958134907
H           61.20500189778588       23.87621498310214       33.67728654649950
C           60.01395167642804       16.71142513931261       37.12654677148201
H           60.99519316927888       17.16549471031082       37.31814547615163
H           59.92174474608067       16.56656463274709       36.04277273633954
H           59.98751632561882       15.73262389989093       37.61382463464926
C           57.66656309706141       16.09112351000197       39.29450247869890
H           58.56889538253037       15.57782686731715       39.62599010516119
C           56.51176580612577       15.44570183731361       39.62542887619049
H           55.52765165589049       15.80465486768631       39.34165492670014
H           56.54630046796232       14.50950839793161       40.17567309869541
C           54.29744527370270       19.14590681365194       42.09941559470736
H           55.16898091569958       18.51061810558476       42.28670458890678
H           53.47483665838732       18.50617473115917       41.75567000263863
H           54.00181812364364       19.62187598700705       43.04038393130232
C           53.34849939228075       22.22314466027051       41.90220106681514
H           53.57088430681098       23.28531352285392       42.00859437938638
C           52.31076157779430       21.78550134572597       42.61959812449995
H           51.97912817792457       20.75467575640220       42.57781001784262
H           51.74907072611212       22.46533478908732       43.25162672735502
C           53.67626033767239       25.96988537545449       38.02333832570780
H           53.81996194960100       26.37400702786550       39.03217674326805
H           52.76617164575975       25.35929918231464       38.02580195952132
H           53.53324276990377       26.80581559506813       37.33175296252396
C           55.69545264489565       26.49683398947071       35.59511036909936
H           55.30595110094713       27.39990365248289       36.07615165393214
H           55.05851254100957       26.26340205316462       34.73312089136596
H           56.70828521398646       26.70397184134584       35.23824724874260
O           58.66877063075398       22.15726144553343       38.97676762499947
H           59.34918387471253       22.52940854528084       38.41945938922848
H           58.74997546921048       22.13237610328894       39.91366753171754
C           52.17465484879502       20.24045027018466       34.35532456528055
H           51.65259023532898       19.28277511981704       34.47331620425835
H           52.26774971760022       20.44553151363626       33.28161424819167
H           51.56331942482714       21.02403261428322       34.81069977500706
N           54.48748505116104       19.29289902920279       34.62906504310813
H           54.38882639650390       18.58515740860499       33.92015692605031
C           53.51405146999637       20.19866400318934       35.00011174938617
C           55.58332839661550       19.54231216842124       35.38824262926465
H           56.48987160653424       18.96516989173139       35.30323032337220
N           55.39596956456769       20.54504279308871       36.21692572420198
C           54.08668240373240       20.95865767110265       35.97767548093418
H           53.66617051496701       21.77443899859595       36.53565412701865
78
 energy: -116.043596735621 gnorm: 0.038082635372 xtb: 6.7.1 (edcfbbe)
Fe          56.89047300235837       21.37173312970634       37.62629699908929
N           58.25254317817050       21.73260188557004       36.14955440301330
N           57.63121941397544       19.51377620177222       37.86477418640700
N           55.66990024063826       21.11109468444246       39.22572665424467
N           56.19756187041055       23.26647246566513       37.42944880435112
C           58.41057484474587       22.89117864669094       35.44964550994072
C           59.57111949732781       22.79717939841155       34.58745200949456
C           60.09366000838902       21.55013002887622       34.77687243631950
C           59.25222924794640       20.89245345865643       35.75610941235248
C           58.68006624638400       18.95752959116412       37.19961591773701
C           58.89279801966629       17.59942264160978       37.64497824805044
C           57.90596623008596       17.32322844891543       38.56366614564592
C           57.15169184549614       18.55988096259555       38.71014895994605
C           55.54225052910758       19.97017900811090       39.95546728944770
C           54.63861322604865       20.17639677878809       41.06277027057777
C           54.22354191853399       21.48394891938701       40.99200094776342
C           54.87411862993108       22.04374520788220       39.81524202350825
C           55.20112551769986       23.83942032875776       38.15547908438636
C           54.84303936943601       25.12161255106298       37.58903825275470
C           55.68798636744634       25.33026330786479       36.54006955864641
C           56.53999276737316       24.16193276425964       36.45903566055780
C           57.58231562297006       23.99998156165026       35.55881222808971
H           57.77938219243854       24.82202269875057       34.88243451410631
C           59.44267189017247       19.60245881901729       36.22716352085584
H           60.26680879182609       19.04922586280281       35.79596727045679
C           56.18883694604267       18.77056067903372       39.68357626423488
H           55.94151693567989       17.92491569443114       40.31179657227420
C           54.63059557512629       23.30640975837678       39.30247296149361
H           53.92317887351187       23.92927986052171       39.83405380683312
C           61.29558283473083       20.95007013947568       34.12310491849173
H           61.73548854066970       21.64192604653036       33.40982645932827
H           61.02798790621377       20.04052688737982       33.58740772763727
H           62.05513654959838       20.69326048423600       34.86074382975130
C           60.09714208460127       23.86679966058227       33.68293935043466
H           59.76196335093586       24.85096872297542       33.99564658071712
H           59.76543264029240       23.70783378226553       32.65612778350381
H           61.18570713668716       23.86739209850820       33.68234849570179
C           59.98904581855633       16.71747512584767       37.13742454395612
H           60.96380863937863       17.17002287824191       37.32615948516850
H           59.90379161454690       16.56782599486012       36.06076159743585
H           59.96683561764060       15.74400680924242       37.61764980775468
C           57.68042093761937       16.08242495546629       39.29171632428584
H           58.59371875131819       15.58037155469516       39.60434326615869
C           56.55079554040176       15.48391152288440       39.59591816947085
H           55.57114521703681       15.84316023988796       39.32825162679871
H           56.55688227408864       14.55987171806846       40.15550130286093
C           54.30429572093954       19.15242570763407       42.09313848840270
H           55.16235152972830       18.51440206358214       42.28985266749108
H           53.48399614641174       18.51748776266332       41.75658342654260
H           54.00416122152728       19.62863119542655       43.02321321484007
C           53.35830519640507       22.22820522509910       41.88678980522101
H           53.58743832854358       23.28568273771074       41.97715637256098
C           52.32855565561196       21.77698857215130       42.60060285364596
H           51.99193084631279       20.75714386715599       42.56634381426300
H           51.76966674303532       22.43915118477798       43.24077456008820
C           53.68986568781181       25.96359568738519       38.02727597182010
H           53.83442171946232       26.36275601285778       39.02974716153305
H           52.77831904736265       25.36695334415664       38.03309609593100
H           53.54289831695972       26.79577505679033       37.34489291241167
C           55.69952720147614       26.48850479221310       35.59824741321845
H           55.31336084548968       27.38456714444142       36.07675829604494
H           55.07252076347324       26.26966605985232       34.73306665093293
H           56.70322443138490       26.69929747593787       35.24257224026375
O           58.61428535360847       22.15408589098412       38.94731418539481
H           59.33933634650346       22.51955071553092       38.43623565201472
H           58.73605282547223       22.12450701612812       39.89804970566826
C           52.18950438824708       20.24197818704702       34.36727726142505
H           51.67217314528594       19.29017734092841       34.48336968871970
H           52.27752792916989       20.44559689891204       33.30026716567756
H           51.58127056018009       21.01981241329672       34.81495000528632
N           54.49754818947823       19.30674586356443       34.64529536724908
H           54.39752245529712       18.59570198779530       33.93681618263128
C           53.53181840134569       20.21013869543057       35.01253724443983
C           55.59252301990211       19.55591897536361       35.39808570743380
H           56.49486432827720       18.98496167052036       35.31456798228530
N           55.39682378990479       20.55584827057314       36.22319808455331
C           54.10821981325796       20.96988940444216       35.98936992982311
H           53.68402579887785       21.78096881372571       36.54301271015118
78
 energy: -116.047208189315 gnorm: 0.019521323291 xtb: 6.7.1 (edcfbbe)
Fe          56.90352570520502       21.37933164736474       37.63883215840197
N           58.24282712829980       21.72675569124323       36.15394473725425
N           57.62367341740855       19.51964600931736       37.86486079219494
N           55.67300822139067       21.10622579500755       39.21815763777498
N           56.18885310678863       23.25114740689004       37.41825707803761
C           58.39982105456362       22.88219287328066       35.45490738505531
C           59.55970806986687       22.78887444434907       34.59292221989785
C           60.08016669525165       21.54290224258055       34.78093541340894
C           59.24070028663284       20.88972126114864       35.76163771287796
C           58.67108475705563       18.96513878769412       37.19877615740948
C           58.88532193446240       17.60732937673865       37.63876947890380
C           57.90945086175942       17.33525502204041       38.55943002298668
C           57.14561315059471       18.56414364814111       38.70101874231403
C           55.53948389822324       19.96566859066522       39.94447732648973
C           54.64157955353529       20.17335716462217       41.05359861220542
C           54.22626245903721       21.47865755434732       40.97609267126706
C           54.87341897827233       22.03415120579957       39.79856151533914
C           55.19335203047582       23.82364633704065       38.14099701647074
C           54.83592516984292       25.10731396281583       37.57636292048754
C           55.67781268526231       25.31423290439268       36.52638748264756
C           56.52837386741469       24.14366598011762       36.45069165763297
C           57.57319645399376       23.98919082479680       35.55639720267131
H           57.77264524311416       24.81250624337823       34.88532280545007
C           59.43571750649244       19.60310283911148       36.23191494124517
H           60.26165165811873       19.04974546113978       35.80786431678607
C           56.18517198963553       18.76901684106401       39.67702229953307
H           55.95552321024510       17.92852397881756       40.31661516220100
C           54.62348719206142       23.29458148948670       39.28602347934704
H           53.91155522046530       23.91437190378073       39.81211847736823
C           61.28117041877871       20.94387063203431       34.13192496938839
H           61.71840859213486       21.63953360053953       33.42135243087776
H           61.01711304654331       20.03343659565674       33.59578542602672
H           62.03867334108862       20.68756156459497       34.87195195840350
C           60.08329045723338       23.85898933968455       33.69184589969524
H           59.74991530479376       24.84247004626776       34.00826792565110
H           59.74799808416088       23.70051054925819       32.66646680038363
H           61.17169816056026       23.85676370445979       33.68889239067904
C           59.97398543654386       16.72043561889675       37.13805965510898
H           60.94717990807850       17.17345883708649       37.32881245637091
H           59.88577516625141       16.56534970326805       36.06312216631767
H           59.94347361438842       15.75061504290616       37.62504074994853
C           57.71067509361832       16.09165273102658       39.28844881462607
H           58.62992702703420       15.58759369544366       39.57913211935210
C           56.55615963004962       15.51440828661542       39.59858990306851
H           55.59153120866733       15.89047348180964       39.30449907462224
H           56.53824929248272       14.57810665833541       40.13762528568608
C           54.30813242933871       19.15685216505431       42.08935875858946
H           55.16360835805386       18.51719792594689       42.29372490711723
H           53.48656924744946       18.52216882807256       41.75577396441454
H           54.00682669533533       19.64283037283699       43.01381709205737
C           53.36837999952533       22.22997172804036       41.86944623576780
H           53.59949889469869       23.28744635260026       41.94544282650131
C           52.34773576223369       21.76824931295036       42.58674176383587
H           52.00973169900318       20.74921113079093       42.54335453499392
H           51.78531334818233       22.42198811481519       43.23229203419594
C           53.69838702696347       25.95801712649919       38.03355387331806
H           53.86138416360896       26.34839993245427       39.03684412996201
H           52.78009697982466       25.37153305832122       38.04750085686928
H           53.55314558690800       26.79570318787172       37.35766839503393
C           55.70335898184587       26.47920348606964       35.59502115363916
H           55.31768933340607       27.37149663848763       36.08114699819012
H           55.08355439362926       26.27413309927837       34.72069809603733
H           56.71088642004959       26.69039284414612       35.24919777791472
O           58.55746826195052       22.19213956236290       38.94775434407633
H           59.33549420958033       22.49595824895854       38.46120080330858
H           58.72432829253165       22.10378543770422       39.89457986239032
C           52.20415182406149       20.24686198393591       34.38177096411172
H           51.69348677017918       19.29255759530182       34.50213282226940
H           52.29157698860427       20.44856279764054       33.31466844280011
H           51.59581698756150       21.02415915170259       34.82971426484041
N           54.51112900598932       19.31893140479420       34.65852740412070
H           54.41021168674332       18.60533722696364       33.95373584218189
C           53.54614768304487       20.22149168263419       35.02441312109543
C           55.60713871149450       19.56935479374473       35.40705048034992
H           56.51227033961471       19.00392060757577       35.32715898516680
N           55.40416644182049       20.57014380819381       36.22555402639743
C           54.12328644171952       20.98434115579601       35.99999777837388
H           53.69989174716934       21.79603166339841       36.55344201021228
78
 energy: -116.048338678217 gnorm: 0.047818441562 xtb: 6.7.1 (edcfbbe)
Fe          56.90074438311598       21.38045836979742       37.63680230342868
N           58.23310635528256       21.72330586063960       36.16707885373019
N           57.62082003978055       19.53099537214881       37.87152148369864
N           55.67679051074455       21.09958235994986       39.20367817548068
N           56.17861422361300       23.23163117180879       37.40301008250581
C           58.38933122118824       22.87341083403956       35.46106621620117
C           59.54620188221556       22.78057041627994       34.59771959807858
C           60.06648344524189       21.53685541110166       34.78632382845910
C           59.23086638349741       20.88963134598876       35.77035722956187
C           58.66572040046078       18.97499669327067       37.20043890326395
C           58.88217062612075       17.61878764645091       37.63505756367164
C           57.91036649513249       17.34669786759557       38.55519655680207
C           57.14505226249182       18.57078576742307       38.70317072178264
C           55.54278496589392       19.96331901587626       39.93779422384349
C           54.64146467338256       20.17181759572139       41.04251446665056
C           54.22526170848364       21.47465170286186       40.95683597070821
C           54.87288666506284       22.02437343976280       39.77998548907222
C           55.18212027072592       23.80606359735945       38.12276340864466
C           54.82621371057972       25.09086532339740       37.56067863711122
C           55.66538121704871       25.29598525353657       36.51050946695851
C           56.51485727403638       24.12449578395780       36.43763755368436
C           57.56186555034587       23.97831280496261       35.54862990286274
H           57.76098759760522       24.80085228243043       34.87895970350981
C           59.43279237738070       19.60484841071395       36.23681569029375
H           60.25795667719835       19.04929205682781       35.81674794566488
C           56.18808572217205       18.76748518032703       39.68027984375107
H           55.96781337595955       17.93040978399121       40.32392022472326
C           54.61053645509374       23.28126924477515       39.26606627564917
H           53.89014214919770       23.89575100149160       39.78499197091050
C           61.26639489148747       20.93378610117581       34.14126973585764
H           61.70400787910575       21.63132966532399       33.43143288525160
H           61.00225534083361       20.02193892509498       33.60552116438664
H           62.02123252782773       20.67799401753202       34.88596201403988
C           60.06566300401613       23.85128908041887       33.69838699744950
H           59.73420791818128       24.83419191735030       34.02265365672285
H           59.72264241536134       23.69513151889144       32.67433562801484
H           61.15509526384304       23.84605734121367       33.69184467560531
C           59.96195069105273       16.72402335474435       37.13580114090022
H           60.93838233651090       17.17093238783970       37.32626033112432
H           59.86888348149446       16.56318895266996       36.06166838104883
H           59.91892862329519       15.75674550771315       37.62992387789609
C           57.73239322060385       16.09782445810819       39.27089639857224
H           58.65128758200647       15.59565749388629       39.55527818689452
C           56.56671047344065       15.52879417403582       39.57220743672926
H           55.61874876570965       15.95995100094719       39.29676672641181
H           56.52639504790858       14.60640093494897       40.13207641393594
C           54.31053793805069       19.16253543740570       42.08544065788811
H           55.16658264579539       18.52380081921406       42.29699926619211
H           53.48821009338811       18.52470818161488       41.75629142641056
H           54.00963854558182       19.66028098841275       43.00525217067139
C           53.37347250899342       22.23303216635953       41.84532439703219
H           53.61061181148111       23.28904438132803       41.91432335934388
C           52.36166763285315       21.75994011813083       42.56603808628143
H           52.03655278553280       20.73575147245386       42.51950634925982
H           51.79891826640598       22.40263965323620       43.22461189879853
C           53.70696407341466       25.95187105980787       38.04190680801922
H           53.89842617010709       26.32904397734913       39.04745123089336
H           52.77871008062729       25.37913158666363       38.06811650170267
H           53.56454374147164       26.79982350970851       37.37612817693765
C           55.70797213171511       26.46802825669542       35.58908573095005
H           55.32070911384471       27.35681084907008       36.08351001382604
H           55.09886915854835       26.27791238922985       34.70210176403694
H           56.72353797322734       26.67807510520926       35.26032863974155
O           58.48230588102506       22.28230978023947       38.97088416545978
H           59.33362180116126       22.45041416771333       38.49680903579947
H           58.73822510759350       22.05699827669394       39.90121042179474
C           52.21917839444704       20.25297501037215       34.39866036258216