87
 energy: -128.468048656876 gnorm: 0.000058463135 xtb: 6.7.1 (edcfbbe)
Fe         147.40287069311017      -13.48178662521862      -13.48044230397938
N          147.09104397030711      -15.39790361277788      -12.98445942783627
N          149.22654748955046      -13.56119489447200      -12.65373532940042
N          147.69865820391226      -11.55718989333609      -13.96448934123731
N          145.58500942733991      -13.41143156875569      -14.32498153555081
C          145.99348863887914      -16.14732917096804      -13.26073241075231
C          146.13523894038693      -17.48189793433691      -12.71995055599782
C          147.34747370715732      -17.51719208004237      -12.10521641913296
C          147.93194880574998      -16.20581740596225      -12.28648260255140
C          149.79076382604646      -14.62325298143424      -12.01966969746946
C          151.12089555701201      -14.30376448883558      -11.56724789313525
C          151.35518213822644      -13.00848684393099      -11.94658359380571
C          150.15158505037118      -12.56926372157147      -12.62821057354096
C          148.82058530835616      -10.82334477202704      -13.73269288070796
C          148.66026145648397       -9.47537600571127      -14.21392589503186
C          147.40141921768037       -9.40648114304616      -14.75149231956625
C          146.82068725359798      -10.72393954704092      -14.57575068510601
C          145.00027660213223      -12.33579274581631      -14.91351331360968
C          143.69218409790238      -12.68090331316599      -15.42528400165492
C          143.50305889164324      -13.99555968799880      -15.13189118905180
C          144.69602986417325      -14.43224098700775      -14.44070127719551
C          144.87642334486196      -15.71289664371044      -13.95112885856433
H          144.08015527353666      -16.42464151322630      -14.11047330409060
C          149.18629009237247      -15.85488056549642      -11.82720918708281
H          149.74298316505664      -16.60394912047601      -11.28419738263490
C          149.97206607165350      -11.29146197088784      -13.12217622220945
H          150.79194821699568      -10.59721690525191      -13.01466633567849
C          145.56226182300037      -11.07783594591413      -15.02867461853894
H          144.97590979214539      -10.31721475034333      -15.52217534625897
C          148.00725828855289      -18.64095266963272      -11.38099566803143
H          147.36388211113189      -19.51729402983262      -11.35679482827751
H          148.23552837930634      -18.35425786447747      -10.35414007099431
H          148.94231685136873      -18.91669279973462      -11.86985535398505
C          145.10942544356371      -18.55621538729359      -12.84853589830105
H          144.90875912871445      -18.77039988149727      -13.89855890430135
H          144.17192329194984      -18.25184082656009      -12.38168222202102
H          145.44670760278245      -19.47311610396569      -12.37109493813040
C          152.05108589376690      -15.25250515120812      -10.89410397862197
H          151.95113855104307      -16.25338918084497      -11.31178201164751
H          151.84144557096852      -15.31137548158591       -9.82459208752620
H          153.07986929621467      -14.92239845723653      -11.02433166105837
C          152.53973318380181      -12.20063467917334      -11.76223319629212
H          152.75029441380539      -11.49181803143212      -12.55520735839105
C          153.36005962808252      -12.25687735445734      -10.71748382549345
H          153.17603274220284      -12.90522956674732       -9.87868068933233
H          154.23568445755294      -11.63194195767294      -10.65394137970502
C          149.66278502180026       -8.38400664679006      -14.06473056450487
H          150.41701701347787       -8.43623011197553      -14.85205911790924
H          150.17292321141994       -8.45707883155268      -13.10525691006401
H          149.17133878832979       -7.41485364715562      -14.12440595857070
C          146.72450231089994       -8.28157271528945      -15.35638871850069
H          145.65150692598650       -8.24552260048652      -15.20512952179469
C          147.30386149518424       -7.32202701299017      -16.07152130815596
H          148.35641834976735       -7.32969879533985      -16.29492527112209
H          146.73561841112479       -6.50316321465980      -16.48124203124742
C          142.78364489376159      -11.72934541776285      -16.12669287747854
H          143.25997312216148      -11.33207551457924      -17.02362494590793
H          142.53418003446191      -10.88910731093032      -15.47803420523836
H          141.85901954586123      -12.22089809435886      -16.41990501601222
C          142.33309744516549      -14.87087151248265      -15.42888214140823
H          141.56734283888946      -14.32282908178491      -15.97268565772205
H          141.89197861962643      -15.25089334826500      -14.50668160525914
H          142.63786654441307      -15.72561296450060      -16.03327738848520
C          146.36948776262412      -11.02011259787779       -8.56675497529373
H          146.39006721524586      -11.63373125429557       -7.66602880477080
H          145.50828207047869      -10.35452216754222       -8.50601563776962
H          147.27237071707282      -10.41834141672192       -8.59871448280205
N          145.26626121125850      -12.74563308435224      -10.00875550956848
H          144.48078971825683      -12.90076500315065       -9.39846508844982
C          146.29584293086774      -11.86922458576580       -9.78276946713914
C          145.50074992597877      -13.35489440713031      -11.19321134444831
H          144.85816373976311      -14.09315290461939      -11.62658854488232
N          146.61342508832729      -12.91852273494593      -11.72939989367705
C          147.11968561236583      -11.99422720509355      -10.86422305725375
H          148.03663241348906      -11.48457168786546      -11.07583098346413
C          150.24931491516122      -16.04517240954745      -17.55578257349771
H          151.02512069461724      -15.48123413305234      -18.07375840996587
H          149.68101121707335      -16.60458484401101      -18.29906970967762
H          150.72393468913370      -16.74878064752695      -16.87900223112565
N          148.63766648714849      -14.13604798617318      -17.37981374057199
H          148.63164460342611      -13.91700578873251      -18.36240019693687
C          149.36162292976698      -15.13711329529317      -16.78588409114001
C          147.94196689948868      -13.50282596640102      -16.40827469384841
H          147.28716268853469      -12.67398544122182      -16.58202879855921
N          148.18088815978632      -14.04106491110766      -15.23807592954520
C          149.06170608779939      -15.05866186935754      -15.45630578029879
H          149.41773589552591      -15.66185057515685      -14.64723424243233
