78
 energy: -115.927231180406 gnorm: 0.343802507021 xtb: 6.7.1 (edcfbbe)
Fe          27.83200000000000       90.99500000000000       51.96200000000000
N           28.88200000000000       92.67499999999998       51.33499999999999
N           28.96400000000000       90.99500000000000       53.73099999999999
N           26.75900000000000       89.42100000000001       52.63499999999999
N           26.57600000000000       91.16500000000001       50.31500000000000
C           28.41900000000000       93.48999999999998       50.35600000000000
C           29.11499999999999       94.67899999999999       50.38800000000000
C           30.09600000000000       94.55099999999999       51.38499999999999
C           29.69000000000000       93.44499999999999       52.10499999999999
C           29.94100000000000       91.83400000000000       54.03600000000000
C           30.51500000000000       91.49200000000000       55.27100000000000
C           29.97800000000000       90.25700000000001       55.58400000000000
C           28.98400000000000       90.02000000000000       54.61600000000000
C           26.99700000000000       88.71200000000000       53.74900000000000
C           26.06800000000000       87.68300000000001       53.91500000000000
C           25.21400000000000       87.78399999999999       52.80300000000000
C           25.75400000000000       88.77400000000000       51.99800000000000
C           25.64800000000000       90.26800000000000       49.95900000000000
C           25.26000000000000       90.42600000000000       48.63800000000000
C           25.97200000000000       91.53200000000000       48.18200000000000
C           26.72200000000000       91.98599999999999       49.27000000000000
C           27.66100000000000       93.03700000000001       49.22800000000000
H           27.82100000000000       93.53800000000000       48.27300000000000
C           30.26900000000000       93.00200000000000       53.30200000000000
H           31.06100000000000       93.62600000000000       53.71500000000000
C           28.11300000000000       88.92500000000000       54.60300000000000
H           28.31400000000000       88.14300000000000       55.33400000000000
C           25.21600000000000       89.25200000000000       50.79600000000000
H           24.31200000000000       88.74299999999999       50.46600000000000
C           31.12700000000000       95.61499999999999       51.75600000000000
H           30.71300000000000       96.27100000000000       52.55100000000000
H           31.36400000000000       96.23399999999999       50.86499999999999
H           32.05000000000000       95.12700000000000       52.13600000000000
C           29.06400000000000       95.70000000000000       49.24200000000000
H           28.02600000000000       95.76700000000000       48.85100000000000
H           29.73800000000000       95.37600000000000       48.42099999999999
H           29.37300000000000       96.69900000000000       49.61600000000000
C           31.77700000000000       92.17199999999998       55.80199999999999
H           31.65700000000000       93.27500000000001       55.74200000000000
H           32.65200000000000       91.87000000000000       55.18800000000000
H           31.94000000000000       91.88500000000001       56.86300000000000
C           30.28700000000000       89.34000000000000       56.59700000000000
H           29.52100000000000       88.59200000000000       56.83900000000000
C           31.48700000000000       89.24500000000000       57.37200000000000
H           32.31600000000000       89.94899999999998       57.20600000000000
H           31.59400000000000       88.46700000000000       58.14200000000000
C           25.86900000000000       86.84499999999998       55.19100000000000
H           26.12800000000000       87.45699999999999       56.08100000000000
H           26.53100000000000       85.95399999999999       55.16200000000000
H           24.80700000000000       86.52700000000000       55.26899999999999
C           24.02500000000000       87.08400000000000       52.51900000000000
H           23.24400000000000       87.63500000000001       51.97799999999999
C           23.68700000000000       85.72099999999999       52.84600000000000
H           24.40100000000000       85.08300000000000       53.38699999999999
H           22.71100000000000       85.30300000000000       52.55799999999999
C           24.24500000000000       89.62700000000000       47.83200000000000
H           23.24100000000000       90.09000000000000       47.93699999999999
H           24.20200000000000       88.58400000000000       48.21200000000000
H           24.53300000000000       89.62900000000000       46.75899999999999
C           25.84800000000000       92.10799999999999       46.75500000000000
H           24.78400000000000       92.08399999999999       46.43700000000000
H           26.44900000000000       91.49500000000000       46.04900000000000
H           26.20400000000000       93.16000000000000       46.74299999999999
O           26.55900000000000       92.31699999999999       52.74399999999999
H           25.91300000000000       92.49700000000000       52.06100000000000
H           26.57700000000000       92.67399999999999       53.55799999999999
C           30.30800000000000       87.15100000000000       48.61300000000000
H           30.51599999999999       86.18300000000001       49.11600000000000
H           31.20100000000000       87.44900000000000       48.02200000000000
H           29.43200000000000       87.02700000000000       47.94100000000000
N           30.87700000000000       88.58900000000000       50.63600000000000
H           31.79800000000000       88.22299999999998       50.77099999999999
C           30.01100000000000       88.19799999999998       49.64500000000000
C           30.28600000000000       89.51700000000000       51.36400000000000
H           30.74500000000000       90.00600000000000       52.22300000000000
N           29.07200000000000       89.74200000000000       50.88000000000000
C           28.87200000000000       88.91799999999999       49.80500000000000
H           27.94000000000000       88.92000000000000       49.25399999999999
78
 energy: -116.010114718765 gnorm: 0.139854533290 xtb: 6.7.1 (edcfbbe)
Fe          27.83501068226257       90.97683356793128       51.94801512370706
N           28.82022897126079       92.67528839252080       51.36901599768502
N           28.95092372514646       91.00379334076472       53.70181464052005
N           26.78283605351557       89.41573063124079       52.62268310225374
N           26.58741642308525       91.16175010979839       50.32376565693455
C           28.43994383789136       93.46469364392254       50.32612770955271
C           29.15681057752095       94.68065676422690       50.34861261287057
C           30.07498640646113       94.59183786236021       51.38555889410849
C           29.72149605120405       93.41173296321838       52.09033404299873
C           29.92749958517547       91.86640204035815       54.03411350096561
C           30.55662202644561       91.47589983422715       55.25296094915309
C           29.99882288078391       90.25301487639118       55.59255485691178
C           28.97053500475394       90.01538201504005       54.61209527950730
C           27.01753870102947       88.70846062349268       53.75203410031754
C           26.05410715709915       87.67746315059651       53.92627461324531
C           25.20798316538390       87.75851009829896       52.82024908417424
C           25.72690826241586       88.81182955132344       52.01379512994644
C           25.65341889232010       90.25322176124412       49.96574339434959
C           25.24785565495784       90.43957587527235       48.62066609612141
C           25.95872336047915       91.53131821681011       48.16191109615190
C           26.76086708154194       91.97247340188949       49.25456774604925
C           27.66260378801181       93.03379217294433       49.22916556412498
H           27.80056717752133       93.55171550245834       48.28760900216547
C           30.27799392481900       93.00141542996671       53.29630367718966
H           31.05719680093121       93.62755984774832       53.71242006717073
C           28.10779444009554       88.92359995799187       54.60707403815814
H           28.29877130623174       88.14934401780800       55.33931052048109
C           25.19845644796678       89.24485519244830       50.80225529617212
H           24.31571813020350       88.72172297547716       50.45605621261529
C           31.11418975665630       95.61593244233940       51.75826011929520
H           30.72242025057768       96.27014031131677       52.54642847766255
H           31.36164323733304       96.22503585487111       50.88211554864295
H           32.03019746738552       95.13504504349740       52.12735805298271
C           29.06947432255832       95.70503180241771       49.24643603740002
H           28.04446084846261       95.76780583641262       48.86026934329713
H           29.73173458881844       95.39154843227846       48.43004807118153
H           29.37192148997894       96.69234170378694       49.60785123421510
C           31.77163793347305       92.17026897484290       55.80631767359318
H           31.65904343686978       93.25957708076132       55.74582507397763
H           32.64253940479450       91.87643642394823       55.20519322026880
H           31.93832762154599       91.89389269113133       56.85130092254133
C           30.31218201709379       89.33733925763433       56.63417563402928
H           29.54538705244936       88.59298327866590       56.84988366012603
C           31.46214328485886       89.24864133627965       57.36050654733486
H           32.29446292179255       89.92630659466192       57.20244158066751
H           31.58255480590234       88.48262034509030       58.12016699614612
C           25.87042948990626       86.85086723905857       55.17855944403554
H           26.12545136470475       87.44734584547410       56.06394580501808
H           26.51862237183618       85.96503032225392       55.16096685132165
H           24.82549955224399       86.52948343651592       55.26294658268682
C           24.00815983760364       87.04178004377955       52.52829331508775
H           23.24964454844025       87.60729524046975       51.98140697290366
C           23.69501409569006       85.75264736249913       52.84583147202076
H           24.39258550699486       85.10656436282957       53.37008350794921
H           22.73597151412299       85.32585554165254       52.56420978078502
C           24.24928239923595       89.63313333695265       47.83654091554745
H           23.25173928142005       90.08183074084025       47.93365047533023
H           24.20279079680039       88.60050496641254       48.20311566905342
H           24.52621688516554       89.62649081475469       46.77625152136181
C           25.84774132591549       92.10794876773915       46.76698686723056
H           24.80067417969487       92.08735083452883       46.44207344171726
H           26.43974827019666       91.50839653605560       46.06202193736639
H           26.20226821311500       93.14374689902755       46.74188844496940
O           26.54496857563161       92.30671614941099       52.74430853770721
H           25.89551554523958       92.51427047531477       52.07125373388126
H           26.56028817745551       92.70170725951945       53.59487823468855
C           30.31344238423711       87.14850321852367       48.61505605704913
H           30.51743216210383       86.18820965395724       49.10398270228473
H           31.19055472922777       87.43835524582714       48.02326065896212
H           29.45036389380537       87.03001352619250       47.95187042577672
N           30.88142576018080       88.57713763389773       50.62206528077648
H           31.80653041989533       88.21177995813788       50.76065363520172
C           30.01141943667040       88.18939912908591       49.63701048170661
C           30.28011538542203       89.51683137668478       51.35951802979694
H           30.73446714082942       90.00255584857402       52.20817221046602
N           29.06911851381030       89.74440772157041       50.89861120866668
C           28.87930350079814       88.92646689354792       49.81996551546500
H           27.95425778453928       88.92755239120355       49.26995408422184
78
 energy: -116.034639101954 gnorm: 0.047949848377 xtb: 6.7.1 (edcfbbe)
Fe          27.83379126720420       90.99990728985874       51.94025590364110
N           28.78960908242195       92.67188487271689       51.38012548323547
N           28.95876440920970       90.97565518636516       53.66032761482158
N           26.80459049002388       89.42038262000020       52.60777410517178
N           26.61852447063563       91.13432832653690       50.31811147094277
C           28.46587568383106       93.43301053909229       50.29604312259471
C           29.19966386360844       94.66693626399281       50.31053326947129
C           30.05298512606925       94.61110661184847       51.38029909351451
C           29.73348539140653       93.38370094212215       52.07456359667430
C           29.92208267895519       91.86912237187099       54.01629206232491
C           30.58705070754317       91.44959678520243       55.22404667392308
C           30.01649346959979       90.24455731697577       55.58356422062732
C           28.97076774502667       89.99658742448308       54.59852610493577
C           27.03996730537861       88.70864268239654       53.74477936078272
C           26.04253073686762       87.68335701204056       53.92786359797809
C           25.20483030902698       87.75923031759913       52.83799038674019
C           25.71003338968320       88.85061058258084       52.02596225639461
C           25.66439030351553       90.23336053905831       49.96962523106617
C           25.24050734271038       90.44975062110970       48.61150620234286
C           25.95145498952893       91.52412105579211       48.15089314593034
C           26.80407235969843       91.94516899160168       49.23958928154472
C           27.66705095004538       93.02514051989226       49.22984246759722
H           27.75959387103364       93.58257900873110       48.30621528173229
C           30.27626421944807       92.99610467077949       53.28558649535733
H           31.04792973582490       93.62735680120421       53.70264184073404
C           28.10583409294107       88.91685984966524       54.60880776175536
H           28.26906814227139       88.16075144463078       55.36285528595679
C           25.18518554869267       89.23428418537587       50.80439410215251
H           24.32397469623250       88.69026314904173       50.44326483185138
C           31.09357090868770       95.61162755032376       51.76104209858938
H           30.72696325841127       96.27199215085041       52.54706461042162
H           31.35550728814982       96.21874323701577       50.89741662316221
H           32.00203460426452       95.13005932234485       52.12210639839131
C           29.08337735820737       95.70409645372953       49.24662847309197
H           28.06272767555777       95.76772874713377       48.87401961019209
H           29.73169774202564       95.42018248659669       48.41685041286426
H           29.37858408046833       96.68454017069291       49.60620172387620
C           31.76163883424204       92.16425647830930       55.80423506005690
H           31.64762935454341       93.24495863886906       55.74390307739920
H           32.64854993108322       91.88799305505761       55.22909185821084
H           31.92369122043802       91.89992583489374       56.84315303681935
C           30.33026683365616       89.33255712054181       56.65302767582452
H           29.55418389795348       88.60304087153098       56.86038878510186
C           31.44651913421059       89.25258806900271       57.35272425414907
H           32.28527301546330       89.90788663032079       57.20011117783410
H           31.57449725509098       88.49910713901414       58.11210350996380
C           25.87434390209652       86.85814629397532       55.16045273966719
H           26.12772380209819       87.44212835689838       56.04505139516609
H           26.51280010516709       85.97375793408767       55.15033813212749
H           24.84045712991635       86.53129466334468       55.25207711760869
C           23.99777539322607       87.02324205993405       52.53611871850492
H           23.25727368134083       87.59549739813077       51.98181977087813
C           23.70861468398061       85.77692239907947       52.84562598755896
H           24.39305130672149       85.12548015532434       53.36249189451486
H           22.75953201831372       85.33990677382695       52.57521029761295
C           24.25044607002929       89.64100273834796       47.84299233782642
H           23.25348913258353       90.07526412336206       47.93218079283512
H           24.20754551931034       88.61547448066851       48.20253342127656
H           24.51986904462501       89.62494732890106       46.78923766686756
C           25.84984957716363       92.10741743236322       46.78127493145229
H           24.81373592716156       92.09238391975404       46.44681763675123
H           26.43673750299006       91.51927748698859       46.07324888177122
H           26.20629911916925       93.13269104723383       46.74919291841226
O           26.48643655968972       92.28361602624592       52.78581482684372
H           25.86054696718845       92.56779294275623       52.11085847947493
H           26.52527646244323       92.74790045751685       53.62360737781505
C           30.31477737961702       87.15016218612868       48.61907391998597
H           30.52028583258062       86.19332578997691       49.09670510536282
H           31.18356127129844       87.43161300417303       48.02612129111095
H           29.46261910149862       87.03153510710975       47.95838016950285
N           30.88611576729242       88.56921939677135       50.61185736420528
H           31.81363696707993       88.20269751104361       50.74896662561098
C           30.00610790588231       88.18776129164151       49.63565498884290
C           30.28128196014535       89.51545586924706       51.36187748526105
H           30.73681401946548       89.99740355354120       52.20058824054471
N           29.06906092234006       89.75345667188982       50.92747310604423
C           28.88215459524679       88.93867800810769       49.84618924139436
H           27.96369560144961       88.93990565283605       49.29481849942414
78
 energy: -116.043113036425 gnorm: 0.049093407643 xtb: 6.7.1 (edcfbbe)
Fe          27.82765544798875       91.00475321172635       51.94260059575944
N           28.77063017897127       92.66825216673148       51.38028117924939
N           28.96169053366386       90.96708390847908       53.63698170114519
N           26.80612710303590       89.42338311773882       52.60054761591002
N           26.65187345990592       91.10115890135039       50.30579812244456
C           28.48331503419061       93.41057936059973       50.27175011372763
C           29.23140458738987       94.64616136625681       50.27667022702914
C           30.04396880214527       94.60727458126706       51.37065434805247
C           29.72662589167227       93.37085014882823       52.06292487529291
C           29.93004097855145       91.85910010521901       53.99185208616014
C           30.60550643808300       91.42995883176552       55.19411195046305
C           30.02601882417313       90.23737247311055       55.56278848515559
C           28.97470562984718       89.98908328284398       54.58021093765056
C           27.04274207573811       88.71377636428535       53.73910666451248
C           26.03382014065020       87.69274000937573       53.92555500089973
C           25.19535198148244       87.77613165059110       52.84733389037037
C           25.70418655231437       88.86678534406931       52.02800357836412
C           25.68069586614571       90.21309407289817       49.96562282782733
C           25.24182464835065       90.44786015992312       48.60835480069789
C           25.95538054135350       91.51328742824357       48.14713489892758
C           26.83035525761039       91.91840992945222       49.22976136566956
C           27.66785923246072       93.01582619571089       49.22287060759422
H           27.70595139594127       93.61686904345542       48.31750203227192
C           30.27617265834102       92.99037409500002       53.26975890625373
H           31.04304869509948       93.62714420154700       53.68615659886664
C           28.09890947934790       88.91901760797778       54.60878894827563
H           28.23077243099498       88.18341961649112       55.39200470305716
C           25.18496921163894       89.22146727826167       50.79795359144811
H           24.33816534681351       88.66002680185819       50.42806122953631
C           31.07684200798568       95.60568682801427       51.76761661989644
H           30.71716185881160       96.26725630070237       52.55567292434149
H           31.34923306273197       96.21679115393748       50.91058275587304
H           31.97796704184963       95.11434788195579       52.12793452673394
C           29.10351958199027       95.70353736369964       49.23565502707969
H           28.07742981206253       95.77212617843217       48.88248208402079
H           29.74058717680894       95.45506666755071       48.38429459569790
H           29.39701787067982       96.67727675156466       49.61473425282292
C           31.75556790365877       92.15988083081895       55.80104724127455
H           31.62450512305382       93.23732001959313       55.73550317224369
H           32.66859760742789       91.90013682033002       55.25735208166375
H           31.89233718742464       91.90274932388398       56.84539001890908
C           30.32989789695002       89.33126733089826       56.64903364510931
H           29.54513756153526       88.61677991479635       56.86732173861380
C           31.45279368561641       89.24988237681967       57.35086015120705
H           32.30208621784225       89.88667403758986       57.18747844056558
H           31.57201477346771       88.51108818532757       58.12486410954188
C           25.87922053396593       86.85857015695854       55.14800065815136
H           26.13490830747971       87.43719142096239       56.03388786277991
H           26.51872641485071       85.97653824415477       55.12774437318724
H           24.84791740191589       86.52714455358770       55.24033408622957
C           23.98793257522665       87.03523020867166       52.54043151678416
H           23.25226222973991       87.60080383288624       51.97868677202465
C           23.71362114790741       85.77819105151821       52.85920356147393
H           24.40662807497015       85.13287793119730       53.36835185999991
H           22.77280541268702       85.32832365747812       52.58660751923067
C           24.24460036202374       89.64505961393029       47.84810700949926
H           23.24648486836774       90.07429552892309       47.93793200132874
H           24.20731980234611       88.62111407040484       48.20797179827142
H           24.50899522161810       89.62581459186252       46.79379137866417
C           25.85541168243047       92.11122453655412       46.78798861874475
H           24.82114119368103       92.10369337249287       46.44995798269917
H           26.44201078744755       91.52996888400965       46.07519777115788
H           26.21716270340530       93.13374674962803       46.76500827974564
O           26.39353752440337       92.22035875853233       52.85680668858058
H           25.84355070184675       92.64767541591131       52.15325267195755
H           26.51350818829371       92.80595155998596       53.64173274939011
C           30.31049288343480       87.15399750848741       48.62228897679242
H           30.51945778439235       86.19638734930044       49.09582970213329
H           31.17853986888189       87.43344294239365       48.02832506120223
H           29.46137836520831       87.03414189885528       47.96001081573715
N           30.89607420914977       88.56471698312411       50.60731829111137
H           31.82309147489117       88.19303405488368       50.73637911059833
C           30.00286905459306       88.19044781261809       49.63986833468536
C           30.30046755973530       89.51382017991654       51.36643714919829
H           30.76384470852708       89.99247181397948       52.20062882875638
N           29.08597157585270       89.76317945712238       50.94720839186778
C           28.88657920547911       88.94889443393636       49.86878396147173
H           27.96602338144827       88.95358220475994       49.32396094833688
78
 energy: -116.047702960453 gnorm: 0.029167244711 xtb: 6.7.1 (edcfbbe)
Fe          27.82175408863383       91.00674105366288       51.94556777131344
N           28.75225985215565       92.67090763847354       51.37525159845458
N           28.96437783483120       90.96027092353013       53.61775561235154
N           26.80595182158570       89.42439539774361       52.59249663052769
N           26.67881089725335       91.07313201753938       50.29557945034200
C           28.49234797893911       93.39746088173064       50.25076063918790
C           29.25823894093635       94.62652627796294       50.24441332245253
C           30.03886233654578       94.59702463220621       51.35778704649663
C           29.71037465693690       93.36666434522212       52.05313344979322
C           29.94332042155808       91.84245400503403       53.96395488238232
C           30.62290020114980       91.41032201352137       55.16145730856480
C           30.03671443443722       90.22727737912311       55.53657265550440
C           28.97952001800572       89.98370750883261       54.56183103682777
C           27.03831974630784       88.72259913635985       53.73484218103086
C           26.02621405026693       87.70448478134436       53.92314612386861
C           25.18518151029595       87.79522349864013       52.85170823129006
C           25.70358202068345       88.87543868400910       52.02552137145749
C           25.69877007118445       90.19359426646055       49.95901360002098
C           25.24694653918359       90.44145991284765       48.60687065577418
C           25.96114462452022       91.50374855587522       48.14697852212374
C           26.84361893771184       91.89821179645433       49.22482761935293
C           27.65981349763918       93.01255907374261       49.21674997284689
H           27.65628635266523       93.63890606980574       48.32819352147884
C           30.27520033450566       92.98448144901640       53.25187272794026
H           31.04193670276389       93.62360251826460       53.66409149571145
C           28.08741003919724       88.92682138609182       54.61143263399421
H           28.19030123620949       88.21142826476489       55.41953108253462
C           25.19192243667264       89.20668356123063       50.78669076009164
H           24.35500684567906       88.63302560835709       50.41416907563967
C           31.06414152955481       95.59601330173078       51.77505001240041
H           30.69935536355041       96.25129430171440       52.56726930823638
H           31.34474020424579       96.21637633244977       50.92576554123964
H           31.95911701730499       95.09505897937420       52.13849394012990
C           29.12838955544776       95.70137337522674       49.21933413799513
H           28.09546409268027       95.78173097269035       48.88510763644545
H           29.75298621529592       95.48472731712029       48.34747623341826
H           29.42818227822846       96.66545408914078       49.62505902981840
C           31.74947403223770       92.15573677412752       55.79640631375760
H           31.59752249814284       93.23126282987428       55.72200854449682
H           32.69168118199258       91.91193219961528       55.29040188411577
H           31.84895027261609       91.90255878553131       56.84928262450121
C           30.32906956592281       89.33116879749751       56.63634884639182
H           29.53392950557027       88.63709023889670       56.87982202349949
C           31.45828911650930       89.24768912590407       57.34305119270767
H           32.32077421637487       89.86295587469188       57.15854026809447
H           31.56076136087907       88.52647196810872       58.13809096204606
C           25.88406101780501       86.85723690364962       55.13814976547648
H           26.14258560427597       87.42913447646390       56.02816437365203
H           26.52991308044696       85.97946195038720       55.09958767285632
H           24.85399043521041       86.51879053375644       55.23049760727552
C           23.98158756223556       87.05148874505242       52.54147953391862
H           23.24051446481953       87.60534641699873       51.98014259842198
C           23.72301334473318       85.78376051976029       52.86790874422745
H           24.42644661815680       85.15532448051140       53.38310980334875
H           22.78528727327564       85.32416317893741       52.60096916530127
C           24.23697733070799       89.64621689607092       47.85366575569788
H           23.23914950564762       90.07608607184368       47.95112111819778
H           24.20276192398524       88.62171318085433       48.21461507440858
H           24.49301229154403       89.62739440422783       46.79581257400305
C           25.86374947354579       92.11738775932164       46.79302904464623
H           24.82937952158935       92.11752349279642       46.45235583831064
H           26.45276053925726       91.54372759617436       46.07456832508144
H           26.22980359295263       93.13997471273376       46.78585466220934
O           26.35385540462005       92.23845288550757       52.89246148699743
H           25.78475301637717       92.63984105224557       52.23416863503132
H           26.47407762608970       92.82652689709666       53.65729470583822
C           30.30206058551667       87.15857950131677       48.62681179644139