77
 energy: -118.901312527563 gnorm: 0.272311053772 xtb: 6.7.1 (edcfbbe)
Fe          28.18500000000000       31.41800000000000       10.17400000000000
N           26.42600000000000       32.35800000000000       10.46200000000000
N           29.03100000000000       32.62600000000000       11.58000000000000
N           29.99700000000000       30.46500000000000        9.90300000000000
N           27.36799999999999       30.23300000000000        8.76400000000000
C           25.24900000000000       32.06600000000000        9.79900000000000
C           24.21300000000000       32.96900000000000       10.29900000000000
C           24.78100000000000       33.76000000000000       11.20700000000000
C           26.18000000000000       33.39900000000000       11.31800000000000
C           28.37900000000000       33.57200000000000       12.36300000000000
C           29.34400000000000       34.16399999999999       13.28100000000000
C           30.50700000000000       33.52400000000000       13.09000000000000
C           30.32700000000000       32.53200000000000       12.06200000000000
C           31.16900000000000       30.73500000000000       10.59700000000000
C           32.22700000000000       29.90000000000000       10.08000000000000
C           31.68500000000000       29.14000000000000        9.10700000000000
C           30.27200000000000       29.46900000000000        8.99700000000000
C           28.05900000000000       29.27199999999999        8.03000000000000
C           27.18800000000000       28.68200000000000        7.03500000000000
C           25.87800000000000       29.37500000000000        7.23300000000000
C           26.06300000000000       30.32900000000000        8.30600000000000
C           25.04799999999999       31.11300000000000        8.82300000000000
H           24.03800000000000       30.97000000000000        8.44000000000000
C           27.07700000000000       33.96700000000000       12.19200000000000
H           26.72400000000000       34.80000000000000       12.79900000000000
C           31.31400000000000       31.68100000000000       11.58800000000000
H           32.30000000000000       31.76900000000000       12.04400000000000
C           29.36600000000000       28.90200000000000        8.14900000000000
H           29.71500000000000       28.08700000000000        7.51500000000000
C           24.12500000000000       34.89700000000000       12.03200000000000
H           23.05099999999999       34.98100000000000       11.75900000000000
H           24.63000000000000       35.86100000000000       11.81000000000000
H           24.20400000000000       34.66800000000000       13.11600000000000
C           22.74500000000000       32.94500000000000        9.83300000000000
H           22.41100000000000       31.89200000000000        9.71200000000000
H           22.65300000000000       33.46600000000000        8.85600000000000
H           22.10200000000000       33.44200000000000       10.59100000000000
C           29.00800000000000       35.30799999999999       14.26700000000000
H           28.00300000000000       35.13499999999999       14.70700000000000
H           29.00300000000000       36.27900000000000       13.72800000000000
H           29.76000000000000       35.33200000000000       15.08500000000000
C           31.86900000000000       33.69700000000000       13.80900000000000
H           32.48800000000000       32.83000000000000       14.08200000000000
C           32.29600000000000       34.92400000000000       14.10100000000000
H           31.69100000000000       35.80400000000000       13.83600000000000
H           33.25900000000000       35.07299999999999       14.61100000000000
C           33.70700000000000       29.89300000000000       10.56000000000000
H           33.82600000000000       29.15700000000000       11.38300000000000
H           33.98500000000000       30.90100000000000       10.93500000000000
H           34.37300000000000       29.60400000000000        9.71900000000000
C           32.43700000000000       28.09500000000000        8.27200000000000
H           33.31300000000000       27.58400000000000        8.69800000000000
C           32.07000000000000       27.77000000000000        7.02500000000000
H           31.31000000000000       28.36199999999999        6.49500000000000
H           32.52400000000000       26.90700000000000        6.51600000000000
C           27.53500000000000       27.59800000000000        5.98700000000000
H           27.87300000000000       26.67600000000000        6.50600000000000
H           28.35200000000000       27.96100000000000        5.32800000000000
H           26.63500000000000       27.36100000000000        5.38000000000000
C           24.60200000000000       29.09000000000000        6.42800000000000
H           24.01500000000000       28.29400000000000        6.93300000000000
H           24.87200000000000       28.74600000000000        5.40700000000000
H           23.98300000000000       30.01100000000000        6.36700000000000
O           29.50800000000000       33.09900000000000        8.91400000000000
O           28.37800000000000       32.69200000000000        8.77100000000000
C           27.49600000000000       26.69400000000000       13.22200000000000
H           26.51600000000000       26.20300000000000       13.03900000000000
H           27.69400000000000       26.70600000000000       14.31500000000000
H           28.29000000000000       26.12000000000000       12.69900000000000
N           26.55100000000000       29.02900000000000       13.17200000000000
H           25.88800000000000       28.86400000000000       13.90200000000000
C           27.45800000000000       28.09400000000000       12.70000000000000
C           26.71300000000000       30.15800000000000       12.49900000000000
H           26.14500000000000       31.07000000000000       12.68000000000000
N           27.66400000000000       29.97900000000000       11.59400000000000
C           28.11900000000000       28.68700000000000       11.67300000000000
H           28.87100000000000       28.31000000000000       10.99100000000000
77
 energy: -118.964346537645 gnorm: 0.122059733298 xtb: 6.7.1 (edcfbbe)
Fe          28.17557067348063       31.43596082489556       10.14241810513349
N           26.41205345398208       32.34779033601630       10.46587595096534
N           29.02518631565190       32.60302392339791       11.60834541000181
N           30.00490578992911       30.46264243238039        9.90317360725182
N           27.36364541261984       30.22430411306772        8.76005594351180
C           25.24612748427497       32.06616154549250        9.80540930091122
C           24.20026004963466       32.96163939676367       10.29535387933633
C           24.77326788444446       33.77294206787082       11.21288265784770
C           26.16916964954066       33.38840935670895       11.31645065824110
C           28.40176567592022       33.58038552124793       12.34868680055986
C           29.34771713835108       34.16728606204162       13.28857308926449
C           30.52692284821528       33.51430294941097       13.10553236572396
C           30.32042462264837       32.53379650508440       12.05965352710768
C           31.16779724549265       30.73469550301931       10.58238079596965
C           32.23817414612497       29.89668260497863       10.08027064942018
C           31.70088951676597       29.12663433525357        9.09198030167597
C           30.28701028962929       29.47762577842315        8.99860845883788
C           28.02864908951867       29.27606593323222        8.02117045613915
C           27.14425930449344       28.69640649107927        7.03680468168032
C           25.90065572751780       29.34897734038754        7.21809924831993
C           26.07490732440568       30.29097034740834        8.30136001529020
C           25.06626370223463       31.10315002220892        8.82449160326523
H           24.06202393824139       30.97599229403569        8.43347061621463
C           27.08176055716284       33.96463524147804       12.18602178950959
H           26.72649859786002       34.78937879322238       12.79543516024119
C           31.30504783083896       31.68200557634993       11.58262426396869
H           32.28622618861485       31.77021870304147       12.03843313077024
C           29.35709094151622       28.90486600555164        8.15152742302484
H           29.69841753496604       28.09002969475500        7.52572771340561
C           24.13134195292552       34.88506948449449       12.02232648857122
H           23.07204565659683       34.97984767862708       11.76272914050446
H           24.62408726946737       35.84099227223808       11.81426204608049
H           24.20715029047680       34.67251135012896       13.09549313888360
C           22.75959032489942       32.93982929154725        9.83580318093676
H           22.41521057224193       31.90731214483317        9.71390951717660
H           22.65670096480387       33.45654027570451        8.87417789849837
H           22.11619440508990       33.43316291443396       10.57247914623159
C           29.01044325328712       35.28783742972345       14.25567938873539
H           28.01860752601156       35.13398272858966       14.69616887224706
H           29.00581854698705       36.25431160267665       13.73570240786760
H           29.74739239649965       35.32709023168141       15.06555137858189
C           31.84177908432672       33.71026953284881       13.80283899447643
H           32.44688933517283       32.83989441995361       14.05946553199370
C           32.28760739487292       34.92364273989092       14.10209201280039
H           31.71179561154699       35.80198654118011       13.83881640295082
H           33.24124478271310       35.07264070134222       14.60136840836498
C           33.68350230336578       29.89484466661879       10.55546414512143
H           33.81669540116638       29.17028209725522       11.36922991213383
H           33.97620482730654       30.88344339964999       10.92320199928157
H           34.35194829692817       29.61318503822147        9.73460279865246
C           32.41462447301048       28.10446804224929        8.27412198192246
H           33.27302423664177       27.59887492868333        8.71932958948424
C           32.07074865756613       27.77591826286595        7.03038563641302
H           31.32367761128043       28.34355693131512        6.49046624650320
H           32.53467471470643       26.93838379360472        6.51677265953525
C           27.51695247946566       27.62775611771016        6.01645959181340
H           27.86079967895617       26.70534815365721        6.50603727486111
H           28.32595107732116       27.96564928624123        5.35314112372459
H           26.65099196292236       27.37240172371736        5.39655648525375
C           24.62768125184319       29.09211777863311        6.44032491136064
H           24.03005319052243       28.30817564163248        6.92604740197920
H           24.86733433416073       28.75548643833136        5.42627757960172
H           24.00642849192243       29.99358027800041        6.36980491956760
O           29.57069316287263       33.15410071022804        8.87464596657647
O           28.40966786864880       32.67391736134152        8.80897177566488
C           27.49078541374029       26.69280135532185       13.22224739239628
H           26.52862646452055       26.19780471874715       13.04610645268670
H           27.69158041456706       26.69685794532451       14.30022132866836
H           28.27633180111450       26.12949210739089       12.71097013889550
N           26.55631186830854       29.01610798725237       13.18102671849932
H           25.88888771339625       28.85423430651499       13.91445633311027
C           27.44276367489648       28.08255974798475       12.69565264615606
C           26.72735716296859       30.15362956117929       12.49471292281082
H           26.16385937092508       31.05576970773628       12.67179664511063
N           27.67055370210716       29.99365009798019       11.59026286617296
C           28.11274734040492       28.70187697413368       11.68293495262215
H           28.86295275044649       28.32582380177897       11.01008804492887
77
 energy: -118.985400429532 gnorm: 0.046947796364 xtb: 6.7.1 (edcfbbe)
Fe          28.19148710605893       31.46625611236427       10.11075077775965
N           26.40907854805981       32.34000060419547       10.46268342423054
N           29.02656069912794       32.59710767985630       11.62745991681815
N           30.01656549191376       30.46373455882599        9.89470670863457
N           27.36433490314369       30.22594848009513        8.75564155074042
C           25.24882936815425       32.06304411003566        9.81274984855018
C           24.19695222957094       32.94985026419766       10.29231978759360
C           24.77231327485881       33.77426940222252       11.21671384926677
C           26.16549148714821       33.37556732542883       11.31277837445498
C           28.41615481248905       33.57838414055040       12.34138903702996
C           29.34856718957503       34.17290952679343       13.28348590423417
C           30.53980619628564       33.51058447153092       13.11107473011655
C           30.31058145030612       32.52695938908501       12.06344787466917
C           31.16489462949096       30.73472699498451       10.56768475677359
C           32.24153153253571       29.89579212135480       10.07690313743010
C           31.70648990345558       29.11773047740969        9.07764855818835
C           30.29566121042493       29.48928662580121        8.99369802347177
C           28.01033588181783       29.28387981450292        8.01911132961145
C           27.10896627507734       28.70913390183632        7.04254911874621
C           25.91904232920033       29.32489161085050        7.21234159696567
C           26.08556087021286       30.26812082801136        8.30160955394724
C           25.08679332417061       31.09491496503975        8.82809407775220
H           24.08945031436539       30.98416231919634        8.42301821088056
C           27.08473738085784       33.95335867252673       12.18336187549436
H           26.72922026070695       34.77599594902053       12.78879367711962
C           31.29443812177831       31.67624719799236       11.58203233032379
H           32.27359327830869       31.77074424275557       12.03176090504080
C           29.34725994783333       28.91074822698996        8.15627005849056
H           29.67820349858493       28.09259010153958        7.53780779523559
C           24.14071093076972       34.86873525151869       12.00992422186494
H           23.08926708540630       34.97259263422442       11.75932527142733
H           24.62734625535226       35.82135770248393       11.81200220585949
H           24.21571117827202       34.66977791795130       13.07852425639760
C           22.77694287637869       32.93334460154254        9.83774659049973
H           22.42260759996684       31.91365636485467        9.71334870224390
H           22.66752842391646       33.44819699943337        8.88433732147123
H           22.13337483962900       33.42790095854738       10.56089359064901
C           29.01384259881101       35.26728862813923       14.24111770241541
H           28.02923609378081       35.12164264756798       14.68107429874555
H           29.00865682931267       36.23230845179184       13.73348998755382
H           29.74424671333876       35.31336481439630       15.04513025577969
C           31.80712916740820       33.72141085251304       13.78970629361109
H           32.39847486661684       32.84428868835319       14.03197813465803
C           32.27654352296929       34.92377657409184       14.10083839310524
H           31.72948938640454       35.81013813941352       13.84118911811816
H           33.22247805968149       35.06552748493130       14.59614694997302
C           33.65743597325127       29.89723922140881       10.54896951811045
H           33.79813223038340       29.18037981556219       11.35988375154274
H           33.95804821490058       30.87535478356322       10.91247617949819
H           34.32874015142698       29.61835454031978        9.74054470446275
C           32.38741906912527       28.11730425002600        8.28158259279498
H           33.22604040989280       27.61331847778678        8.75328548168474
C           32.07454566142231       27.78497863456359        7.03249897443975
H           31.33174901001754       28.32597884759989        6.47791818578523
H           32.56024880222031       26.97311959058029        6.51621166384136
C           27.49553231349515       27.65648685904905        6.04376817489641
H           27.84454762988929       26.74257281638290        6.52892920137017
H           28.30156687854058       27.99289176614503        5.38825616767816
H           26.65007730320241       27.38961359496407        5.41479408223441
C           24.65109385725922       29.09182336374150        6.45186850443287
H           24.04708646921659       28.31806032950785        6.93036339050032
H           24.87142316383524       28.76028866926117        5.44029418563948
H           24.04064883456974       29.98932888620824        6.38249488384617
O           29.60820730648490       33.19275484552010        8.83929159203272
O           28.44242524112883       32.63284680246478        8.86582657656141
C           27.48717592857805       26.69088765653773       13.21972380997055
H           26.53667516407151       26.18857823778515       13.05257163351449
H           27.69045599284008       26.69367837661102       14.28866024085333
H           28.26905093735981       26.13531949470670       12.71607291624417
N           26.55853605800160       29.00709674611236       13.18822608854617
H           25.89106807803442       28.85015970778527       13.92630168134601
C           27.42852655203711       28.07447625855027       12.68953127977219
C           26.73702314058904       30.15032190157838       12.49369020499904
H           26.18046749116054       31.04677415645920       12.67146538898834
N           27.66593346744695       30.00196391635961       11.58319005384163
C           28.10546216795017       28.71431664275800       11.68961831444565
H           28.85916855813948       28.33748198335267       11.02903049218227
77
 energy: -118.989666823636 gnorm: 0.023256367695 xtb: 6.7.1 (edcfbbe)
Fe          28.20284546162632       31.48081950263445       10.09583867904892
N           26.41387634347504       32.33774164513895       10.45709667453627
N           29.02137997839550       32.58507860126840       11.63062079182772
N           30.01306083530386       30.47640243860698        9.88144930726772
N           27.36454279210789       30.23671808050285        8.75029721691461
C           25.25252485719212       32.05960546678021        9.81368335139580
C           24.20175765681670       32.93888989680488       10.29307443426214
C           24.77644428759767       33.76292898277770       11.21678880457023
C           26.16778213072337       33.36886078609490       11.30928850352356
C           28.41333330153019       33.57301803826103       12.33261206015323
C           29.34174199307278       34.16997846446855       13.26907395361316
C           30.53292435909767       33.51082337081089       13.09910985846088
C           30.30407275601509       32.51965734707421       12.06001139534321
C           31.15820843029497       30.74248463740780       10.55658599080603
C           32.22870777870479       29.90063294356895       10.06936438936881
C           31.69197028258466       29.12420468533763        9.07060736317828
C           30.28795937325405       29.50281961091451        8.98315568663365
C           28.00935368933007       29.29059518217117        8.02202789933869
C           27.10560958077405       28.70730201624187        7.05378990972711
C           25.90692369961931       29.32629404025244        7.22314379686395
C           26.08264396580525       30.27346628413024        8.30712945130189
C           25.09008687887137       31.09599473817381        8.82894850064481
H           24.09849921401986       30.99510946126853        8.41036584735488
C           27.08395697454525       33.94747718561738       12.17732325979503
H           26.72812065658729       34.76708455947852       12.78476849428051
C           31.28925653430220       31.67545604966325       11.57618488399418
H           32.26736943380266       31.77005280976133       12.02530154348036
C           29.33965627712159       28.91633589779810        8.15618580538360
H           29.66003147103882       28.08397281967357        7.55147265808290
C           24.14916602713168       34.85930882846922       12.00548096970349
H           23.09762473844234       34.96435459224777       11.75365766589405
H           24.64077614193621       35.80925368799384       11.80338770240959
H           24.22727880332609       34.66296659889966       13.07490115427142
C           22.78516335072479       32.92353985516818        9.83430828485357
H           22.42697340039235       31.90433811444946        9.70948491120280
H           22.68247633329775       33.43884755981231        8.87977181763411
H           22.14335713536463       33.42378742196344       10.55554494823688
C           29.01122670678439       35.25680949712777       14.22965010644653
H           28.02685834610902       35.10568618818900       14.66887436672422
H           29.00719339118321       36.22349089887819       13.72500010826885
H           29.74704193295945       35.29484240212448       15.02954751015292
C           31.79228148533815       33.72873597711901       13.77771310688158
H           32.37428942951663       32.84419257448731       14.01083314262825
C           32.26860356338195       34.92595972986016       14.10257633012109
H           31.74086684042536       35.82507109554363       13.83729379245930
H           33.21341810887267       35.05408067046302       14.60192694521270
C           33.64020200466499       29.90051712924578       10.54417507532574
H           33.77479366389753       29.18670364305251       11.35937603307161
H           33.93812267486890       30.88156404992199       10.90325795910029
H           34.31120797270071       29.61768358660451        9.73656600377418
C           32.36823513074565       28.11711268361562        8.28711768815198
H           33.18695494066687       27.60799422833286        8.78849209694720
C           32.09039243095703       27.78975676314966        7.02639002027488
H           31.35709520045155       28.32355223419018        6.44901163494983
H           32.61953542495706       27.00428270374715        6.50811957277831
C           27.48770514528433       27.66396539292560        6.05922261427808
H           27.83671098874644       26.75954163785917        6.55760091320395
H           28.29144949703556       28.02036747092328        5.41464810123620
H           26.64060517982438       27.40049171093634        5.43194893096508
C           24.64678837285069       29.09545215923833        6.46085611959508
H           24.04335414672676       28.32492263701953        6.94328387991877
H           24.87136975200067       28.76289611712531        5.45032655951261
H           24.05330560755955       30.00294122887599        6.39497471735901
O           29.66539574863892       33.18525703152134        8.86566075559045
O           28.50531572506474       32.62767432161424        8.89011080982798
C           27.48590560358067       26.68663224616447       13.21753692941216
H           26.53851925398401       26.17398463915377       13.05651868081756
H           27.69338883117531       26.69075325197121       14.28620563588293
H           28.27063217147462       26.13525206994932       12.71240308043927
N           26.55749212721199       29.00457769222768       13.19565595207254
H           25.89519463831199       28.84943872443890       13.93882644519197
C           27.42176865735883       28.07090151915055       12.68824791639807
C           26.73805432875553       30.14939123764124       12.50298057619370
H           26.18791112973742       31.04816449815461       12.68556405639945
N           27.66285658109735       30.00274968202869       11.58908591392840
C           28.09995833962477       28.71521967729266       11.69228618159446
H           28.86154200124790       28.34118679644775       11.04029577155483
77
 energy: -118.991513397852 gnorm: 0.013116019081 xtb: 6.7.1 (edcfbbe)
Fe          28.22256614182209       31.49085877873645       10.09374611292021
N           26.42819322541328       32.34536125992467       10.44146704471809
N           29.01849670847377       32.57697018835098       11.62629135496695
N           30.00413456536473       30.48797747823715        9.87112537827307
N           27.37270013563670       30.25958161187895        8.74229823992109
C           25.26248807939264       32.06422669165961        9.80640445376644
C           24.21005120921667       32.93053944381619       10.29141793357086
C           24.78272489699254       33.75208613394058       11.21510616742863
C           26.17365526134004       33.36676996812233       11.30210940519557
C           28.40945762681865       33.56719857466211       12.32320208680000
C           29.33622456401401       34.16947011086740       13.25028799127968
C           30.52705058001397       33.51501279901678       13.08208157685859
C           30.30098659153941       32.51652129851708       12.05200408274472
C           31.15002180846609       30.75051393117043       10.54595222362206
C           32.21230425202994       29.90324438632865       10.06243315678549
C           31.67291451862233       29.12744034834838        9.06747058800389
C           30.27648642840022       29.51385380358901        8.97379892611234
C           28.01021077351913       29.30265430158009        8.02216110809781
C           27.10074675746448       28.70962191644102        7.06736244349886
C           25.90022820822670       29.33364335865668        7.23648816079967
C           26.08701826203167       30.29037740235294        8.30743416961962
C           25.09640026098584       31.10663034385313        8.82106254074278
H           24.10805627518430       31.00670090127100        8.39767180332305
C           27.08345566073073       33.94293149321717       12.17204872025697
H           26.72758882672856       34.75959111054618       12.78250137751818
C           31.28646768225948       31.67621724438545       11.56819062893597
H           32.26421547738423       31.76935443865264       12.01667724649756
C           29.33330508231632       28.92206196431832        8.15153486680797
H           29.65041700813737       28.08357336381604        7.55240720569502
C           24.15831718174633       34.85070898045906       12.00364596973770
H           23.10628026691322       34.95706195303229       11.75130619883130
H           24.65542099490952       35.79762185163090       11.79514323283769
H           24.23954533351500       34.65628407968033       13.07391704028345
C           22.79400513689916       32.91194526284524        9.82832563093483
H           22.43551881774429       31.89170111704705        9.70491104197779
H           22.69890593791524       33.42433917980672        8.87024497939883
H           22.15050558242307       33.41655859705859       10.54614156828864
C           29.00676523385318       35.25039535852391       14.21704967002459
H           28.02300602032708       35.09205061069115       14.65692394390459
H           29.00154747190154       36.22078647044248       13.71871183696648
H           29.74797638673681       35.27837323126313       15.01342876194688
C           31.78499181226056       33.73500429720219       13.76331334079257
H           32.35811518064492       32.84422469404556       13.99360971176196
C           32.26585211581838       34.92730753177482       14.09822588837442
H           31.74714229528740       35.83655934933442       13.84551834422791
H           33.20461698932438       35.03970043992591       14.61381782174538
C           33.62336699307274       29.90348426048613       10.53939831396750
H           33.75080794765958       29.19620258143373       11.36227193150436
H           33.91817724380414       30.88940196962617       10.89048257161596
H           34.29469028923202       29.61249407977623        9.73414164850604
C           32.35943378781140       28.12154681968463        8.28800973779471
H           33.15341184039397       27.60076224645103        8.81798290438042
C           32.12272263885505       27.80958365298216        7.01494303265026
H           31.38636941009343       28.32778847753067        6.42415681004675
H           32.66637695415912       27.02728349083432        6.51298571203226
C           27.47976218753870       27.66743323620535        6.07626196423541
H           27.83056397015664       26.76723303201208        6.57942339016687
H           28.28198960371476       28.03338291578078        5.43617644241334
H           26.63202886143585       27.40352499961344        5.44990189578848
C           24.64077421289880       29.10304076647239        6.47580411062490
H           24.03071169808928       28.33921130521549        6.96071110179440
H           24.86532402703352       28.76465365331579        5.46631703286935
H           24.05847630830444       30.01765092950095        6.40656648179713
O           29.70159667476154       33.17025938205200        8.88439547728158
O           28.54414370307526       32.62255000480933        8.90978152342847
C           27.48502159118533       26.67684355377518       13.21873401330814
H           26.54007992612003       26.15600307783830       13.06176524112727
H           27.69802965931384       26.68172073133051       14.28746723270533
H           28.27215223578136       26.13156157988405       12.70769347206228
N           26.55248727058856       28.99664586211119       13.20884067771147
H           25.89752737789212       28.84336023265617       13.95840752846353