77
 energy: -118.995074217121 gnorm: 0.000044853287 xtb: 6.7.1 (edcfbbe)
Fe          28.24370817079288       31.49848300525997       10.06573246494336
N           26.45123063645345       32.37105573919966       10.39735784644758
N           29.01782707442347       32.55713944509682       11.60672042249450
N           29.98307999239962       30.49379846643669        9.84873449672890
N           27.39715150553162       30.26684883558987        8.71014761556864
C           25.29868107811795       32.12003052237301        9.72860941027937
C           24.25380226198480       33.01793961758712       10.17162619552720
C           24.81057956577994       33.81555575682330       11.12303241329476
C           26.18950055486621       33.39516445981346       11.25218336128984
C           28.40370309771036       33.54066065946946       12.31585004895563
C           29.31534312995378       34.11542292934062       13.27262411174119
C           30.50817700995151       33.45977298610138       13.11152809553457
C           30.29445711963064       32.48775909315641       12.05659335290838
C           31.13186811346610       30.74859401683029       10.52665201588530
C           32.20658584394935       29.93634381483490       10.01286977339723
C           31.68211601901993       29.20376580230431        8.98299962425160
C           30.27781484560770       29.56123180270407        8.91066827084248
C           28.01303167062640       29.28513687415556        8.00041807139580
C           27.06568436049791       28.62826631912297        7.12653984437225
C           25.87104347983597       29.25166268646851        7.31772145903885
C           26.09951980882293       30.27641704194131        8.31298874365159
C           25.11963483270297       31.13754912691437        8.77199320064198
H           24.13533092829980       31.04176772678824        8.33955151774729
C           27.08716147881103       33.94380415290863       12.14950284357897
H           26.73563114708486       34.75843785193596       12.76478022036698
C           31.27941736365817       31.65193568517848       11.56404051950189
H           32.26298439910119       31.73657827003827       12.00061863905142
C           29.35466405661558       28.95454317143672        8.07612002265719
H           29.70991265257330       28.15799663902239        7.44047279032890
C           24.19375874372144       34.92141809232100       11.90814653511715
H           23.15231900574698       35.05949358072596       11.62947136621928
H           24.72427126363626       35.85594514008898       11.72795051004582
H           24.23801420825733       34.70769070821279       12.97649612854025
C           22.86246512405256       33.01387970046831        9.63898125685563
H           22.39242620753986       32.04340855562393        9.79920876158236
H           22.86559256595096       33.21595070441299        8.56822609717264
H           22.25809497063039       33.77287075226334       10.12903433949087
C           28.96628960413392       35.17269265641631       14.26042133657085
H           27.95254487285015       35.03577358494359       14.63398092244319
H           29.02639208406093       36.16098955610830       13.80300712734740
H           29.65662453248291       35.14095491594154       15.10094537170469
C           31.75148608887448       33.63285848854552       13.83140856613332
H           32.33794732246743       32.73262455256030       13.97396188110131
C           32.21218293205209       34.78527454087622       14.30581854321639
H           31.69765868609836       35.71644055031092       14.14722670365338
H           33.14457885433664       34.83977231850659       14.84265165614851
C           33.61214516094756       29.97095464905829       10.50174338197241
H           33.65447002120423       29.76106709850116       11.57087128242001
H           34.04624901581658       30.95627860749460       10.33291935133472
H           34.21787167342849       29.23680118054965        9.97672332804829
C           32.38734050578514       28.27256312695010        8.12424273500274
H           33.13267119900780       27.65856044246322        8.61834032420353
C           32.21631088673806       28.15855369477919        6.81268790262774
H           31.53200396475531       28.78942654081072        6.27164771582511
H           32.78250610021117       27.45141602561428        6.22946949116684
C           27.41057823862247       27.50548157858562        6.21037395463912
H           27.83193065680194       26.66951585162371        6.76861846684353
H           28.14924315558249       27.82723837685014        5.47654634377898
H           26.52983090453491       27.15524553370502        5.67834719528221
C           24.55543095682066       28.98887633370262        6.66968761054987
H           23.80023379235972       28.74723957847280        7.41767073846013
H           24.62705450861144       28.15770578499343        5.97295964045763
H           24.21954099954770       29.86831794049547        6.12067324117871
O           29.77558153158436       33.15137662457062        8.88123211841563
O           28.59631707038866       32.65278789723808        8.90622095974001
C           27.30737087134902       26.59595773792912       13.17165515300542
H           26.27923432541546       26.27323425010171       13.33530028886131
H           27.85641012504430       26.46982732900205       14.10474591314060
H           27.75582478625838       25.95939925333569       12.41531488988771
N           26.85180993311350       29.03983837845135       13.47757186768870
H           26.42080198947439       28.94794179812566       14.38324331013518
C           27.35075355369612       28.00967982752521       12.72196315761101
C           27.04768204400571       30.18409781561605       12.78740247166449
H           26.75538526818668       31.15366396609732       13.13585759554788
N           27.63692630740082       29.94484731464315       11.64599265791891
C           27.83360301046817       28.59851703971579       11.58750258694960
H           28.30559817766817       28.14788752583672       10.73885982988288
