72
 energy: -105.899844192584 gnorm: 0.268542447686 xtb: 6.7.1 (edcfbbe)
Fe          -6.28600000000000       24.94000000000000        7.47100000000000
N           -4.61400000000000       23.93200000000000        7.23600000000000
N           -6.02000000000000       24.93300000000000        9.46500000000000
N           -8.01000000000000       25.70900000000000        7.77600000000000
N           -6.70400000000000       24.60600000000000        5.53800000000000
C           -4.00900000000000       23.56100000000000        6.03700000000000
C           -2.69800000000000       23.01300000000000        6.27200000000000
C           -2.54100000000000       22.96900000000000        7.60400000000000
C           -3.69300000000000       23.58000000000000        8.21800000000000
C           -4.97800000000000       24.45900000000000       10.19400000000000
C           -5.05300000000000       24.77800000000000       11.61100000000000
C           -6.17500000000000       25.48600000000000       11.73200000000000
C           -6.74500000000000       25.57900000000000       10.39900000000000
C           -8.52700000000000       26.42600000000000        8.85800000000000
C           -9.77300000000000       27.13500000000000        8.59800000000000
C          -10.05100000000000       26.84800000000000        7.33100000000000
C           -8.99200000000000       26.00000000000000        6.79700000000000
C           -7.88500000000000       24.88900000000000        4.89300000000000
C           -7.79400000000000       24.45500000000000        3.51200000000000
C           -6.58500000000000       23.96700000000000        3.29400000000000
C           -5.89600000000000       24.06200000000000        4.55300000000000
C           -4.59100000000000       23.73600000000000        4.80900000000000
H           -3.94500000000000       23.60100000000000        3.94200000000000
C           -3.94300000000000       23.77199999999999        9.56600000000000
H           -3.21800000000000       23.31500000000000       10.23900000000000
C           -7.86300000000000       26.29700000000000       10.07200000000000
H           -8.30300000000000       26.85700000000000       10.89500000000000
C           -8.97300000000000       25.50900000000000        5.51000000000000
H           -9.88600000000000       25.61400000000000        4.92300000000000
C           -1.34300000000000       22.39100000000000        8.34600000000000
H           -0.43000000000000       22.50500000000000        7.72300000000000
H           -1.51000000000000       21.31100000000000        8.54500000000000
H           -1.19600000000000       22.93500000000000        9.30300000000000
C           -1.69600000000000       22.49900000000000        5.25200000000000
H           -0.92700000000000       23.27800000000000        5.06200000000000
H           -2.21700000000000       22.26700000000000        4.29800000000000
H           -1.19600000000000       21.58700000000000        5.64300000000000
C           -4.03500000000000       24.31400000000000       12.65900000000000
H           -3.22400000000000       25.06800000000000       12.74700000000000
H           -3.59200000000000       23.34400000000000       12.34800000000000
H           -4.53500000000000       24.20500000000000       13.64500000000000
C           -6.83100000000000       26.16300000000000       12.93600000000000
H           -7.89600000000000       26.43600000000000       12.91200000000000
C           -6.13700000000000       26.43100000000000       14.02000000000000
H           -5.07000000000000       26.17100000000000       14.07800000000000
H           -6.61500000000000       26.91800000000000       14.88300000000000
C          -10.52500000000000       28.04700000000000        9.63500000000000
H           -9.81900000000000       28.36100000000000       10.43300000000000
H          -11.36100000000000       27.48000000000000       10.09700000000000
H          -10.91700000000000       28.95200000000000        9.12400000000000
C          -11.19300000000000       27.30600000000000        6.46100000000000
H          -11.15000000000000       27.09200000000000        5.38300000000000
C          -12.26400000000000       27.95700000000000        6.89200000000000
H          -12.37500000000000       28.20600000000000        7.95800000000000
H          -13.05500000000000       28.25700000000000        6.18900000000000
C           -8.96100000000000       24.60400000000000        2.57500000000000
H           -9.23400000000000       25.67800000000000        2.49100000000000
H           -9.83300000000000       24.04000000000000        2.96900000000000
H           -8.68600000000000       24.22200000000000        1.56900000000000
C           -5.95300000000000       23.42200000000000        2.04400000000000
H           -5.30500000000000       24.20000000000000        1.58600000000000
H           -6.74300000000000       23.13800000000000        1.31700000000000
H           -5.33000000000000       22.53600000000000        2.29400000000000
O           -7.37600000000000       22.93100000000000        7.78500000000000
H           -7.62200000000000       22.90600000000000        8.71000000000000
H           -7.54000000000000       22.30100000000000        7.18000000000000
C           -3.77400000000000       27.04700000000000        6.81600000000000
H           -3.22500000000000       27.93900000000000        7.18500000000000
H           -3.71600000000000       27.04300000000000        5.70700000000000
H           -3.26300000000000       26.14300000000000        7.21000000000000
S           -5.45800000000000       27.07000000000000        7.33700000000000
H           -5.18700000000000       26.84600000000000        8.61400000000000
72
 energy: -105.950529647806 gnorm: 0.112082887753 xtb: 6.7.1 (edcfbbe)
Fe          -6.33317566976450       24.87665677228988        7.48542515587237
N           -4.59551068130051       23.94496073742995        7.23350213584918
N           -6.00767672516466       24.95022588673730        9.48186125750300
N           -8.04310335541359       25.76000060557336        7.75866967130238
N           -6.70561492996164       24.62004681935491        5.52907584620895
C           -3.99577438778910       23.59135631309891        6.04333402428485
C           -2.69713536803125       23.01083417272661        6.27650744569321
C           -2.53535282311645       22.96914232562048        7.62155099913894
C           -3.70443299422786       23.56744163057185        8.21913382571837
C           -4.96011807527394       24.44169540447529       10.18827041114409
C           -5.05302505934371       24.76265120626507       11.60261152390668
C           -6.19374785283671       25.49732072046473       11.73547098589892
C           -6.76145461316839       25.60013129742137       10.40480138781248
C           -8.52544637140588       26.43006594276177        8.86800621089145
C           -9.76290651117408       27.13858261677808        8.60413955202199
C          -10.06322695519617       26.85005527542827        7.30916412867894
C           -9.00283654745472       26.00042062379300        6.78727008639578
C           -7.88859427252850       24.88043522571360        4.90192138014045
C           -7.81575951770515       24.46465245197898        3.51737668749439
C           -6.57604889830289       23.97836100367053        3.30077340187497
C           -5.88782175965036       24.08925821158538        4.56280518067763
C           -4.57712381108460       23.74580249403427        4.80526363332033
H           -3.94803869200344       23.56460397745962        3.93918281874727
C           -3.92639315504461       23.75270159834531        9.57222347472505
H           -3.18926225824726       23.32120127737389       10.23873307268011
C           -7.88920405109350       26.32073982369761       10.09066694693307
H           -8.33085556065329       26.86876104428910       10.91058009101697
C           -8.97396129861230       25.49943094583688        5.50497460978906
H           -9.86933206457187       25.62282980297573        4.90814067465797
C           -1.34918290202440       22.40002937302826        8.34966901676471
H           -0.44592808275388       22.50495687680134        7.73885420584514
H           -1.50628697312857       21.33282514058195        8.54867608330375
H           -1.19355637736681       22.92193153996318        9.29730815588020
C           -1.71200101601606       22.50553321514144        5.25686468124189
H           -0.94290209277999       23.26491281845836        5.06368906710810
H           -2.20743716268439       22.26918810916412        4.31074065943726
H           -1.21186567283875       21.60493517998215        5.62967195583629
C           -4.04907590653210       24.31596041101893       12.63966652452304
H           -3.24111262287114       25.05298336904454       12.74010147067117
H           -3.60205305811200       23.35902930964343       12.35327957313412
H           -4.52999002279522       24.19856358786245       13.61679279499178
C           -6.81341025053764       26.14414108441933       12.92262483574263
H           -7.86833227494471       26.41188526669468       12.88124103349280
C           -6.13059119998046       26.42613938648183       14.02232354810857
H           -5.07765093041706       26.19395150707411       14.09593556072219
H           -6.60253051645740       26.90816413146784       14.87273712062202
C          -10.49627719945810       28.02271888168872        9.61612361373096
H           -9.82125532589347       28.34566757194660       10.41430856892994
H          -11.33396004139849       27.48255957656991       10.07627194265904
H          -10.89021760645025       28.92214002705689        9.12949078711789
C          -11.18782718984720       27.30336210642678        6.46955280331528
H          -11.13053364650795       27.08819197572250        5.40441538219090
C          -12.26313066146810       27.95526491167693        6.89637939095557
H          -12.39697299948364       28.20033058033010        7.94023059677358
H          -13.04359011137642       28.25618811237308        6.20574943787001
C           -8.96426323030409       24.60603750299300        2.57286702304556
H           -9.23938140666928       25.66290802653054        2.48465133278047
H           -9.82806318198546       24.04946508928518        2.95204560824002
H           -8.69822217638854       24.22908713505034        1.58072278770051
C           -5.95580048248271       23.42832879108112        2.05349331802616
H           -5.31249620170851       24.18614282090148        1.58877855066077
H           -6.72534022543715       23.14114608699538        1.32918576123769
H           -5.34169382398411       22.55113351631903        2.28476144463071
O           -7.36276285556219       22.94263501759346        7.80194917016709
H           -7.63389274309948       22.88717853423203        8.71538659106037
H           -7.55263210538476       22.27285292280460        7.17117722061507
C           -3.75104631735367       27.04505507787590        6.81479984004587
H           -3.22812245720866       27.93656935029865        7.18077453423541
H           -3.71593684096108       27.03884025570158        5.72126639588890
H           -3.25556179895251       26.14791730066115        7.19713085694152
S           -5.45997634394592       27.05232731572579        7.33635701126561
H           -5.18020170432673       26.88545499757947        8.62651712211078
72
 energy: -105.966044380212 gnorm: 0.028304761172 xtb: 6.7.1 (edcfbbe)
Fe          -6.34861494430316       24.85842591538440        7.49084112002031
N           -4.58566748720582       23.94170072432661        7.23421005845510
N           -6.01235316787642       24.94996221422011        9.49258676263220
N           -8.08066019011089       25.77604649824013        7.74813482234624
N           -6.70838129603918       24.62356636905949        5.53169086550638
C           -3.98901421720587       23.61170955219941        6.05268161928760
C           -2.69641006972042       23.01318912416278        6.28435005656527
C           -2.53370991818275       22.96858413760214        7.63690022011013
C           -3.71735295077582       23.55894303676853        8.22003867872260
C           -4.95853706653650       24.42480634838247       10.18064620970100
C           -5.05645162264917       24.74778166230649       11.58795439503509
C           -6.20055195950664       25.50396247528692       11.73200791843184
C           -6.77458229991058       25.61091850878919       10.40530755921907
C           -8.52324273334407       26.42678572178527        8.86737778000298
C           -9.75419187940190       27.13533368649935        8.60604506649916
C          -10.07658861109560       26.85140715021958        7.29808758100474
C           -9.01064923039835       26.00360160909141        6.78735385043738
C           -7.88845699842185       24.87278103993900        4.91412373135783
C           -7.82913108056917       24.47048562900764        3.52588875023674
C           -6.56851209240541       23.99694775411934        3.31182949170613
C           -5.88236454386928       24.11401097112303        4.57847716957620
C           -4.56871133219607       23.74791069544833        4.80537541919903
H           -3.95869353110588       23.51454221071028        3.94053389947596
C           -3.91411400157425       23.74120116899703        9.57806057233801
H           -3.16023989161647       23.33576712335979       10.23742720190347
C           -7.90900722696500       26.33986904348970       10.10170519314904
H           -8.36212034855517       26.87429688080773       10.91970296956962
C           -8.97087731111803       25.50075474665486        5.50155032961380
H           -9.84941853325763       25.63952305496996        4.89056253013830
C           -1.35704454175224       22.40725782896541        8.35869004932936
H           -0.46089149185217       22.50978859478347        7.75221330252348
H           -1.50653640449464       21.34626465504961        8.55942291614917
H           -1.19381881004730       22.91581225714770        9.30247111223152
C           -1.72643049701729       22.51583281279775        5.26298434587289
H           -0.95883417479142       23.26572496886334        5.06592303124886
H           -2.21397663847247       22.27791381291853        4.32382262040386
H           -1.22831835698693       21.61895900499296        5.62431111478874
C           -4.06845297201506       24.31306634106303       12.61901289639338
H           -3.26535335279713       25.04512317687364       12.72462380112454
H           -3.61561209584650       23.36378361158341       12.34555461707777
H           -4.54319073906512       24.19308680486843       13.58974760435671
C           -6.78176873074077       26.12257517290782       12.90466611833632
H           -7.83343820097668       26.37490407882413       12.84762558840669
C           -6.11899486985024       26.42202645623235       14.01991989227282
H           -5.07131256956800       26.21925133241943       14.11780449419908
H           -6.60059694085210       26.89182422461376       14.86004432265666
C          -10.46702160161220       27.99884030340218        9.59297212579431
H           -9.80431941460907       28.31839355539305       10.39208638278848
H          -11.30684810517914       27.46974228174837       10.04739451814288
H          -10.85772090455564       28.89505302014473        9.11495322889247
C          -11.18219347534355       27.30430694472244        6.48638379171813
H          -11.10764902109036       27.08713510135621        5.42933724332577
C          -12.26696026327991       27.95243603576992        6.90453209182039
H          -12.42946827868945       28.19348787430322        7.93469472754052
H          -13.03497238269038       28.25588707092525        6.21512074706592
C           -8.96492553280185       24.60581380079239        2.57275098377468
H           -9.24523562142549       25.65279400453806        2.47689204213147
H           -9.82977717627882       24.05448030387049        2.93605506231791
H           -8.69947726526466       24.23144825864484        1.58961981705844
C           -5.95945416045993       23.44286298917164        2.06555101797352
H           -5.31573103792780       24.18521906341325        1.59342037704648
H           -6.72243742162380       23.15391398696454        1.34772468387517
H           -5.35443348569050       22.56707745002484        2.28806765331099
O           -7.32318278199013       22.95018199267345        7.82168685042107
H           -7.65990022997940       22.85443229159687        8.71561277846180
H           -7.56663836341519       22.27878392543324        7.17997857862393
C           -3.72135569495413       27.04289675713943        6.80896737222381
H           -3.22473969288625       27.93553240439195        7.17815946081545
H           -3.70903659832044       27.03596167836717        5.72502873524102
H           -3.24101155236765       26.14864571479318        7.18718184771140
S           -5.45594341288491       27.05820563186047        7.32867095096990
H           -5.18238860163594       26.94345737070285        8.63286728134152
72
 energy: -105.969892064268 gnorm: 0.032347038958 xtb: 6.7.1 (edcfbbe)
Fe          -6.34931204242022       24.85019483376870        7.49009722684205
N           -4.57852112558975       23.94513742902255        7.23656121850953
N           -6.01628912548936       24.94985206496015        9.48815889914093
N           -8.09426188084057       25.77123661434554        7.74207162226612
N           -6.70864038559863       24.62984106906613        5.53646882245777
C           -3.98731403317447       23.61592285893454        6.05824419142886
C           -2.69470151208635       23.01685878829358        6.29084727534059
C           -2.53201454180604       22.96989605622107        7.64349699705641
C           -3.71900191640105       23.55937856317754        8.22079034266216
C           -4.96218537760733       24.41902658966920       10.17056694596021
C           -5.05696348595324       24.73836887261932       11.57270455518036
C           -6.19533211339860       25.50207490084150       11.72315696529328
C           -6.77777481188080       25.61100428149372       10.39991167876224
C           -8.52441694598660       26.41582742947142        8.86337311289472
C           -9.75094742597854       27.12650276451032        8.60369565202716
C          -10.08485186588562       26.85021056230280        7.29595628515512
C           -9.01978889614218       26.00098823994315        6.78660366214430
C           -7.88855898611443       24.87497402837326        4.91888763194277
C           -7.82977505585384       24.47750109214812        3.52951237450804
C           -6.56418905035751       24.01465465415875        3.31844067688338
C           -5.87964881468410       24.12618743426196        4.58800071566181
C           -4.56905851370248       23.74114831330132        4.80910093731343
H           -3.97362654081537       23.46675087022670        3.94591671141555
C           -3.90866276499646       23.74022181004683        9.57825858074429
H           -3.14123313238605       23.35503155752692       10.23465712551103
C           -7.91719598265358       26.33874177402182       10.10298018638137
H           -8.38127034258519       26.86791447322003       10.91954621264682
C           -8.97310251323244       25.50502428032914        5.49632985456077
H           -9.83701239950446       25.66257080147898        4.86860934146172
C           -1.35990909708741       22.41117773655500        8.37199736138234
H           -0.46274312214297       22.51336319338702        7.76656112852728
H           -1.50920882424860       21.35040929464322        8.57716550922641
H           -1.19611613018609       22.91938250546423        9.31723647251120
C           -1.73299005924628       22.52389269362632        5.26437266996189
H           -0.96822037297199       23.27557490410437        5.06353795772265
H           -2.22934553079575       22.28860462125432        4.32853643814845
H           -1.23431739405511       21.62495860759499        5.62050513618385
C           -4.08045443153875       24.30027531800037       12.60573984510229
H           -3.28184625083107       25.03657706406378       12.71649620698409
H           -3.62442828991213       23.35175676892970       12.33259832629901
H           -4.56756960001568       24.17976864495344       13.57027711700952
C           -6.76199949915066       26.10580398067042       12.90154950296792
H           -7.81697201386865       26.34175831898282       12.83994474168392
C           -6.11096559781655       26.41535047140430       14.02196761532840
H           -5.05354332269908       26.25324551924188       14.12960386461921
H           -6.60963414863286       26.87436145349051       14.85773430038861
C          -10.45222983059138       27.99022552039188        9.58615795274026
H           -9.78545062342359       28.29783822668410       10.38710413806302
H          -11.29815680117517       27.46291942297632       10.03168737681769
H          -10.82933576180939       28.88843902739975        9.10174078545138
C          -11.18832289781179       27.30877104242137        6.49573897233762
H          -11.09994740120876       27.10217014950610        5.43750063983588
C          -12.28105512226505       27.94875687275711        6.90928403273993
H          -12.47153079745560       28.17216831019937        7.94114583832735
H          -13.03865100664892       28.25940334193526        6.21142877055938
C           -8.96305779753530       24.60595061656954        2.57182953983934
H           -9.24920620983590       25.65167926161408        2.46719601642696
H           -9.83205477384748       24.05360422212466        2.92713297543028
H           -8.69003757512877       24.22853610627480        1.59136444262871
C           -5.95966701245982       23.46001845214011        2.07308210392656
H           -5.31159630337623       24.19690477575233        1.59795302889661
H           -6.72930254360909       23.17574222803201        1.36054706440894
H           -5.36176687189886       22.57869260973154        2.29588057270356
O           -7.25059434245696       22.90768633713607        7.85658798142607
H           -7.71893514942266       22.82654954505507        8.71157152328730
H           -7.60769583080605       22.28894626022395        7.18977006053559
C           -3.69642374821756       27.04020547827979        6.80318665976458
H           -3.21009327909127       27.93906323293422        7.16786802908238
H           -3.69310547947557       27.02568253794765        5.71960312917157
H           -3.21693608947327       26.14857876370952        7.18717359537870
S           -5.44281860726985       27.06131497879411        7.32170974359078
H           -5.17211287538106       27.04584857530704        8.64298503043093
72
 energy: -105.971693620380 gnorm: 0.020514471025 xtb: 6.7.1 (edcfbbe)
Fe          -6.34437732432509       24.84729800474917        7.49077800897515
N           -4.57304113964028       23.95111134432169        7.24009122027544
N           -6.01569209627244       24.95468219821099        9.47889462047358
N           -8.10317572159912       25.75707689980464        7.73819538894520
N           -6.71103684400803       24.63043673567130        5.54532928611236
C           -3.98747833695643       23.61402805808612        6.06304660044697
C           -2.69320664246822       23.01742562949089        6.29633597001457
C           -2.52905993555600       22.97225925373913        7.64726363323095
C           -3.71528952688787       23.56496742202564        8.22160756335092
C           -4.96390555593595       24.42075654506028       10.15984789189520
C           -5.05662606193325       24.73293399014409       11.55925221289563
C           -6.18801563027619       25.49935619568632       11.71388910047197
C           -6.77646599650403       25.61048918464754       10.39299159434658
C           -8.52782186131327       26.40170542069028        8.85974070475879
C           -9.75128566183550       27.11484079865207        8.60193193625030
C          -10.09221078531501       26.84698142685614        7.29722453149702
C           -9.02926954510881       25.99850813698841        6.78385163570296
C           -7.88900418308860       24.88003204088313        4.92195355443347
C           -7.82665945587195       24.48503164215152        3.53204858990499
C           -6.56120562112607       24.02886619820133        3.32448913817576
C           -5.87969065382372       24.13026179034746        4.59737266423767
C           -4.57401201566499       23.72925805221927        4.81535817224150
H           -3.99186500723787       23.42527029878468        3.95465949933353
C           -3.90258916309045       23.74680992428160        9.57701499492326
H           -3.12946500254805       23.37326655104716       10.23255240023742
C           -7.92151234938200       26.33116758596855       10.10150121144355
H           -8.39490384037158       26.85683871364031       10.91650223819642
C           -8.97608207536267       25.51368269412358        5.48925585638161
H           -9.82698693882544       25.68625703198551        4.84706158141345
C           -1.36092929845906       22.41537546764532        8.38600619481890
H           -0.45949775784087       22.51316071163899        7.78405339156467
H           -1.51390551394651       21.35548282828690        8.59909133834883
H           -1.20012407233973       22.92898387255702        9.33099450909360
C           -1.73730228177941       22.52868050526117        5.26333284757278
H           -0.97677113799027       23.28430431225695        5.05727259370049
H           -2.24407802071130       22.29576423299518        4.33063092465411
H           -1.23462868327693       21.62865457585808        5.61369706038500
C           -4.09128375167530       24.28497322640453       12.59733821458969
H           -3.29378099606343       25.02179054521006       12.71844039631114
H           -3.63511053893000       23.33596638788181       12.32218388054946
H           -4.59429892209915       24.16309707755898       13.55469487312895
C           -6.74836008986967       26.09385672281413       12.90149490911832
H           -7.81075138258800       26.30262533643053       12.84632812214131
C           -6.10116413506209       26.41701142541334       14.01903357835194
H           -5.03857111875990       26.28067191192402       14.13556383839226
H           -6.61801019748314       26.85282750503108       14.85840033643428
C          -10.44512772709831       27.98763868854995        9.58316526456314
H           -9.77349093614815       28.28438811847554       10.38547702320572
H          -11.29841925726356       27.46689518451015       10.02330578790910
H          -10.80702585239251       28.88869775116109        9.09106727591662
C          -11.19691555689159       27.31537698278762        6.50268458196822
H          -11.09525347130563       27.13093667529229        5.43988636661009
C          -12.29833149006152       27.94021376015395        6.91653502632047
H          -12.51033259992339       28.14514891248606        7.95111018494675
H          -13.04639456445075       28.26144155844941        6.21062571032784
C           -8.95833114365390       24.60761603748893        2.57017539141931
H           -9.24919955805852       25.65283904706634        2.45610749795114
H           -9.82992458488728       24.05358660712417        2.92136885567526
H           -8.67818599681366       24.22520635179611        1.59177265651185
C           -5.95820157145211       23.47737842627414        2.07868808360139
H           -5.30352108215276       24.21075622183209        1.60545876138406
H           -6.73349779791984       23.20273385172599        1.36692758334214
H           -5.36825588065181       22.58863267676515        2.29973090515353
O           -7.25178964516641       22.89061421390982        7.87058309566375
H           -7.71376229257865       22.80484975248099        8.70905768702925
H           -7.63594614901395       22.28155870623677        7.21975665604806
C           -3.67352839741521       27.03648474994444        6.79615418385383
H           -3.19019197811850       27.93991592328360        7.15423819951131
H           -3.67061673647385       27.01190831016197        5.71190396562133
H           -3.19341963469517       26.14757984246367        7.18931932891281
S           -5.42873774881125       27.06764001149216        7.30666365170773
H           -5.16709547539845       27.13013522445995        8.63563746512508
72
 energy: -105.972156683744 gnorm: 0.036122186879 xtb: 6.7.1 (edcfbbe)
Fe          -6.33438738716738       24.85285415172211        7.49311665268834
N           -4.56871031523265       23.95665552217109        7.24409705595270
N           -6.00881927337131       24.96597098849996        9.46772006314588
N           -8.10756670576618       25.74772117534923        7.73501397592584
N           -6.71345638503118       24.62939589098569        5.55627499743125
C           -3.98815754354424       23.60803870050533        6.06714852709430
C           -2.69139584427231       23.01413025744660        6.29979366506286
C           -2.52304098544168       22.97649412746809        7.64895417496930
C           -3.70684610709679       23.57453725100970        8.22226609214406
C           -4.96061225480389       24.42951731042053       10.14974148163060
C           -5.05505164662277       24.73190442412776       11.54948532907706
C           -6.18177184387694       25.49779660834496       11.70657678570427
C           -6.77112813217961       25.61339751520089       10.38597415702747
C           -8.53182729469628       26.38973346575185        8.85834223108704
C           -9.75460549491298       27.10402115001822        8.60360745244749
C          -10.09844683837647       26.84403223500314        7.30110578967049
C           -9.03747844441314       25.99827493544282        6.78127040630696
C           -7.88920590228770       24.88577935962402        4.92603877460845
C           -7.82238026013228       24.49210995398130        3.53545410055038