78
 energy: -115.963848059947 gnorm: 0.260747836569 xtb: 6.7.1 (edcfbbe)
Fe          14.25100000000000        7.86900000000000       19.82800000000000
N           13.53600000000000        8.36700000000000       17.98100000000000
N           12.43100000000000        7.04600000000000       20.32500000000000
N           14.90000000000000        7.56800000000000       21.77600000000000
N           15.95500000000000        8.84800000000000       19.43300000000000
C           14.17100000000000        9.14600000000000       17.04300000000000
C           13.23900000000000        9.36700000000000       15.91400000000000
C           12.11600000000000        8.72000000000000       16.21900000000000
C           12.27100000000000        8.06300000000000       17.50900000000000
C           11.35900000000000        6.90100000000000       19.45700000000000
C           10.28700000000000        6.24300000000000       20.15100000000000
C           10.71700000000000        5.99300000000000       21.42100000000000
C           12.05400000000000        6.56900000000000       21.55100000000000
C           14.13600000000000        7.04900000000000       22.78000000000000
C           14.95000000000000        7.12000000000000       23.99300000000000
C           16.16000000000000        7.58500000000000       23.64500000000000
C           16.14900000000000        7.93800000000000       22.25200000000000
C           17.09100000000000        8.90500000000000       20.25300000000000
C           18.19200000000000        9.52700000000000       19.56400000000000
C           17.68000000000000        9.87400000000000       18.20200000000000
C           16.30400000000000        9.44000000000000       18.21099999999999
C           15.45700000000000        9.62000000000000       17.13600000000000
H           15.84200000000000       10.18700000000000       16.28800000000000
C           11.32000000000000        7.30900000000000       18.13200000000000
H           10.45800000000000        7.00200000000000       17.53900000000000
C           12.86300000000000        6.55100000000000       22.69800000000000
H           12.44300000000000        6.10300000000000       23.59900000000000
C           17.20000000000000        8.44700000000000       21.52800000000000
H           18.17899999999999        8.48600000000000       22.00500000000000
C           10.84400000000000        8.65900000000000       15.33700000000000
H           10.90700000000000        7.78400000000000       14.65500000000000
H           10.76400000000000        9.58500000000000       14.72900000000000
H            9.94600000000000        8.54900000000000       15.98100000000000
C           13.43500000000000       10.22700000000000       14.63200000000000
H           14.49500000000000       10.55300000000000       14.56300000000000
H           12.78400000000000       11.12600000000000       14.68000000000000
H           13.18400000000000        9.62400000000000       13.73300000000000
C            8.93800000000000        5.92500000000000       19.45700000000000
H            9.04600000000000        5.00800000000000       18.83900000000000
H            8.64600000000000        6.77100000000000       18.79900000000000
H            8.15300000000000        5.75200000000000       20.22400000000000
C            9.93700000000000        5.36000000000000       22.57500000000000
H           10.09600000000000        5.70700000000000       23.60700000000000
C            9.05700000000000        4.38600000000000       22.36700000000000
H            8.86900000000000        4.01100000000000       21.35000000000000
H            8.50500000000000        3.94300000000000       23.20900000000000
C           14.48800000000000        6.59000000000000       25.35800000000000
H           14.94200000000000        5.59300000000000       25.54200000000000
H           13.38200000000000        6.48900000000000       25.36700000000000
H           14.81200000000000        7.28700000000000       26.16000000000000
C           17.37700000000000        7.81800000000000       24.53000000000000
H           18.18500000000000        8.49500000000000       24.21800000000000
C           17.47000000000000        7.19500000000000       25.70100000000000
H           16.67500000000000        6.51300000000000       26.03500000000000
H           18.34400000000000        7.35400000000000       26.35000000000000
C           19.59300000000000        9.75200000000000       20.13600000000000
H           20.04400000000000        8.77400000000000       20.40800000000000
H           19.52900000000000       10.38500000000000       21.04700000000000
H           20.23400000000000       10.24500000000000       19.37500000000000
C           18.39700000000000       10.60900000000000       17.06900000000000
H           19.47300000000000       10.72000000000000       17.32100000000000
H           17.95300000000000       11.61800000000000       16.93600000000000
H           18.30600000000000       10.02700000000000       16.12700000000000
O           13.62200000000000        9.59300000000000       20.49400000000000
H           13.70800000000000        9.55500000000000       21.44700000000000
H           13.31600000000000       10.28100000000000       20.02000000000000
C           17.87600000000000        3.77900000000000       18.60700000000000
H           18.20600000000000        3.66400000000000       17.55200000000000
H           17.62700000000000        2.77700000000000       19.01800000000000
H           18.70100000000000        4.23600000000000       19.19400000000000
N           15.49100000000000        4.35000000000000       18.00900000000000
H           15.36100000000000        3.56800000000000       17.40000000000000
C           16.67200000000000        4.65900000000000       18.65900000000000
C           14.57800000000000        5.25700000000000       18.33000000000000
H           13.54800000000000        5.24900000000000       17.97500000000000
N           15.14100000000000        6.15400000000000       19.14500000000000
C           16.42100000000000        5.76300000000000       19.39800000000000
H           17.04600000000000        6.31300000000000       20.09000000000000
78
 energy: -116.019572998933 gnorm: 0.106958043929 xtb: 6.7.1 (edcfbbe)
Fe          14.26377315874756        7.86679446703054       19.81612913071648
N           13.53489332058054        8.37390106388138       17.97914084121895
N           12.43740195799468        7.04990738432721       20.32098569729376
N           14.89695947829581        7.57920401524398       21.75657221390503
N           15.97280146967630        8.84012952407632       19.41472563102486
C           14.15920829426477        9.14713376786379       17.04025320071534
C           13.24325229991013        9.37501548297727       15.91125328413210
C           12.10589129901304        8.70920357843371       16.20761108585408
C           12.28573641665420        8.06861122809310       17.50096077876887
C           11.37475383558546        6.88347151415189       19.46580781305745
C           10.28584372716669        6.23158372357524       20.15289307399952
C           10.70460660834166        6.00544481299648       21.43877288227675
C           12.05931678142110        6.55283391368536       21.53430528078799
C           14.15159580092715        7.05972323616953       22.77425688422880
C           14.95089865463202        7.09408794287521       23.99791863350027
C           16.17350112863459        7.59115047297853       23.65971158112530
C           16.13530112983149        7.91620885782028       22.24996226605625
C           17.09353094064045        8.90483734200308       20.21556642391404
C           18.18585147722042        9.53547832752944       19.52136609427085
C           17.69017119511219        9.87644380630707       18.24054020286730
C           16.31747374473019        9.43569679537862       18.22198138655162
C           15.45669726958066        9.61645440892795       17.14132446630807
H           15.84185540822850       10.17891635477891       16.29697046025034
C           11.33276980386716        7.30396851554389       18.14025549733262
H           10.46042249445129        7.02103237196276       17.55808785417172
C           12.86435558972981        6.55428970579983       22.67838022800947
H           12.44198114261872        6.11188381348147       23.57573870006858
C           17.18589151122848        8.44280857655240       21.51721570133509
H           18.15506165075707        8.50162534013587       22.00332868072965
C           10.85554707812837        8.65377765890927       15.34983384453928
H           10.90600355189548        7.79643055166739       14.66763264811769
H           10.76744638845625        9.56424039883040       14.74771845150525
H            9.96066619885708        8.55193664908706       15.97074373599382
C           13.44825786512259       10.21475280081649       14.65820281112016
H           14.48523300161287       10.54904536769087       14.56764635244831
H           12.80083778511247       11.10074995312317       14.68603737747760
H           13.19175631749100        9.63374073506974       13.76363967817027
C            8.95928534443808        5.92557995307935       19.47544156334918
H            9.04727706414427        5.02357832765376       18.85547220155197
H            8.65932617817932        6.75352216729784       18.82221753416852
H            8.16956515866428        5.76149797527133       20.21496119971647
C            9.94479900122231        5.36935893907492       22.55047545209954
H           10.11870043880742        5.71712823038670       23.56910099321372
C            9.06306113603114        4.39286741666871       22.36032931057699
H            8.87133620116191        4.00018180277063       21.36971953753995
H            8.51583025354525        3.95253055963853       23.18951902924124
C           14.48168728510174        6.59328180373529       25.34320733538911
H           14.91931284679720        5.60567569310036       25.53902460755910
H           13.39383172048602        6.49409152431254       25.36739535299693
H           14.79116077760320        7.27894652106540       26.14122134837000
C           17.35303089277673        7.81193778532165       24.53315037068143
H           18.14514468261313        8.48222514159928       24.20134885882889
C           17.47826976602353        7.19697533100464       25.70400451790892
H           16.72321258885686        6.50986059110672       26.04847748756654
H           18.33996853623206        7.35509587051430       26.34241834877807
C           19.56334225614447        9.74992353356099       20.11123588056364
H           20.02655593844647        8.79382172415644       20.39441786783836
H           19.52027211773743       10.37252158011705       21.01615055472888
H           20.22011809921026       10.24037274876833       19.38662971114466
C           18.38903977189237       10.59184147711300       17.10499452615818
H           19.45487460817072       10.71650216891128       17.32292782936890
H           17.95876940286340       11.59050698956234       16.94619430379689
H           18.30204749402244       10.03503886600374       16.16140995814837
O           13.60047166360829        9.59841497923043       20.51474125498100
H           13.69586422400416        9.59351499711553       21.46820537622763
H           13.29156084029610       10.33731459407033       20.02260387269261
C           17.87554498740918        3.77541686247112       18.60066861060449
H           18.21017559697072        3.65751290958661       17.56356695105274
H           17.64374997231565        2.78555116993852       19.01063260246274
H           18.68483954897115        4.22473313981267       19.18263053706673
N           15.50128547641325        4.34095593406654       18.00923310765403
H           15.36898559276134        3.55807656240064       17.39360182977331
C           16.67014610127958        4.64255440230376       18.66679081386546
C           14.58564459462736        5.26618903189001       18.33425548422049
H           13.56828516303752        5.26405102596408       17.98008970299427
N           15.11581936179894        6.14672180482202       19.16360410593616
C           16.40431964587296        5.76314041421215       19.39213360176264
H           17.03094189294358        6.31347299054488       20.07032559357756
78
 energy: -116.037890179822 gnorm: 0.036112202070 xtb: 6.7.1 (edcfbbe)
Fe          14.26986875902651        7.86757717568424       19.81671263964268
N           13.54045132801964        8.37078628539261       17.97972563234529
N           12.45109476446255        7.03439721809739       20.31096078859318
N           14.89800658995310        7.57438514511494       21.73853574412155
N           15.98645096573377        8.82457173199767       19.39800471020656
C           14.15348869871831        9.14501126124086       17.04244614407362
C           13.25221024407800        9.37607932843023       15.91853796732866
C           12.10488448437630        8.69825834784076       16.20646587104881
C           12.30369014625546        8.06959795289121       17.49834302635912
C           11.39598709278598        6.86746252396457       19.46823966473536
C           10.29644128615313        6.21723063423519       20.14636687485311
C           10.70835694688928        6.00604539277287       21.44144931080766
C           12.06735212645648        6.54514685737902       21.51974489924388
C           14.16421011490867        7.05661357890776       22.76395774936289
C           14.94584428419238        7.06930387568993       23.98887305683289
C           16.17955850423180        7.58532829744294       23.66148903861989
C           16.11973198733306        7.89979466632668       22.24360753019605
C           17.08980370816853        8.89389114297885       20.18951146328236
C           18.17697283108194        9.54005279774657       19.48803842764254
C           17.69844575715658        9.87532881014748       18.26859962083758
C           16.32202206880715        9.42550375449719       18.22650449669915
C           15.45731441325606        9.61103918434574       17.14693435661891
H           15.84372462301497       10.17097722753641       16.30627559235464
C           11.34747035903671        7.30350757717822       18.14853124568941
H           10.46169425501418        7.05025024190577       17.57882385519621
C           12.86570445214246        6.55703713814640       22.65890019198349
H           12.43952495766422        6.12226744774446       23.55343592161931
C           17.16600593473315        8.44197181228868       21.50644032888016
H           18.12492734091822        8.52922926228898       22.00130412400815
C           10.87150134969699        8.64577867694777       15.36510306737547
H           10.90856740933505        7.79803232878397       14.67998867644597
H           10.77952932371207        9.55004006558577       14.76717955865945
H            9.97722457376265        8.54993059669664       15.97411651971829
C           13.46436506042499       10.20141023925345       14.68919226456117
H           14.48974254646825       10.53950702412256       14.58916712383372
H           12.81787030181525       11.08151687015583       14.70520629888390
H           13.20453557275538        9.63023349147384       13.79717276226776
C            8.98292216969113        5.92740553683617       19.49209774221468
H            9.05515184063913        5.03163789750036       18.87217227669435
H            8.68107055769004        6.74987018034066       18.84470142587808
H            8.19673906252153        5.77118776970049       20.22532058991942
C            9.96403671175609        5.38092357075104       22.52014442375386
H           10.15310696602642        5.73568228238046       23.52761212923838
C            9.07593393215997        4.40336433098865       22.35205305481989
H            8.87559732811309        3.98678072535441       21.38206506361282
H            8.53430880423988        3.97051781920669       23.17749229121290
C           14.46992510711877        6.59486259401085       25.32081577545797
H           14.89331677249197        5.61172806701952       25.53634730939456
H           13.38964120573172        6.50396239597787       25.35293476578724
H           14.77731099533275        7.27851691291015       26.11170171922430
C           17.32568114810750        7.79508669436613       24.52308993253668
H           18.09483337145204        8.47475089488776       24.17448217593243
C           17.48938814857198        7.19684976529532       25.70215944355228
H           16.77103620699756        6.49609355382841       26.07211513201805
H           18.34759280540253        7.37073178045525       26.32662262205941
C           19.53661308028690        9.75101205964934       20.08367185832025
H           19.99392792773831        8.80129628131459       20.37103834491301
H           19.48868812546099       10.36744544219539       20.98383875844471
H           20.20240816919754       10.24154698623128       19.37873059953701
C           18.38424131185165       10.57916374464853       17.13709899181708
H           19.44406699171470       10.70899863230797       17.34103918002986
H           17.95216354374741       11.56860955033193       16.97005115264552
H           18.28958730641012       10.02365629872835       16.20223509151409
O           13.54531758944942        9.61722580022795       20.53585847768033
H           13.67714239511159        9.67777857272754       21.48810972066378
H           13.28207912224817       10.39728891182241       20.04253570948361
C           17.87324496423410        3.77500090493049       18.59772548213968
H           18.20773743487799        3.65776053503977       17.56906181001882
H           17.65815878153915        2.78778524267926       19.00383973291947
H           18.67422909196397        4.22120625488274       19.17621863074245
N           15.50338224243689        4.33363370127901       18.01115274483927
H           15.36957277972905        3.55178739553728       17.39049468196413
C           16.66253728574040        4.63066650019141       18.67735479197905
C           14.58710100304935        5.27351800175854       18.33773095350165
H           13.57929601499963        5.27930587510754       17.97883652894268
N           15.09751681324045        6.15142968547394       19.16460818991174
C           16.38572758446166        5.76127355392828       19.39228019434589
H           17.01809214392740        6.31256133396257       20.05667395540950
78
 energy: -116.044812422324 gnorm: 0.036454422289 xtb: 6.7.1 (edcfbbe)
Fe          14.26437864078243        7.87817523449217       19.82365020645052
N           13.54692421696193        8.36487669705605       17.98420655513281
N           12.46876114389533        7.01811233746488       20.29708809075404
N           14.89585425821340        7.56297337113453       21.72575919045860
N           15.98459469062855        8.81549870228888       19.39332264292373
C           14.15565132185075        9.13905557254327       17.04705907852603
C           13.26201007824032        9.36832115103756       15.92866378792404
C           12.11291431993069        8.68829026434849       16.21166893318978
C           12.31574093234035        8.06273862026301       17.49892144168262
C           11.41665301025536        6.85181911313248       19.45827944784929
C           10.31597084540542        6.20515401959665       20.13400798637215
C           10.72620765745508        5.99778442873725       21.42755264289519
C           12.08237349735187        6.53272091434917       21.50346342105832
C           14.16554824543410        7.04133405708569       22.75050010810731
C           14.93585902795704        7.04469246221214       23.97212296622735
C           16.17356577144520        7.56278667724757       23.65310929569095
C           16.11058607164217        7.88394940403229       22.23653538743287
C           17.08197363895390        8.88094148403335       20.18752929559252
C           18.17179836530275        9.53177146505426       19.48746944820563
C           17.69042497710108        9.87765732620295       18.26894534009409
C           16.31449633100524        9.41904303679038       18.22418552731297
C           15.45748301331489        9.60679754597756       17.14765287892558
H           15.84542479534522       10.16617855889304       16.30860092425529
C           11.35791185434111        7.29991642170834       18.14734178339768
H           10.45649246219183        7.07762287781022       17.59016793079424
C           12.86768607394456        6.54706498215269       22.64301839739070
H           12.43309646853520        6.12432126408730       23.53744140536572
C           17.15275706798006        8.43860852243962       21.50426223238014
H           18.10276536813239        8.55820795873668       22.00824111789194
C           10.88152179698091        8.63620874030639       15.37569428247983
H           10.91265873783231        7.78886783676094       14.68946126288464
H           10.79174064461973        9.54187727958562       14.77997432255713
H            9.98795088466994        8.54328240348110       15.98646061421992
C           13.48579423807546       10.19417529163140       14.70933340304070
H           14.51209889425735       10.53073512218737       14.61670262623979
H           12.83945716415697       11.07394804802362       14.72571566397632
H           13.22795064064412        9.62304002263088       13.81762360971025
C            8.99812872927463        5.92650052474492       19.50062703040322
H            9.05349655610036        5.02860225058115       18.88229661847136
H            8.69873622881480        6.75278356689601       18.85834081350939
H            8.22334065462707        5.78130938867416       20.24801643896820
C            9.98657338444220        5.38422853774551       22.50306124689928
H           10.18947262535656        5.75004922458188       23.50314372874945
C            9.09183339173111        4.40944725132183       22.35139846555419
H            8.88770253217652        3.96983704165270       21.39111654112238
H            8.55113909244192        3.99197227880828       23.18329099149054
C           14.44603618446726        6.59185952788937       25.30252230542346
H           14.85356253322131        5.60608731482039       25.53770263823572
H           13.36392936594548        6.51790506428283       25.33001290505411
H           14.75899234051497        7.28454687112883       26.08296073605225
C           17.30805383092826        7.78432703473110       24.51334132557857
H           18.05693396826734        8.47696452004790       24.14635324790632
C           17.51073341264775        7.20179498198446       25.69767162978827
H           16.83389543592726        6.46645626135005       26.09317486850368
H           18.37783573368036        7.40667137021638       26.30139244980264
C           19.52533188298499        9.74957387736971       20.07441172124532
H           19.97733932049229        8.79896375045356       20.35819091638791
H           19.46409056659385       10.36870566607048       20.96926623441012
H           20.18584234839685       10.24312889660628       19.36775388326268
C           18.37812700575926       10.57768890062511       17.14649662625412
H           19.43614312919287       10.70535556788273       17.35629169550329
H           17.94201491748636       11.56356674038943       16.98300175674679
H           18.27953033148057       10.01204868304070       16.22098425007191
O           13.45884288169010        9.63873926235930       20.55824087990000
H           13.68019172320978        9.77805543494651       21.50146177823856
H           13.28919275253718       10.46086083312906       20.06310485965680
C           17.86573683857938        3.77714269551584       18.59912736296466
H           18.19744801493315        3.66593236495553       17.56883488811598
H           17.66650079446636        2.78431418404378       19.00082320403364
H           18.66650340521421        4.22635476909947       19.17509389360782
N           15.49354594439303        4.33148334824598       18.01575685623941
H           15.36040890401765        3.55182751809861       17.39172076714484
C           16.64941782331732        4.62587290921852       18.68831353166477
C           14.58011237563651        5.28027202278808       18.33617686021155
H           13.57766746851672        5.29689241163776       17.96396558710505
N           15.08453792484133        6.15567807935500       19.16825516802422
C           16.37141199221735        5.75965735212403       19.39851685600955
H           17.00958850630307        6.31299250507049       20.05405319229677
78
 energy: -116.048870598094 gnorm: 0.038698664067 xtb: 6.7.1 (edcfbbe)
Fe          14.25368267463371        7.88465978428923       19.82995574273282
N           13.55231772841254        8.36108529950579       17.99330682136454
N           12.49027273236510        7.00221050338680       20.27975746685201
N           14.88897237392398        7.55983897712500       21.71329581945918
N           15.96842440383626        8.81710358228353       19.39861008222115
C           14.16001030372033        9.13361192476826       17.05458700497086
C           13.27406882577077        9.35824851465715       15.93811382136807
C           12.12460063504824        8.67926521477290       16.21654263725442
C           12.32455214110679        8.05822980104465       17.50137216588018
C           11.43694247850838        6.83821524747875       19.44414001398602
C           10.33989745817840        6.18956845708522       20.11796394156252
C           10.75100678559969        5.98308059790146       21.40764093121230
C           12.10192270525634        6.51727640958988       21.48412344576348
C           14.16345991820961        7.02671787818397       22.73583371044591
C           14.92729148838443        7.01947481310041       23.95240232916987
C           16.16544815924524        7.53766700055250       23.64002477051241
C           16.10179181983959        7.87511880012347       22.22847885184817
C           17.06766639874581        8.87757379162115       20.19202743753190
C           18.16053628316423        9.52575557253794       19.49300357263503
C           17.67777595847955        9.87388792730524       18.26926091603153
C           16.30197909788467        9.41712558325955       18.22730218257907
C           15.45850650221086        9.60479068266933       17.14990055121264
H           15.85018854639172       10.16103063010719       16.31096406244140
C           11.36411969263223        7.30004010737991       18.14328716195874
H           10.45257927545889        7.10130284091080       17.59735943007929
C           12.87090737298248        6.53274156820148       22.62769978408249
H           12.42794996243166        6.11794690285937       23.52052639827940
C           17.13944103526821        8.44364213172298       21.50449438966065
H           18.08238412429291        8.58688205299885       22.01234147677361
C           10.89162739636572        8.62568171301049       15.38283772835690
H           10.91785842013567        7.77460456791776       14.69969939537386
H           10.80404952580047        9.53180243414281       14.78606887694366
H           10.00009571923904        8.53667549745786       15.99951849471092
C           13.51306363213120       10.18802409740828       14.72426819727517
H           14.54369413441622       10.51921675648733       14.64861840485692
H           12.87079453932619       11.07116017823338       14.74169363446503
H           13.26313977974067        9.61944323484882       13.82845774499717
C            9.01063520482834        5.92379429980768       19.50589895564494
H            9.04170245976447        5.02194653732594       18.89028357176057
H            8.71078773624661        6.75439018564606       18.86859433588951
H            8.25277607667141        5.79164963389711       20.27522623398328
C           10.01399609921178        5.38217223851114       22.49171116243515
H           10.22565939190784        5.76636433117131       23.48339486215320
C            9.11406229575682        4.41053314792935       22.35772931732706
H            8.89940941839793        3.95536094851515       21.40551401546687
H            8.57183456958847        4.01481911525583       23.19998775519859
C           14.42936337886299        6.58629776109344       25.28625149935640
H           14.81493666143692        5.59575777125708       25.53932901429936
H           13.34317959573702        6.53797196598911       25.30964950153774
H           14.75787208550006        7.28573873477999       26.05522255748784
C           17.29789053460361        7.76747832839720       24.49835778100849
H           18.02201016872150        8.48484922092254       24.12639757557425
C           17.53314279203395        7.19504207097787       25.68036366768198
H           16.87939348712780        6.45498481367221       26.10929381452788
H           18.40153292889372        7.44616898377391       26.27057349211965
C           19.51390360344249        9.74764847154692       20.06959225708442
H           19.96655201167953        8.79794550511970       20.35235314517290
H           19.44908475800343       10.37192263254766       20.95998253037675
H           20.16785940192437       10.24145728745572       19.35606806639403
C           18.36999764983226       10.57277901841480       17.15312380730636
H           19.42723550683018       10.70056187455184       17.37013185899390
H           17.93310162361607       11.55772730549498       16.98923768384879
H           18.27385919724423       10.00124247390287       16.23180250388292
O           13.38344799860860        9.67393419167882       20.58653980767605
H           13.65276433115756        9.86348940661169       21.50608292087645
H           13.30838667606883       10.52789421959637       20.10010582960249
C           17.85358923531703        3.77810379182040       18.60193854157462