77
 energy: -118.995431629981 gnorm: 0.000048703881 xtb: 6.7.1 (edcfbbe)
Fe          48.05379421944345       55.62253531356588       33.90222420169088
N           47.26518195809783       54.79733036596025       32.23440877435539
N           49.89761808987180       55.54466096485330       33.07658766999612
N           48.82905624676012       56.61641621389749       35.48372884422650
N           46.18716731321447       55.93051415179183       34.60308213656250
C           45.95459981748459       54.54177467946226       31.99135708027674
C           45.80282299454919       53.85674943561218       30.72545440315944
C           47.05644450201682       53.69952832123455       30.22067640476020
C           47.95991820987179       54.29780355806665       31.17998684332281
C           50.21935020812308       54.96255712095091       31.89223781433227
C           51.63599527183600       55.06086835882498       31.65346937227965
C           52.16303725388310       55.74328150376707       32.71725672728551
C           51.05477182656213       56.01020967505761       33.61291037831179
C           50.14494618324918       56.83636529127482       35.74266808415144
C           50.30934502701388       57.43000113860516       37.04684005924987
C           49.05069606645058       57.56282805355153       37.57149099449909
C           48.14099662214522       57.03018386361483       36.57488783910809
C           45.86875581971360       56.48466593352502       35.80056357058818
C           44.43554123477026       56.46016295395423       35.99931382213521
C           43.90498110261914       55.86797967988775       34.89496184314088
C           45.02033299752338       55.53241242636750       34.03610072030583
C           44.89973289103692       54.88774147129892       32.81784996154419
H           43.90554690975067       54.62030720064897       32.49321162393012
C           49.32944133989457       54.36770769659977       31.01233963611224
H           49.74271371773096       53.92557658826144       30.11832783423632
C           51.18682050386424       56.57172408674703       34.87019466810253
H           52.18673338908850       56.80709463723525       35.20054937085646
C           46.76500713601204       57.00030596472650       36.71868336849110
H           46.35522186397440       57.38964643752805       37.63836430479272
C           47.48934332711855       53.05638972500683       28.94834039516525
H           46.63314147866333       52.67997325091901       28.39466424425407
H           48.15929774483891       52.22182593774022       29.15346614023663
H           48.01999829765935       53.76964163835473       28.31719772313116
C           44.49508704499304       53.42669876589445       30.15644870107982
H           43.83562321740940       54.28383375937528       30.01972479640076
H           44.00211985663884       52.72366854845225       30.82745475019271
H           44.63246915838755       52.94198935865547       29.19330907941807
C           52.33676827360178       54.55001544692015       30.44272004040032
H           51.97768395440501       55.05705732295525       29.54655244398237
H           52.15785900909051       53.48186346027715       30.32087930949458
H           53.40763679161051       54.71752442771620       30.52229903663532
C           53.54929960619695       56.12108576869873       32.90910320587412
H           54.27826281194829       55.38774619334093       32.58285545708700
C           53.97223436041990       57.27880653189874       33.40281197413412
H           53.28971284838724       58.06020521483536       33.69175222562140
H           55.02194945237539       57.49459523440423       33.51246485398220
C           51.61726637405943       57.74750971173503       37.68105730305558
H           52.00205795388518       58.70416947319099       37.32351931853291
H           52.35191728289266       56.97945363226159       37.44642857355286
H           51.50320204918344       57.80431212320066       38.76139331084951
C           48.64784129904479       58.08406864923993       38.86015255680722
H           47.78862122745491       57.60181676179293       39.30994909693067
C           49.24141700681199       59.08318330503189       39.50434473893863
H           50.07149503637503       59.62392184880469       39.08369385986973
H           48.89958264156653       59.41124059873393       40.47175953001732
C           43.74715120634202       56.98831652084240       37.21019744799830
H           43.98953266932913       58.03989044459034       37.36523751794683
H           44.06142661367250       56.43407817769899       38.09420433662178
H           42.66847521798689       56.89490752865959       37.11360215624776
C           42.48080917685943       55.57306547321330       34.57331299951140
H           41.82167634093519       55.95432361591723       35.34898830167889
H           42.32636740073890       54.49744601399367       34.49063993955018
H           42.19839425176573       56.02984077147013       33.62469751155106
O           48.22339961518865       54.10520283428234       34.58898073121894
O           47.89673306453311       53.95508429943241       35.81823283567246
C           47.73953420005406       60.05917620050345       30.04424318604148
H           48.41734071571832       60.90605893413979       30.15070109689810
H           46.74760691040276       60.44448512761267       29.80839047961388
H           48.07928590669475       59.44343332515849       29.21732906491502
N           47.31159472310429       59.76722960753953       32.49489341704058
H           47.01330858860944       60.71557693289250       32.65698928426715
C           47.70783130538364       59.24953941775683       31.28769383537562
C           47.39592949467594       58.77865976967939       33.41027039930714
H           47.14742424374566       58.89353957209194       34.44570909159101
N           47.81928672611475       57.67114328649317       32.86158545330823
C           48.01903964244766       57.94392013634203       31.54277793229655
H           48.37039316417525       57.18655223340766       30.87325196387936
