77
 energy: -118.842944231495 gnorm: 0.400345293350 xtb: 6.7.1 (edcfbbe)
Fe          48.01800000000000       55.91900000000000       33.77800000000000
N           47.27400000000000       54.93800000000000       32.21000000000000
N           49.88800000000000       55.72199999999999       33.09900000000000
N           48.83700000000000       56.76200000000000       35.39200000000000
N           46.26500000000000       56.08100000000000       34.52399999999999
C           45.95800000000000       54.57800000000000       32.01500000000000
C           45.84800000000000       53.85100000000000       30.76600000000000
C           47.06500000000000       53.78500000000000       30.25900000000000
C           47.97400000000000       54.48599999999999       31.14500000000000
C           50.18700000000000       55.15200000000000       31.86300000000000
C           51.56100000000000       55.19300000000000       31.63400000000000
C           52.13699999999999       55.74900000000000       32.72800000000000
C           51.08800000000000       56.11599999999999       33.63300000000000
C           50.16700000000000       56.87500000000000       35.70600000000000
C           50.30700000000000       57.37400000000000       37.01700000000000
C           49.04100000000000       57.56200000000000       37.51100000000000
C           48.15699999999999       57.20900000000000       36.48500000000000
C           45.90800000000000       56.72200000000000       35.70900000000000
C           44.48100000000000       56.66199999999999       35.89900000000000
C           43.97800000000000       56.00399999999999       34.84300000000000
C           45.07200000000000       55.63900000000000       34.00000000000000
C           44.95000000000000       54.84200000000000       32.88700000000000
H           43.97800000000000       54.39099999999999       32.69000000000000
C           49.29500000000000       54.64299999999999       30.98800000000000
H           49.70100000000000       54.31800000000000       30.03100000000000
C           51.23999999999999       56.55000000000000       34.92000000000000
H           52.24399999999999       56.64000000000000       35.33300000000000
C           46.79600000000000       57.26800000000000       36.55100000000000
H           46.38100000000000       57.82600000000000       37.38900000000000
C           47.51600000000000       53.07100000000000       28.97200000000000
H           46.64000000000000       52.58700000000000       28.49000000000000
H           48.26800000000000       52.29099999999999       29.21900000000000
H           47.95300000000000       53.81000000000000       28.26700000000000
C           44.55700000000000       53.09400000000000       30.30900000000000
H           43.66100000000000       53.69700000000000       30.57000000000000
H           44.49400000000000       52.11300000000000       30.82600000000000
H           44.58100000000000       52.94200000000000       29.20900000000000
C           52.27799999999999       54.55800000000000       30.42100000000000
H           51.88900000000000       55.00900000000000       29.48300000000000
H           52.08599999999999       53.46400000000000       30.40200000000000
H           53.37000000000000       54.74999999999999       30.48800000000000
C           53.65100000000000       55.89299999999999       32.98400000000000
H           54.36900000000000       55.11399999999999       32.69100000000000
C           54.15000000000000       57.18800000000000       33.67800000000000
H           53.43800000000000       57.97300000000000       33.97400000000000
H           55.22099999999999       57.33499999999999       33.88099999999999
C           51.70300000000000       57.60499999999999       37.63500000000000
H           52.26500000000000       58.33899999999999       37.01800000000000
H           52.26600000000000       56.64800000000000       37.65799999999999
H           51.59600000000000       58.00700000000000       38.66500000000000
C           48.49300000000000       57.84700000000000       38.93500000000000
H           47.48199999999999       57.54600000000000       39.24400000000000
C           49.38700000000000       58.55200000000000       39.89100000000000
H           50.33100000000000       58.99999999999999       39.54600000000000
H           49.11500000000000       58.63300000000000       40.95400000000000
C           43.74100000000000       57.30299999999999       37.09499999999999
H           43.92499999999999       58.39899999999999       37.10100000000000
H           44.11800000000000       56.86899999999999       38.04600000000000
H           42.64900000000000       57.12100000000000       37.00200000000000
C           42.58500000000000       55.48599999999999       34.58000000000000
H           41.89100000000000       55.88000000000000       35.35299999999999
H           42.58300000000000       54.37599999999999       34.62500000000000
H           42.24100000000000       55.82600000000000       33.58000000000000
O           48.06800000000000       54.23100000000000       34.42400000000000
O           47.98199999999999       54.07000000000000       35.58100000000000
C           47.45600000000000       59.99200000000000       29.84800000000000
H           48.01400000000000       60.95100000000000       29.90200000000000
H           46.39700000000000       60.20499999999999       29.58800000000000
H           47.91700000000000       59.35100000000000       29.06700000000000
N           47.03900000000000       59.84399999999999       32.35200000000000
H           46.60499999999999       60.74200000000000       32.42800000000000
C           47.52200000000000       59.29699999999999       31.18100000000000
C           47.25300000000000       58.96699999999999       33.36200000000000
H           46.95700000000000       59.15199999999999       34.39400000000000
N           47.85699999999999       57.88800000000000       32.91000000000000
C           48.03099999999999       58.08400000000000       31.50700000000000
H           48.50400000000000       57.32600000000000       30.89500000000000
77
 energy: -118.952975986665 gnorm: 0.176002916521 xtb: 6.7.1 (edcfbbe)
Fe          48.02941828944412       55.89002012612341       33.79279457068605
N           47.25821629967049       54.95734390113216       32.19533635873955
N           49.89845973210254       55.73340706800467       33.07742996192886
N           48.83954203589737       56.76383964172162       35.39995355592150
N           46.24641720992046       56.09662230808314       34.52202464169330
C           45.96046601721608       54.56917228581690       32.01041102210080
C           45.83348752183188       53.82265618959491       30.77175240892305
C           47.06731008190864       53.77183502891540       30.23832268793916
C           47.95572219420016       54.48707876483529       31.13558805932541
C           50.20057209311938       55.16797716442506       31.86039327423151
C           51.60079635548544       55.18068281646138       31.63649334387926
C           52.18323060706494       55.75574412393916       32.73724302591616
C           51.09737146593557       56.09758762906068       33.62724517141679
C           50.16234522524435       56.87705616890641       35.72004045714511
C           50.31500546613241       57.38173102676772       37.04741699460597
C           49.04686150114140       57.57239422232498       37.55337450154744
C           48.16168449331418       57.20707996293607       36.49320987436691
C           45.89587498230814       56.73062172270277       35.69620753124493
C           44.47028378214148       56.67314369271627       35.90517681382148
C           43.96569253775619       55.98781580586218       34.85137896130022
C           45.07083961224841       55.63058497051185       34.00897091403590
C           44.94415491978337       54.84060058468901       32.88429983071045
H           43.97578727128937       54.40118513919194       32.68343458425248
C           49.29916645338237       54.64238672939175       30.96887860324141
H           49.70699121671289       54.30360166633845       30.02563103731762
C           51.23816254968548       56.55237336465889       34.91819864404503
H           52.23686855781342       56.64512667894471       35.32651574756787
C           46.78987443522405       57.28104057303865       36.56191357914813
H           46.37718692831025       57.81970442967805       37.40483880329663
C           47.51360427671683       53.07459004522899       28.97465257230915
H           46.65422196138647       52.59259679268243       28.49501755242729
H           48.25892418449208       52.30513924188686       29.21375183483296
H           47.95023862568593       53.79843052100566       28.27467615766529
C           44.56664549418988       53.10634248805921       30.31291412038076
H           43.67447675831175       53.69118344526414       30.56622312206791
H           44.49862066724542       52.13233241211390       30.81669023442763
H           44.58232333642349       52.94551177544236       29.22790749548909
C           52.27874454624350       54.56531652751443       30.42861422438800
H           51.89585676353241       55.00423504149086       29.49696669901500
H           52.09029534378894       53.48296850069288       30.40391086212050
H           53.35668834749846       54.74619736110770       30.48562105021287
C           53.64227325396832       55.96611184391177       33.01500883611280
H           54.33846722101229       55.17152534136962       32.70941822270430
C           54.12528975131462       57.12607473782685       33.64828946841214
H           53.44918897257685       57.92919508192124       33.94725861169955
H           55.18355996105719       57.29914648173425       33.86043037896614
C           51.69210369506015       57.60491109504756       37.63765853994959
H           52.25312807764356       58.32837782974955       37.02841365692558
H           52.25455866070104       56.66221968305599       37.65927711012386
H           51.60687769690014       57.99385756491489       38.65393057764966
C           48.55673809482918       57.88153942795680       38.94160090535831
H           47.54749574962995       57.55438663245837       39.23084970059617
C           49.35477256851766       58.53264329554394       39.86066528567941
H           50.29599371565617       58.98128260568178       39.55231514130987
H           49.09723919779802       58.62790039617681       40.91557518236001
C           43.74782476991356       57.29869926950748       37.08391003538810
H           43.92254614804767       58.38343090225843       37.10058362860731
H           44.11200788262056       56.87428366141670       38.02898083579124
H           42.66822997180022       57.12209298648531       37.00470213542647
C           42.57991169577346       55.49195484501173       34.58442600096019
H           41.89047629715290       55.87487196473187       35.34378914776783
H           42.57709459718482       54.39415092445105       34.62384184354584
H           42.24038053210214       55.81905183895481       33.59299035209840
O           48.08086928637854       54.23480051100719       34.40592920630217
O           47.97737802621103       54.05721464849443       35.62682726945629
C           47.45605980655057       59.99206213033114       29.85677985310009
H           48.00601442045072       60.94179026092850       29.89863084185234
H           46.41214572194564       60.20339201893433       29.58824394399361
H           47.90718620659916       59.36098634004198       29.08215041010109
N           47.03974130381119       59.84478135908497       32.34689589201098
H           46.60351062372467       60.74643918471881       32.42749414736354
C           47.52307124059538       59.29752978498134       31.18016108950648
C           47.25769715280955       58.96083063348093       33.34734864882711
H           46.96681278167656       59.14209275090559       34.37426732054740
N           47.84889462728683       57.88311047406051       32.89275070343853
C           48.02844083462656       58.08348829133249       31.52122824400155
H           48.49858931427308       57.33151526226786       30.91195594638049
77
 energy: -118.980040691880 gnorm: 0.106648313556 xtb: 6.7.1 (edcfbbe)
Fe          48.04385508046742       55.84914700794149       33.81465695321077
N           47.24949345545448       54.97269628604362       32.17961693577526
N           49.90953567501403       55.74228507788810       33.05330518484323
N           48.84258301376253       56.76267483594643       35.41644739660676
N           46.22759764222221       56.11388242771479       34.52427226934225
C           45.96621319732638       54.56179862863787       32.00731204224918
C           45.82990017565187       53.80033309356648       30.77952704443107
C           47.07224391435881       53.76532850674788       30.22484353778206
C           47.94789581588713       54.49418907217592       31.12416063836265
C           50.21167777326104       55.18330639435995       31.85330486996282
C           51.63334391661232       55.17529727884258       31.64006106632089
C           52.21226953596105       55.76296365075543       32.74513419338260
C           51.09967734416737       56.08546250085124       33.62286546337933
C           50.15817222378284       56.87563556620881       35.73493100953737
C           50.32050104203058       57.39147939780523       37.07094539712421
C           49.05289511675319       57.58548935972075       37.58152383859233
C           48.16199370793137       57.20427335797496       36.50281404754302
C           45.88835835060961       56.74543252847603       35.68488192492500
C           44.46283271963667       56.68534200694953       35.90687357801082
C           43.95673296304749       55.97023862980134       34.86220113689761
C           45.06966931613930       55.62008776501804       34.01877531001873
C           44.93899866510736       54.84197042733276       32.88041065796369
H           43.96996532236555       54.41687015652469       32.67262955407251
C           49.30736285554092       54.64464921495835       30.94853511696594
H           49.71760181318721       54.28035941541286       30.02033199216541
C           51.23016238778225       56.55604260039664       34.91599501259809
H           52.22621274971917       56.65397582862501       35.31803889880652
C           46.78394366104585       57.29437797102585       36.57563691895112
H           46.37082055933290       57.80575590910712       37.43077824707628
C           47.51110570835829       53.07926674476793       28.97812999513568
H           46.66453302937582       52.59680122578019       28.49635381258741
H           48.25413560362625       52.31653263207016       29.20905256431769
H           47.95088848704982       53.79050905642811       28.27929177389602
C           44.58228897588240       53.11718389614421       30.32045525853669
H           43.69220062486339       53.69293581867822       30.56587586263332
H           44.49944749324911       52.14500347520323       30.81105319118154
H           44.59203574832995       52.95209219554725       29.24417615639502
C           52.28689920008258       54.57527467212558       30.44038802145466
H           51.90229504923698       55.00673977888962       29.51505570714236
H           52.09649570458176       53.50050583418773       30.40844334758668
H           53.35857383405033       54.74227489603938       30.48049266092061
C           53.62864521429832       56.01694468872746       33.04063814900309
H           54.30918154455551       55.22084156807600       32.71830311582763
C           54.08767940630885       57.07221318349304       33.61081035693620
H           53.44849974463996       57.89355611837539       33.92019792168273
H           55.13737426370610       57.24865054679938       33.83320268680568
C           51.67998138077208       57.60467718964507       37.64679578426743
H           52.23871367540997       58.32024394099555       37.03946560766010
H           52.24126690297060       56.66975713453183       37.65970849841755
H           51.61984430636284       57.98306521346154       38.65799100548455
C           48.61137496688252       57.90072252409478       38.93703874968671
H           47.61120181509889       57.54612580610691       39.20884937415670
C           49.33771483669680       58.52036271520283       39.82969738438537
H           50.28521487088601       58.96596632258830       39.56579653268658
H           49.06533812983431       58.63828329717798       40.87093223191884
C           43.75355865635927       57.29569999351112       37.07089652457378
H           43.92234779822942       58.37340164675117       37.09901026379217
H           44.11133951439473       56.87458541491235       38.01066453731246
H           42.68195321457102       57.12042791244160       37.00317219348872
C           42.57276826132226       55.49621759617509       34.59291120027633
H           41.88334045325176       55.87374639695807       35.34047636949627
H           42.56200048940887       54.40612654156888       34.62424940165333
H           42.23822749572789       55.81613408816450       33.60623328308684
O           48.09973334126540       54.24644535774237       34.40818020846098
O           47.96855472309142       54.05607681405633       35.65989363453877
C           47.45702808489074       59.99305686059891       29.86452422854481
H           48.00093403032198       60.93706581119121       29.89876155602289
H           46.42254694756458       60.20244582304706       29.59152617026711
H           47.90034653327437       59.36605263575260       29.09579756104282
N           47.04148098473694       59.84548731595216       32.34172585273948
H           46.60435325567608       60.74908210859933       32.42710147823247
C           47.52457036270265       59.29835773399271       31.17832561153748
C           47.25812322539560       58.95371042067543       33.33341030810630
H           46.97538250654676       59.12928489984491       34.35579982078342
N           47.84288065052302       57.87837542853950       32.87474242153136
C           48.02171627636146       58.07940124544720       31.53381286187410
H           48.49237268311530       57.33394258212999       30.92577852503345
77
 energy: -118.987375383609 gnorm: 0.024504827598 xtb: 6.7.1 (edcfbbe)
Fe          48.04796393699432       55.82624565530859       33.82679438872881
N           47.25190900966568       54.97892005636658       32.16953636582064
N           49.90659231344905       55.74412930281606       33.03536553377206
N           48.84120937683718       56.75682855118612       35.42647563088838
N           46.21952872574883       56.12099617254380       34.52640824623450
C           45.97045863216639       54.55977141208565       32.00730088671397
C           45.83653067915735       53.79174969529709       30.78532251700237
C           47.07544956615388       53.76283140757580       30.22150085135143
C           47.94948863495363       54.50117624107816       31.11133680770404
C           50.21189643787010       55.18798727651215       31.83605119747596
C           51.63694243775123       55.17220174690853       31.63365632292357
C           52.20081383153737       55.75292701909350       32.74166294861102
C           51.09093440907722       56.07904905203092       33.61695986464278
C           50.15681796180712       56.87243846799100       35.73792730398440
C           50.32591258282942       57.39310532835793       37.07265466299211
C           49.06241291802640       57.58905080558828       37.57812832137584
C           48.15980644494702       57.20137792447541       36.50873831743003
C           45.88425219666217       56.75633707717991       35.68309315607488
C           44.45849089541804       56.68992127127645       35.90359304082679
C           43.95094771053137       55.96100216013208       34.86890477623597
C           45.06563773687540       55.61375502680020       34.02366487160563
C           44.93877284673449       54.84379414739540       32.87827957266383
H           43.96420020116172       54.43726160408870       32.65620013051471
C           49.31083466707259       54.64626580565336       30.92916827610921
H           49.72596130631242       54.24864095535423       30.01351901940116
C           51.22119661756511       56.55517640749166       34.90900516539754
H           52.21832709712075       56.66637677731380       35.30297162913172
C           46.78026120998707       57.29729476097834       36.58529207424554
H           46.36606804173722       57.78039377372406       37.45993276692095
C           47.51327876545817       53.08090997272770       28.97440130074257
H           46.67027680879577       52.59648634112453       28.49073547207339
H           48.25837371935972       52.32116839468629       29.20314927806909
H           47.95487694698734       53.79009987456102       28.27598998698408
C           44.58935465455943       53.12162338389415       30.32466043631489
H           43.70585384563517       53.70575910688085       30.56841389424991
H           44.49644305136530       52.14970020315989       30.81093201792560
H           44.60484810368919       52.95995914219741       29.24969367650159
C           52.30127703435132       54.58183233143929       30.44098328261531
H           51.91520053824482       55.01844291451047       29.52085920880169
H           52.10832295597150       53.50931022179795       30.40690609104230
H           53.37348818180880       54.74323407683539       30.47808288026749
C           53.60373906746611       55.99567831388877       33.02611475166467
H           54.28337013596562       55.21244569465581       32.69903523064513
C           54.09034132709761       57.08833570607791       33.62220677208579
H           53.45566241308194       57.91418579548276       33.91068107117900
H           55.14106287330678       57.23282268466394       33.82425381354538
C           51.67981883767827       57.59881185772288       37.65582794091863
H           52.23454372553152       58.31877144566629       37.05342846915753
H           52.23564527454448       56.66257925381976       37.65520920967010
H           51.63678992919462       57.96212697742700       38.67362264570609
C           48.63368228329322       57.90312548593646       38.92168508464023
H           47.65114896996393       57.51767774280343       39.18743541549875
C           49.33798562721893       58.54846290402638       39.84269770180415
H           50.29556714777486       58.98558417811300       39.61035442336297
H           49.01111243376572       58.67596321452346       40.86316810563674
C           43.75353527353609       57.29682102361303       37.06522509005025
H           43.92134945688766       58.37327367111013       37.09757252543122
H           44.11515669628869       56.87103409761456       37.99955036634842
H           42.68409579423195       57.11788105527770       37.00095096743667
C           42.56127361789586       55.49947552954362       34.60323129758497
H           41.86951435170129       55.88080428559284       35.34638414402428
H           42.53507687473667       54.41081346212885       34.63129854995342
H           42.22909354108000       55.81985422923047       33.61714687883521
O           48.11737012668227       54.24773053805767       34.43765049340207
O           47.96521631066005       54.06404151895661       35.69384347705898
C           47.45814375803685       59.99536899221717       29.86834420441809
H           48.00085781721958       60.93886493703432       29.90118784661359
H           46.42525697915668       60.20502174839771       29.59462394948710
H           47.89844276656236       59.36764478625696       29.10117830118082
N           47.04355412384772       59.84202373810427       32.33918607488877
H           46.60986565880837       60.74737302394372       32.42767990297564
C           47.52582214187137       59.29650470165985       31.17636470854189
C           47.25400741520377       58.94391308885392       33.32614333050771
H           46.97783648902686       59.11448851148420       34.34756181965324
N           47.83136674669780       57.86615383405646       32.86496028279520
C           48.01598969097502       58.07308991880122       31.53116665715641
H           48.48649129063237       57.32872020683820       30.92477632377260
77
 energy: -118.989580047666 gnorm: 0.015160082965 xtb: 6.7.1 (edcfbbe)
Fe          48.05304487754342       55.81202150736343       33.83548575019294
N           47.26075540815465       54.97018257280378       32.16981965148700
N           49.90462222016475       55.73474117096140       33.02370175341486
N           48.84051178559476       56.75104862523421       35.43710145969528
N           46.21456415576559       56.11958998857948       34.53260817748759
C           45.97823566476631       54.55638123701879       32.01005990542119
C           45.84463405518029       53.78858876904664       30.78968705780141
C           47.08046910368568       53.76087522339895       30.21987708302922
C           47.95602288664642       54.49603969097072       31.10704294787085
C           50.21467727834978       55.18037783663489       31.82453650810645
C           51.64143512761490       55.16940481731776       31.62816208700216
C           52.19295445067149       55.75240780604355       32.73799389508924
C           51.08151806386285       56.07615991545678       33.61042588919024
C           50.15700957607466       56.86848239125254       35.73979345972612
C           50.33305845503200       57.38906067467090       37.07418088019126
C           49.07276608398358       57.58194938991550       37.58154860979526
C           48.15829911619326       57.18998432991990       36.51978011039655
C           45.88297697453208       56.75393408199309       35.68833681613341
C           44.45542175816555       56.69071993876889       35.90311287673035
C           43.94669892667673       55.95405659663196       34.87533340467772
C           45.06306494924346       55.60790063971593       34.02859342268196
C           44.94134707960717       54.84879071561433       32.87552115888261
H           43.96252693220977       54.45831788703367       32.64025676081174
C           49.31753453353653       54.63528881206419       30.91735989843211
H           49.73253713209331       54.22132609213345       30.00876973109781
C           51.21287253301917       56.55752726938620       34.89952656681017
H           52.21260894985326       56.68147676881060       35.28371653656529
C           46.77879744560290       57.28536222481228       36.60120110570933
H           46.36320068111534       57.74824999845406       37.48669333734138
C           47.51703246263081       53.08259822476531       28.96892992148472
H           46.67463340457239       52.59955581711522       28.48141086828039
H           48.26286873458312       52.32116250415370       29.19440859865235
H           47.96074018751607       53.79418439007863       28.27302142925607
C           44.59431671187150       53.12676814807281       30.32554820828442
H           43.71788325902343       53.72359441836578       30.56641648490408
H           44.48549466495734       52.15486002171761       30.81049915747729
H           44.61610787890879       52.96686863663282       29.24998420477399
C           52.31806382260338       54.58988272912899       30.43678086921907
H           51.93437872313621       55.03300327032642       29.51857274664157
H           52.13014692108249       53.51611973697196       30.39554569760883
H           53.39053502681375       54.75339151167324       30.47854904931601
C           53.59231416970062       55.99528127829078       33.01475371210557
H           54.27738489632262       55.22165405236792       32.69140303288709
C           54.07801562229493       57.08653539318521       33.60241667210890
H           53.44416534240005       57.90376121083731       33.90178463382453
H           55.13028582352653       57.20129123967899       33.80059851218119
C           51.68564406840586       57.58574042405027       37.66306647824867
H           52.23971220349846       58.31950623525889       37.07610843598275
H           52.23931256494351       56.64732563310396       37.64184291979383
H           51.64560589796466       57.92550913811509       38.69074435214996
C           48.64769890077446       57.90498515801031       38.92229915470932
H           47.67247844811252       57.51215401573462       39.18458506018753
C           49.33171291359476       58.57704411347390       39.85189866250710
H           50.27990877183620       59.04418851629892       39.64475196014357
H           48.95517379956923       58.71179103623151       40.85459506116064
C           43.75072521478695       57.29833267598729       37.06414793147358
H           43.92085678517916       58.37463257650788       37.10017339225934
H           44.11422716148960       56.86721549919759       37.99601328412633
H           42.68075588358893       57.12018470015431       37.00020346391580
C           42.55024402971844       55.50561831228931       34.61423772117200
H           41.86232166096252       55.89572408616694       35.35825596098165
H           42.50443333143768       54.41647552669537       34.64092104265404
H           42.21884380252858       55.83248648409850       33.62922911429074
O           48.13774085838598       54.25613991505362       34.46316648594244
O           47.96406827928878       54.08280471280690       35.72221491083293
C           47.46015907313020       60.00011656804529       29.86796878347726
H           48.00374068478226       60.94339306485477       29.90407821608101
H           46.42643289528365       60.21166339292888       29.59673469189140
H           47.89906961183580       59.37286013665694       29.09887038059233
N           47.04630753649533       59.83944090714053       32.33654750771027
H           46.61607111038417       60.74581957109729       32.42845600970744