72
 energy: -105.980055258463 gnorm: 0.000164143048 xtb: 6.7.1 (edcfbbe)
Fe           5.82785982292774       32.44656569344143       55.02823219881894
N            6.39231837212572       32.66729051330169       56.93247810429202
N            7.69133530972011       32.90804965156502       54.42658898479179
N            5.25698911406820       32.27490613952352       53.11106068120521
N            3.96096614111698       32.08683154474708       55.61881282365690
C            5.59604850582208       32.60954825805366       58.03095643399796
C            6.36964208912642       32.81621750196199       59.23562746562375
C            7.65674259957563       32.99604210980912       58.83681547284397
C            7.64888131895749       32.91267708776425       57.39267834180773
C            8.77731398997942       33.11096438069582       55.22319977376075
C            9.94303199008699       33.39381953934400       54.43095689917330
C            9.53421301573371       33.39067335452060       53.12397127686488
C            8.12708939946017       33.04949234528789       53.14564184930281
C            6.04665904297139       32.40828968286775       52.00880661612193
C            5.30929103596076       32.09706854637725       50.81150309816342
C            4.04497033017449       31.75851627169558       51.21515477175151
C            4.03815186823568       31.88546485218045       52.65867879597059
C            2.90261527690631       31.77079055823182       54.82864690206894
C            1.70875330389434       31.58118212523975       55.62457461083189
C            2.07230259324224       31.80428050131554       56.91495822109591
C            3.48562052054081       32.11292786037556       56.89034319268152
C            4.23613555538512       32.36346975051637       58.02242703714618
H            3.72503806439255       32.35528018499508       58.97246937216033
C            8.77005590815280       33.09193757545039       56.60761496805504
H            9.70870875557656       33.26669337818545       57.10989741584916
C            7.37610327431650       32.78922227252888       52.01626274528117
H            7.88426865272170       32.84520296217150       51.06707357429740
C            2.93407351108814       31.64395041031492       53.45375945203087
H            2.02165156048835       31.34267588204722       52.96350707392804
C            8.87485514269821       33.24782059103969       59.65660672879851
H            8.63537633745084       33.23861483671826       60.71691924834747
H            9.30713525870687       34.21815119710533       59.41128310892682
H            9.62983029293406       32.48405921048710       59.46844555071311
C            5.79681024151756       32.81574085874664       60.61071385708093
H            5.32854097946212       31.85629463239099       60.83294092059791
H            5.03829613166806       33.59245526124127       60.70737705881702
H            6.57071047784958       32.99880103461633       61.35190278200948
C           11.29596686932307       33.69062697551803       54.97739878468426
H           11.63209743772596       32.88450628826666       55.62985862394839
H           11.28144946903604       34.61220474380882       55.56056883244211
H           12.01551143256061       33.81009618907336       54.17151868889432
C           10.34463621747793       33.67535924872127       51.95767464520684
H           11.36243845277566       33.30338197680322       51.99934912868555
C            9.95531694883218       34.37280041982604       50.89681331056138
H            8.97382138535842       34.81107075013912       50.82801174262056
H           10.61733437051649       34.55188140982904       50.06616573745723
C            5.84218797762831       32.20414327403046       49.42630784798591
H            6.41085066448831       31.31178232279907       49.16089052854320
H            6.50387547116680       33.06372547465184       49.33100632965612
H            5.02292926280933       32.31355054860126       48.71856698154422
C            2.90039166148472       31.37850893117414       50.41645568629166
H            1.93669119688036       31.69638979629147       50.79721745344801
C            2.94897624353139       30.68026589445974       49.28705216477896
H            3.87271057183708       30.29804185493352       48.88938158021771
H            2.05571926620076       30.44186521348771       48.73398156714855
C            0.37558792507140       31.22120759420471       55.06588252078164
H            0.43059206871519       30.28021198938362       54.51805545246709
H            0.02766030796938       31.99266705579553       54.37864517557992
H           -0.35953479328739       31.11313781501808       55.85943828045635
C            1.24578567140250       31.75363815935320       58.15327954579956
H            0.21048588094564       31.52053797673110       57.91759784551372
H            1.27279281330346       32.71331379527673       58.66921582456523
H            1.62230956138377       30.99134847794727       58.83614240422408
O            5.38774962893948       34.64159070299038       54.84411156129154
H            6.27912578458758       34.98755595515939       54.71917035763891
H            4.94987053306617       34.66922980052650       53.98550583036029
C            5.53702122922518       29.36290946181753       56.41882182064681
H            6.01184451411813       28.41210978519418       56.64079652488133
H            4.52500210242196       29.20213178804227       56.06209351665635
H            5.52130423761812       30.01106259421333       57.28850316200237
S            6.44329301202560       30.18261288729205       55.06078684120265
H            7.58781883780720       30.31356429177938       55.74184629296052
