87
 energy: -128.385073763389 gnorm: 0.265786150079 xtb: 6.7.1 (edcfbbe)
Fe          17.73500000000000       55.78200000000000       36.17400000000000
N           17.35200000000000       57.69700000000000       36.08000000000000
N           15.72400000000000       55.43700000000000       35.50400000000000
N           18.10100000000000       53.79800000000000       36.31000000000000
N           19.63700000000000       56.08199999999999       36.82200000000000
C           18.26100000000000       58.71100000000000       36.46400000000000
C           17.72500000000000       59.96699999999999       36.12900000000000
C           16.49800000000000       59.72800000000000       35.54900000000000
C           16.27300000000000       58.35699999999999       35.56800000000000
C           14.89700000000000       56.36900000000000       35.16699999999999
C           13.64100000000000       55.72600000000000       34.79099999999999
C           13.80100000000000       54.38200000000000       34.98200000000000
C           15.20100000000000       54.22700000000000       35.49600000000000
C           17.10100000000000       52.81200000000000       36.12700000000000
C           17.61200000000000       51.56300000000000       36.41500000000000
C           18.95600000000000       51.78400000000000       36.73800000000000
C           19.25100000000000       53.17099999999999       36.65100000000000
C           20.58299999999999       55.18899999999999       36.98000000000000
C           21.81700000000000       55.87200000000000       37.52300000000000
C           21.54100000000000       57.20999999999999       37.53600000000000
C           20.11500000000000       57.29800000000000       37.11400000000000
C           19.50100000000000       58.50500000000000       36.98700000000000
H           20.04800000000000       59.38200000000000       37.33300000000000
C           15.10100000000000       57.70000000000000       35.10399999999999
H           14.31400000000000       58.31400000000000       34.66700000000000
C           15.82900000000000       53.04700000000000       35.79100000000000
H           15.19400000000000       52.16300000000000       35.74499999999999
C           20.49400000000000       53.79200000000000       36.92500000000000
H           21.38100000000000       53.18299999999999       37.09300000000000
C           15.54200000000000       60.77400000000000       35.12500000000000
H           16.10000000000000       61.68800000000000       34.82900000000000
H           14.86200000000000       61.02400000000000       35.96699999999999
H           14.95300000000000       60.41300000000000       34.25500000000000
C           18.31000000000000       61.33400000000000       36.28200000000000
H           18.55700000000000       61.74600000000000       35.28000000000000
H           19.24000000000000       61.27900000000000       36.88800000000000
H           17.57400000000000       62.00399999999999       36.77600000000000
C           12.39200000000000       56.37500000000000       34.34000000000000
H           12.53300000000000       57.47699999999999       34.32099999999999
H           11.56700000000000       56.13000000000000       35.04199999999999
H           12.13600000000000       56.02600000000000       33.31700000000000
C           12.60300000000000       53.51299999999999       34.77600000000000
H           11.83500000000000       53.82599999999999       34.05299999999999
C           12.40200000000000       52.39700000000000       35.39999999999999
H           13.13300000000000       52.02900000000000       36.13500000000000
H           11.49800000000000       51.80200000000000       35.20300000000000
C           16.90400000000000       50.20799999999999       36.32400000000000
H           17.05000000000000       49.78100000000000       35.30899999999999
H           15.81600000000000       50.34000000000000       36.50600000000000
H           17.33299999999999       49.50900000000000       37.07400000000000
C           19.99900000000000       50.81900000000000       37.06000000000000
H           20.96100000000000       51.23300000000000       37.38700000000000
C           19.96100000000000       49.49200000000000       37.01700000000000
H           19.04500000000000       48.96999999999999       36.70300000000000
H           20.84500000000000       48.89900000000000       37.29500000000000
C           23.09700000000000       55.15500000000000       37.84599999999999
H           23.49100000000000       54.66800000000000       36.92800000000000
H           22.90700000000000       54.37599999999999       38.61399999999999
H           23.85000000000000       55.88099999999999       38.21999999999999
C           22.50200000000000       58.34600000000000       37.96999999999999
H           23.55100000000000       58.04600000000000       37.75900000000000
H           22.39300000000000       58.53400000000000       39.06000000000000
H           22.27100000000000       59.27100000000000       37.40000000000000
C           20.05200000000000       57.40900000000000       31.35300000000000
H           19.34000000000000       57.85900000000000       30.62900000000000
H           20.72300000000000       56.70900000000000       30.81100000000000
H           20.64900000000000       58.22000000000000       31.82200000000000
N           18.46500000000000       55.62400000000000       32.11700000000000
H           18.28600000000000       55.25200000000000       31.20600000000000
C           19.31100000000000       56.68600000000000       32.37900000000000
C           17.94300000000000       55.19199999999999       33.25100000000000
H           17.21800000000000       54.38200000000000       33.32900000000000
N           18.45900000000000       55.91800000000000       34.25899999999999
C           19.30800000000000       56.84899999999999       33.71400000000000
H           19.83900000000000       57.55200000000000       34.34300000000000
C           14.56300000000000       55.99500000000000       40.92500000000000
H           14.82900000000000       56.81200000000000       41.62900000000000
H           14.43600000000000       55.05200000000000       41.49900000000000
H           13.61400000000000       56.25800000000000       40.41100000000000
N           16.94500000000000       55.51400000000000       40.24700000000000
H           17.27600000000000       55.34799999999999       41.17600000000000
C           15.64400000000000       55.83100000000000       39.92700000000000
C           17.66700000000000       55.46700000000000       39.15000000000000
H           18.73300000000000       55.24400000000000       39.12300000000000
N           16.87700000000000       55.73400000000000       38.11000000000000
C           15.61300000000000       55.97900000000000       38.58299999999999
H           14.80300000000000       56.23799999999999       37.91200000000000
87
 energy: -128.437383366278 gnorm: 0.123818285704 xtb: 6.7.1 (edcfbbe)
Fe          17.72780090955818       55.78182343669463       36.17613218993141
N           17.36297255217417       57.70513778076281       36.08317011409130
N           15.75563205565514       55.42647854350553       35.51437475959293
N           18.08782981394400       53.80610124598314       36.30421008000315
N           19.63059581989160       56.09256306027924       36.82763930531623
C           18.25100233263520       58.70953210411156       36.45470050230126
C           17.70928515017546       59.97993933798531       36.12715451578580
C           16.48863638737205       59.74508143510986       35.55494358427048
C           16.28048920786394       58.34843788074723       35.56006680532105
C           14.89738502512171       56.36794669009170       35.14903163514928
C           13.63735976262344       55.73204601234865       34.78672335699383
C           13.78828512661905       54.39026006557241       34.98769093076869
C           15.17923257549845       54.22233275324518       35.47776717921970
C           17.11252624837550       52.82081413371166       36.14282417630573
C           17.64827048902577       51.54461002373007       36.41673940787912
C           18.98181128965867       51.75730781478077       36.73086380368802
C           19.23587386682213       53.17230440092085       36.65060260192034
C           20.58788637568051       55.18345596458276       37.01622953035456
C           21.82208951291144       55.86162984961483       37.50066951546818
C           21.54426646887888       57.19176570535367       37.54637693722917
C           20.13863846149293       57.30552800244615       37.12181660341869
C           19.50504697867549       58.51346715191619       36.99175060189760
H           20.04995381762797       59.38929200887158       37.32096882161272
C           15.11714897169271       57.71637179142380       35.09850876455804
H           14.32993537384527       58.33368088546551       34.68356136258771
C           15.80561150381855       53.03773071894162       35.78339940017096
H           15.18467096856979       52.15344622123954       35.72770817178977
C           20.46476431467736       53.80035857776546       36.92635190063993
H           21.34753528224086       53.19539380453207       37.09441183350645
C           15.53185491543865       60.78576213908739       35.11545364982639
H           16.07743742641903       61.68879668012763       34.82571003978276
H           14.85581673000357       61.03284071206379       35.94327266369066
H           14.94561810184289       60.43265489124384       34.26207711837640
C           18.31389919346158       61.33332923945217       36.28637507796970
H           18.55845295295813       61.74924139892389       35.30024990999858
H           19.22984136515232       61.29149774142488       36.88254135816519
H           17.59668835737827       62.00303538456397       36.77365294184087
C           12.38845909793804       56.38974970153497       34.33657115560024
H           12.51296067359896       57.47517135325177       34.31295451892640
H           11.56841991806798       56.14480704761962       35.02200460296365
H           12.12409396973470       56.04201865361244       33.33049482553552
C           12.63626392752254       53.50370541181879       34.76834599145863
H           11.87596346123009       53.84327275312111       34.06235968540718
C           12.41191595459436       52.37129992180697       35.40768277189315
H           13.11249622956260       52.00668121613752       36.14643926125722
H           11.51217306107220       51.79381364886434       35.22267284026574
C           16.91393628718913       50.22739667695077       36.32739451555950
H           17.04839390785425       49.78946678996947       35.32940641946101
H           15.83908002115195       50.34535005431771       36.50357303131235
H           17.30429184031835       49.52782357285302       37.07040284401206
C           20.01263497548733       50.80679164858052       37.06667534385772
H           20.95800410831246       51.23794007407997       37.38738295822458
C           19.96874899380306       49.47863131218911       37.01879951239454
H           19.08352846288311       48.95091906429160       36.69601394694838
H           20.83415832892585       48.89016525894293       37.29244021820322
C           23.09296550521034       55.15441282699113       37.83726920767032
H           23.49463248683171       54.66653817710680       36.94161121465088
H           22.91631611692437       54.38787725405075       38.60088190051300
H           23.83837006084374       55.86194273577493       38.21563017547450
C           22.47753802239745       58.32001210647445       37.96192978086400
H           23.51951691196436       58.04480748892075       37.76031917663839
H           22.38671931725318       58.52758077497487       39.03583325164145
H           22.26629437937221       59.24417161391348       37.41199506317866
C           20.05513276404279       57.41059703341690       31.33938925995111
H           19.35938682544414       57.86116578635460       30.62152675500866
H           20.72546380863931       56.73030020018480       30.80153361990941
H           20.64380622588156       58.20570509596610       31.80505391449897
N           18.46712450023251       55.63106452331780       32.10757473531963
H           18.28456547150351       55.25726315447564       31.19244464723537
C           19.31336060630665       56.67864662652867       32.37780931102721
C           17.95104857154754       55.19646914228206       33.26354955681749
H           17.23627806427979       54.39489257131938       33.34282270658827
N           18.43694854420879       55.90813230919122       34.26965078713474
C           19.29103608141980       56.82984435144985       33.72705933878552
H           19.81820885291447       57.53208278851464       34.34768418272222
C           14.56404718401589       55.99555571043174       40.93200998602514
H           14.81513600991661       56.80145434818326       41.63180537705071
H           14.42611853941235       55.06823940196673       41.50020928696807
H           13.62973842080358       56.24986782517664       40.42463775828984
N           16.93533118771434       55.51479771006434       40.26231802216202
H           17.26840568276029       55.34675508747491       41.19537084679865
C           15.64395822397924       55.83423864799730       39.93076743709193
C           17.66099884034826       55.46706242670909       39.14216547565801
H           18.71396641171076       55.24398466361510       39.11339359756422
N           16.90002244959473       55.74053759402947       38.10035448293919
C           15.63855636314729       55.97445050572031       38.57603167822897
H           14.83133866435075       56.22954976885797       37.91303187088957
87
 energy: -128.454513833533 gnorm: 0.032355464725 xtb: 6.7.1 (edcfbbe)
Fe          17.71400038253879       55.77806825994202       36.17852718550913
N           17.38027915296540       57.71598166548521       36.08130687652587
N           15.78922200246149       55.41951456202065       35.51679790800915
N           18.06089316760866       53.80996513576189       36.31078680971893
N           19.61623421394929       56.10669301266491       36.83629901049438
C           18.24579155430646       58.70715304582140       36.44474629568747
C           17.69564647241456       59.99355434834658       36.12725038527551
C           16.47968796616234       59.76131789576822       35.56188459113962
C           16.28961282319658       58.33992343906354       35.55402707084746
C           14.90204243544624       56.36309760937834       35.13056056941991
C           13.64558793673859       55.74011041791113       34.77910693669014
C           13.78768139272916       54.39562331985841       34.99524757320190
C           15.16465780457479       54.21882822710047       35.46093933095704
C           17.11328876645281       52.83245041964329       36.15207493053362
C           17.67080127158482       51.53649782217254       36.41292093289056
C           18.99882188583875       51.74102397741552       36.71742025749791
C           19.21402893696505       53.17883990405058       36.65060802411278
C           20.58706484765009       55.18585935013095       37.04110488662003
C           21.81206610329001       55.84697294631957       37.49060300262385
C           21.53972925655258       57.17683741757919       37.55295147768444
C           20.15502426412138       57.31559698610475       37.13014647458703
C           19.50624585656828       58.52392024957853       36.99316410791083
H           20.04991541125414       59.40326916660907       37.30171972918856
C           15.13671027387986       57.72492527562564       35.09738820244494
H           14.34786474732526       58.34966260402732       34.70569026438988
C           15.78729023020873       53.02671679234816       35.77325142492976
H           15.18086729592628       52.13864686777176       35.70169132907458
C           20.42725502389315       53.81394197911202       36.92477104852786
H           21.30454315806380       53.20777256053531       37.10106049098148
C           15.51695673549248       60.79675314404219       35.10509793718628
H           16.05360330401746       61.69510214597955       34.81751261565076
H           14.83793230491204       61.04655709027463       35.92028223676717
H           14.93364195783990       60.44772866248052       34.26002301079562
C           18.31893626004481       61.33692496650497       36.29492004944439
H           18.56414440028544       61.75428539578278       35.31733435058925
H           19.22662260491177       61.29508054828409       36.88512273024580
H           17.61581857787079       62.01047739611272       36.78006304100300
C           12.39212208710414       56.40868982559499       34.33255510440969
H           12.50332255039981       57.48543726074544       34.30504952469921
H           11.57397072941810       56.16241681761285       35.00863312167657
H           12.11714852486053       56.06168926507261       33.33643091347445
C           12.67422266872895       53.49312254715193       34.78403635288591
H           11.93425927093731       53.84373548034021       34.07124351515498
C           12.42709458156010       52.35465001403220       35.42615149502377
H           13.10355363278539       51.97857777084251       36.16698322962121
H           11.53765003044692       51.78295825072750       35.22792452505982
C           16.92379918676075       50.24551928462965       36.33243673866936
H           17.05284677794458       49.79741564821656       35.34527226369844
H           15.85749335979706       50.37454911904445       36.50091041864120
H           17.28962495115965       49.54516347166714       37.07661473058914
C           20.02812380620845       50.80064868512535       37.06191045391367
H           20.95729525512190       51.24470930538452       37.39459219031419
C           19.97958955811701       49.46982536871165       37.00966919313146
H           19.11405599069873       48.93165452809098       36.68398923460731
H           20.82974114995421       48.88073328524069       37.29820408378798
C           23.08408248148118       55.14824800543403       37.82887462234834
H           23.49542046893969       54.65780646308100       36.94799900374063
H           22.91713786909925       54.39000969995345       38.59231673818110
H           23.82257611074217       55.85023338376304       38.20749189232567
C           22.45616302353264       58.29143019891658       37.95349853218493
H           23.49442335179599       58.02730357304841       37.75833273029921
H           22.36616669015467       58.51138141151350       39.01868195288294
H           22.24438264203713       59.20896058832137       37.40859655511252
C           20.05835284803864       57.41065510849400       31.33393710951594
H           19.37105143152198       57.85917699196151       30.61894413669935
H           20.72809539810859       56.74311325113192       30.79540494888415
H           20.64291381276703       58.19776295676031       31.79573294036917
N           18.46698415528111       55.63334971122768       32.10086531120093
H           18.28223177018844       55.25953232264150       31.18392055386885
C           19.31372212143072       56.67106641365778       32.38225334487718
C           17.95073528498138       55.19779223869006       33.27129112296416
H           17.24590079237661       54.39776133765034       33.35127384507266
N           18.41345876466317       55.89610259497529       34.27608708391665
C           19.27064971449822       56.81405346034052       33.74023007391569
H           19.79670967942905       57.51535516608750       34.35479582604914
C           14.56467536368342       55.99611972292069       40.93192068876575
H           14.80719587228251       56.79372901821306       41.63230979691841
H           14.42215724820293       55.07702431221503       41.49715176859125
H           13.63728524838987       56.24500726127344       40.42947790037773
N           16.93188641456948       55.51459096292198       40.27658461026579
H           17.26332442287263       55.34367504466767       41.21183476158302
C           15.64791472846598       55.83861170746911       39.92914243253163
C           17.66378414566915       55.46719081005951       39.14302322736901
H           18.70778453131718       55.23977750595509       39.11454929286081
N           16.92780987256021       55.74255106409987       38.09822565032579
C           15.66761608340969       55.97533396015325       38.56864788708276
H           14.86098276546366       56.22512321656115       37.91059347040336
87
 energy: -128.458260308444 gnorm: 0.015192317726 xtb: 6.7.1 (edcfbbe)
Fe          17.70362029974408       55.77931094040056       36.18195763518240
N           17.38674194208142       57.72764522912935       36.07880571308144
N           15.80587632512719       55.42219868541532       35.51270342047643
N           18.04208307594184       53.81108688737430       36.31321770546969
N           19.59757045239898       56.11520025069350       36.84728154730760
C           18.24616354829871       58.71539980219450       36.43962238206555
C           17.68961135239889       60.00875177201420       36.12946985943810
C           16.47408423165155       59.77656904899197       35.56517386319540
C           16.29321880519186       58.34610828843384       35.55270969834684
C           14.90907488977540       56.36466455613653       35.12087300387192
C           13.65629114036595       55.74890036764236       34.77490799862224
C           13.79902377635954       54.40149049285517       35.00186872800112
C           15.16753795047305       54.22244234761350       35.45745915042286
C           17.10692880534133       52.83499774079909       36.14605342449438
C           17.67270209473460       51.53540549510182       36.40355189833075
C           18.99979922574243       51.73840999535239       36.70520840655526
C           19.19767440557833       53.18299433459278       36.65061528255215
C           20.57003480062240       55.18875897352399       37.05389370420163
C           21.79550648332582       55.83416973308402       37.48728371028240
C           21.52811385477614       57.16669359428852       37.55173138230097
C           20.15068641816844       57.32169613015002       37.13372817314772
C           19.50634283567321       58.53472745901626       36.98754674311467
H           20.05509141090279       59.41823629813221       37.27789997130044
C           15.14695807073960       57.73029691741959       35.09627507557194
H           14.35532077471389       58.36230210636892       34.72201893862853
C           15.78115816016565       53.02225507905112       35.76218223040991
H           15.17882239160911       52.13222680582244       35.66645677605942
C           20.39862952541762       53.82046544370276       36.93354922670130
H           21.27127619746295       53.21077640458556       37.11621405640493
C           15.50390772135291       60.80571006259985       35.09642559502951
H           16.03316207080581       61.70874001696672       34.80515914860120
H           14.81298773695611       61.06042296539747       35.90141822398468
H           14.92461980512141       60.45231053415561       34.24884577425644
C           18.32312385179076       61.34724720639627       36.30719024291550
H           18.57501472064653       61.76891193892779       35.33274277119664
H           19.23027629941773       61.29406793892134       36.89874073289977
H           17.62858676378862       62.02765100114005       36.79674069347006
C           12.40211131382715       56.42418489328183       34.32848238986966
H           12.51144223761779       57.50244686569319       34.29818115901369
H           11.58253690181156       56.18170356186997       35.00490585744418
H           12.11992441672395       56.07961867517170       33.33265633376560
C           12.70788372533372       53.47543018038884       34.79673460476053
H           11.97709165827305       53.82318641052250       34.07460670077656
C           12.45964891204571       52.33414819660701       35.43482936345787
H           13.10824994288726       51.96372822000637       36.20850352374882
H           11.57099026035221       51.76255249253104       35.23004454764833
C           16.91748571391938       50.25333662743061       36.33797133878751
H           17.05341870484861       49.78588388792930       35.36002882968856
H           15.85263486400763       50.40893258956977       36.49270290935470
H           17.26096197581771       49.56201609132038       37.10363535512907
C           20.03491314906182       50.80155792310178       37.05860193495037
H           20.95514592246117       51.25484992000900       37.40619381343816
C           19.99978296317768       49.46948596142924       37.00134840556824
H           19.15846647251804       48.91271914550070       36.63416087282479
H           20.84918652101564       48.88447872476134       37.30844235760297
C           23.07025941409839       55.13537588048039       37.82091537051561
H           23.48467398281196       54.64135955038269       36.94252474688890
H           22.90771465439791       54.37924320879501       38.58807299305534
H           23.80690883338400       55.84135401666063       38.19649198729530
C           22.44339766741293       58.27464210288256       37.95000467399424
H           23.48067967271859       58.00680074120328       37.75795767073883
H           22.34496473457476       58.49828188142270       39.01399755285188
H           22.22462842437212       59.18505396232758       37.39663997598555
C           20.05786536523743       57.40571765787023       31.33986537820353
H           19.37290547575850       57.85503641867395       30.62214908604470
H           20.73050017674180       56.74237769380916       30.79797745506536
H           20.64314196717369       58.19357849453223       31.80091647501222
N           18.46348948773506       55.62619096325807       32.09742981590387
H           18.28034765789715       55.25620512824964       31.17891116369756
C           19.30935908415809       56.66330292092593       32.38842874054833
C           17.94097069152426       55.18751893857832       33.26674694693638
H           17.24102118870051       54.38253915137678       33.34436615779202
N           18.39428410221895       55.88436430818655       34.27558028218661
C           19.25393629631134       56.80354135555682       33.74737762616689
H           19.77552092216494       57.50425733290500       34.36541670082982
C           14.56730598704217       55.99658058071799       40.92473185994576
H           14.80347433004013       56.79204969429687       41.63092592943676
H           14.42255761149557       55.07581496956801       41.48807600046507
H           13.64010911194887       56.24419863532809       40.41990382763043
N           16.93743756235403       55.51235361017029       40.28750456317116
H           17.26071344319729       55.33742696469869       41.22489760137130
C           15.65737467260733       55.84254067943080       39.92665900935805
C           17.67856987727911       55.46373409371614       39.15697758213420
H           18.72101754538543       55.22731873720966       39.13352141045534
N           16.95414394232584       55.74614688671262       38.10642452357199
C           15.69173266343740       55.98178641751281       38.56646505662822
H           14.88949558313167       56.23080381104280       37.90358865039701
87
 energy: -128.460109900367 gnorm: 0.012132798776 xtb: 6.7.1 (edcfbbe)
Fe          17.69642808315200       55.78282893481209       36.18618786487450
N           17.38870211223300       57.74182556760667       36.07763522732435
N           15.81685002132223       55.43096712279592       35.51907004402722
N           18.02480139456640       53.81192552465275       36.31501661190590
N           19.57919187961659       56.12301914271625       36.85036265787091
C           18.24719713753270       58.72912483122575       36.43644832717844
C           17.68485740628343       60.02687264786994       36.13209814709284
C           16.46912356801258       59.79403257953170       35.56869312730063
C           16.29368927229370       58.35879587383513       35.55519325587118
C           14.91521767346743       56.37031094315942       35.11984640662825
C           13.66682205674213       55.75792639134350       34.77315432754779
C           13.81149933833683       54.40962659349421       35.01058253658041
C           15.17493209440593       54.23088403556443       35.46074996824490
C           17.09767727090879       52.83375024403291       36.13714268118220
C           17.67072717742372       51.53375168139914       36.39003878517846
C           18.99535376252522       51.74037451782743       36.69288693699124
C           19.18231991728063       53.18672374431733       36.65012578300302
C           20.54908625313901       55.19227431069780       37.05991201502137
C           21.77497279041769       55.82470168699570       37.48747910402462
C           21.51503083486618       57.16034170948087       37.54799368520938
C           20.14167534870092       57.32700355869013       37.13233321601491
C           19.50730640154980       58.54655846850417       36.97833579434466
H           20.06323244750280       59.43144047988083       37.25319536761558
C           15.15217932406905       57.73749331529528       35.09921297498825
H           14.35970514796004       58.37336488490581       34.73388798602338
C           15.77723169137560       53.02012133868283       35.74843892096520
H           15.17411755135105       52.13299361817296       35.62368235833535
C           20.37374566885112       53.82556441685797       36.94320305955085
H           21.24255748323267       53.21361494900754       37.13525816937290
C           15.49254418662582       60.81458633389827       35.08803047965157
H           16.01441357473554       61.72303837185389       34.79346496477500