87
 energy: -128.467395592441 gnorm: 0.000081953846 xtb: 6.7.1 (edcfbbe)
Fe          17.64463851416911       55.80353849069166       36.21903696316551
N           17.32824957977088       57.77780834971720       36.10262432894059
N           15.77254531193455       55.46357262728251       35.59197120190186
N           17.97529950656356       53.82641952782517       36.31585992018039
N           19.50762659600596       56.14416620042510       36.86896681840986
C           18.19061306459638       58.76545070918817       36.45186024058456
C           17.60624035913138       60.06654763412661       36.20529387914477
C           16.37018297503291       59.83722931439167       35.68825276962588
C           16.21226410334913       58.39920313461452       35.63881709608599
C           14.85924367094562       56.39643388036578       35.21385837127433
C           13.61731178442167       55.77250660682488       34.84085398806250
C           13.78488973161224       54.42765271647194       35.03735966522504
C           15.15563714236313       54.25901809706374       35.48150534109450
C           17.08700509546662       52.83815127237848       36.02012984481513
C           17.70249850769912       51.54263711076561       36.14356070186977
C           19.00021658050909       51.76773502764843       36.52557433313024
C           19.13838821559442       53.20708617546331       36.63660993464108
C           20.45813471467894       55.21380671153057       37.14393490955852
C           21.67484671483709       55.84691185231580       37.60493187548695
C           21.43113017288941       57.18474970569552       37.60597169068490
C           20.07325820194845       57.34979307903713       37.13485299203747
C           19.46584658566296       58.57877111382460       36.95376406544133
H           20.03891759399493       59.45986332543328       37.20104131882064
C           15.06260387816231       57.76714274794665       35.20844598759466
H           14.24878676363126       58.38838497471539       34.86521580251918
C           15.76815823591013       53.03128476613094       35.64384726332845
H           15.17715626446660       52.15446087379104       35.42817890465028
C           20.30569858946517       53.84582031437931       37.01666547315246
H           21.16391502234167       53.22990578688299       37.23985387523967
C           15.33332674842116       60.81362760725620       35.24773800325293
H           15.68908223180255       61.83478510756484       35.36230124063606
H           14.42289961200573       60.70006652236225       35.83726945897690
H           15.07831914761409       60.65480941298160       34.19963486156115
C           18.28907368517796       61.36240346494450       36.48278979934445
H           19.20816376125809       61.44489569286112       35.90166327025175
H           18.54968855320064       61.43956509979013       37.53868627115179
H           17.64662960162034       62.20160340613565       36.22691315170864
C           12.39347258796883       56.49725508464159       34.39619473142648
H           12.61720275674881       57.14554115774271       33.54852177291711
H           12.00096819629966       57.11998275489261       35.20125240187627
H           11.61722723104548       55.79477665291098       34.10260170319019
C           12.79059402107038       53.39263797890810       34.84737098868300
H           12.12119572501809       53.54093992623425       34.00600054859669
C           12.61496902786006       52.33203631302055       35.62803764779326
H           13.21358569806038       52.16603626917163       36.50762271164140
H           11.84620701537257       51.60402777780693       35.42702423225641
C           17.00563897615867       50.23912172706850       35.95950427385948
H           16.97503098742053       49.95707970626440       34.90542298682931
H           15.97997298135376       50.29554692887645       36.32065208825740
H           17.52594089397540       49.45639910441386       36.50829751207334
C           20.04888052975038       50.81396741955413       36.80665511045081
H           20.76264958766559       51.11300831603914       37.56605395337344
C           20.20569754605594       49.63467375210440       36.21262155642656
H           19.56095445187589       49.30176467028085       35.41831130283212
H           21.00749207140095       48.96869104607676       36.48621400189092
C           22.91348467060022       55.11187144512416       37.99003832445052
H           23.28419125570656       54.52102313377382       37.15204353518664
H           22.71630468914040       54.43246058952047       38.82013538136193
H           23.69591527637499       55.80343176880498       38.29338978488840
C           22.33160873679126       58.30890459803759       37.99086096150211
H           23.29062430903830       57.93478807134392       38.34131256013861
H           21.88344262934286       58.90391503699431       38.78698431298649
H           22.51124067979327       58.96607598693684       37.13927742913879
C           20.23351243323663       56.92452879784476       31.39243815928861
H           19.62962389598257       57.24826692244098       30.54460022768568
H           20.96647698587133       56.20231194457673       31.03262638451442
H           20.76065737493380       57.78481456164658       31.79291237455693
N           18.59346349725312       55.22725985856872       32.23011576433836
H           18.51452977934926       54.72489442421488       31.36127540126486
C           19.38042912824133       56.32758841261489       32.45134097133496
C           17.95289639502181       54.94356247084477       33.38684599173395
H           17.26817775903814       54.12985983024399       33.50977362083995
N           18.28576121272249       55.79555634220262       34.32461039919291
C           19.17239440275279       56.66268254518466       33.75838236697066
H           19.59801603154851       57.46338028219164       34.32662109837200
C           14.78114642125265       56.59641467003478       40.95486294950562
H           15.26085227472499       57.14718720459782       41.76409238596317
H           14.26972411208954       55.73525830691938       41.38517101255108
H           14.04350089694172       57.23969643288265       40.48538584741718
N           16.83677136950382       55.34944251265928       40.25361382967981
H           17.03946558073041       54.96859188491919       41.16321492526050
C           15.78017566007523       56.16598943382645       39.94392188137954
C           17.54620123735241       55.15113910500725       39.11939445444717
H           18.43027904253950       54.55052241402306       39.06115555979823
N           17.00430417623761       55.79114035994412       38.11308702319456
C           15.90546875194662       56.42724430666700       38.60975064566868
H           15.28319223053180       57.02590131857819       37.97756929744956
