87
 energy: -127.982708718030 gnorm: 0.000047651588 xtb: 6.7.1 (edcfbbe)
Fe          29.06439200586318       25.21719666167542       13.28202108747199
N           27.63504992312236       25.82995277729687       11.99627951338537
N           30.25669124324422       26.69142979735049       12.63879612229377
N           30.47911911104565       24.62705179210460       14.55190280973443
N           27.88514426998542       23.71188663569249       13.85075094699248
C           26.33183901837509       25.40065229349361       11.94326247772838
C           25.60899614094795       26.11093872001375       10.93113039036363
C           26.51441489406047       26.96037608003900       10.33283587458583
C           27.75719516785192       26.77793992399945       11.02128943885878
C           30.05878025016066       27.49939792297998       11.54159972604749
C           31.16161470082876       28.38908674903391       11.37192674064079
C           32.03302640420169       28.13322380031529       12.41425704132789
C           31.45153468998511       27.06697442447646       13.16994548799515
C           31.61901963528026       25.30204050806272       14.89337726965280
C           32.32280410459708       24.60639066674877       15.93696563206255
C           31.58778936375005       23.42719650897764       16.16999031737582
C           30.46693446616254       23.48207756858680       15.31539117398052
C           28.26503224558163       22.61776866822132       14.57502070799895
C           27.17420250240895       21.68342715041848       14.68384605514511
C           26.07845541215214       22.30301037162327       14.06619873431406
C           26.55754434614413       23.51625009678955       13.52781259942151
C           25.80940009088428       24.35261136863686       12.68769779816106
H           24.77640405320182       24.09080282215161       12.52439731956140
C           28.90717766479961       27.52291019525848       10.76664118960814
H           28.86822167605571       28.23288902019701        9.95652770748841
C           32.06764075598277       26.45938639855533       14.26975154630197
H           33.00286049254989       26.88294612912069       14.59694400380954
C           29.45208754770007       22.51507179347368       15.28246045837552
H           29.55357572467879       21.67387530641698       15.94700857054830
C           24.16968827441663       25.90645761707777       10.61726131727141
H           23.55987424655776       26.02217011592828       11.51280878053870
H           23.99937421408674       24.90387976915007       10.22324894413785
H           23.83038902782205       26.62528478237252        9.87719175168573
C           26.30055970396521       27.91073674523884        9.20975925295422
H           27.00398181658583       27.71388490910704        8.40116716378155
H           26.45126523489876       28.93797964352587        9.54259427297122
H           25.29232111019194       27.82319702132521        8.81530153180428
C           24.70006240814839       21.76736621038370       13.91031586593677
H           23.95927613523608       22.54621245934149       14.08472749922249
H           24.52047661064791       20.95724195235477       14.61146471462207
H           24.54743255031991       21.37843618919412       12.90213421014394
C           27.18343558566005       20.37851979020577       15.27130348836102
H           26.22449875640409       20.03032792336586       15.63666684031211
C           28.23085236120557       19.54981984459905       15.34996659099218
H           29.18967014564650       19.79239356974320       14.92514924039167
H           28.13898270409300       18.58000788837019       15.80677792734102
C           31.94261039992989       22.30293715821943       17.07348318818485
H           31.51812028391114       21.36755813317733       16.71658184273885
H           31.56427692758152       22.47852685767901       18.08212537829087
H           33.02367899955446       22.19310125951855       17.12855941932066
C           33.52464754023460       25.06584871192477       16.55710128582275
H           34.07934821581737       25.81458870138243       16.00537016529627
C           34.00542197960215       24.68575844769550       17.74909982234126
H           33.48767978470683       24.00081212870595       18.39433991628983
H           34.92946064262629       25.09014653345971       18.12415143527673
C           33.32882295874830       28.78959569212299       12.72950152465901
H           34.14956114633102       28.07451443144998       12.66264386440535
H           33.31868313945257       29.19394248447834       13.74170668454698
H           33.52781109030557       29.60390812751110       12.03899525490215
C           31.28566056067352       29.39226870981537       10.28177845127727
H           32.26133008075738       29.86911636457648       10.30403685026628
H           30.52438432007751       30.16632823088572       10.38403242573524
H           31.15557245111468       28.92004944578864        9.30873571064485
C           28.27181116139908       29.02181862805126       17.36358527804793
H           27.94549221272527       28.66669265540910       18.34036279564794
H           27.70091458636109       29.91722299336239       17.12042547213048
H           29.32317579206071       29.28456170635373       17.42236107488625
N           26.84310821104592       27.44535903708524       16.04397559075603
H           25.97564306165440       27.70162831320733       16.48907522868982
C           28.07212302160677       27.97646052830440       16.33232920148594
C           27.00195016749720       26.53031904690603       15.07240968316159
H           26.20323041613831       25.95576316200285       14.64822936913743
N           28.26536790586776       26.44359520860533       14.71944940778709
C           28.94378168341989       27.33913675346687       15.49612246075340
H           30.00269108737679       27.46621239450064       15.40683247584552
C           32.46650468872037       22.44261762274108        9.79481856259072
H           32.41842002508234       22.68293134627886        8.73339210201457
H           32.52424625553401       21.35935045705142        9.89448625629617
H           33.36942878473869       22.87876199803069       10.20994718906894
N           29.99990012492110       22.59838939467521       10.19073763132828
H           29.74294923805417       21.94622615496160        9.46614278383651
C           31.27926468741078       22.97195378382048       10.50640692445377
C           29.15967738576086       23.25041948579836       11.01322218947184
H           28.09314094450717       23.15015456830006       10.99196139092854
N           29.82974327675245       24.02225507052401       11.83956449324350
C           31.15087372670699       23.85985127150908       11.53658608499780
H           31.91340224570688       24.38563841766996       12.07346499969492
