78
 energy: -116.058254857639 gnorm: 0.000103033221 xtb: 6.7.1 (edcfbbe)
Fe          24.28005741081197       29.52949507629595      -15.56493069798536
N           25.01455957008505       31.24301887509982      -14.87056543232947
N           23.82935164679021       28.95775697113173      -13.68796944146985
N           23.46038399467601       27.82559038877096      -16.26989033760156
N           24.68634418545264       30.09889385069900      -17.43204570234581
C           25.56278356439369       32.24844138472586      -15.59740278677775
C           25.97224649737709       33.33977187673108      -14.73822545022059
C           25.65589738945806       32.96632891065548      -13.47097028567874
C           25.06294113541815       31.64906822064065      -13.57384041474646
C           24.08029376686610       29.64995924027222      -12.54230102453262
C           23.67076143731112       28.89578717996209      -11.38693486594612
C           23.16129323517359       27.71413568495516      -11.85852751773532
C           23.28084841966527       27.77497246847529      -13.30193992668401
C           22.93061833909429       26.80698386151409      -15.53404459719662
C           22.47643510051288       25.74162186464810      -16.38780488017074
C           22.75577870652867       26.13068600307889      -17.67279317110767
C           23.36786831850125       27.43931044383929      -17.56977674575049
C           24.43833699692840       29.40612973411731      -18.57512956522455
C           24.91188167164871       30.13730889871578      -19.73084246197341
C           25.45403174803666       31.28935466642777      -19.25509434109268
C           25.30150781630842       31.24635673222504      -17.81674228950729
C           25.71585768567941       32.25588103439060      -16.97025242916897
H           26.18122348019409       33.12152493204946      -17.41621484371884
C           24.63750802927182       30.91688159736328      -12.48363937764840
H           24.75091504828807       31.36561559458575      -11.50855057075288
C           22.84573442092864       26.77768074440405      -14.15267020505646
H           22.41213472926265       25.89730179797636      -13.70406541723482
C           23.82622005831984       28.16925958526832      -18.65209338988713
H           23.70485779721370       27.73639470040694      -19.63335930718211
C           25.84819104147205       33.70464550797268      -12.19060729179056
H           26.29575470526665       34.67901110185586      -12.37004484778124
H           26.50095330008007       33.14665869018582      -11.51837387943936
H           24.89265956196965       33.85369871403987      -11.68752898163841
C           26.60446458079270       34.59902218458843      -15.22287204206808
H           25.94102815385023       35.11694896474335      -15.91557445215982
H           27.53710209145881       34.38356877890379      -15.74483916049994
H           26.82274367371290       35.26722185337958      -14.39339383209608
C           23.85292923911266       29.32623356054507       -9.97324146139549
H           23.04869739303678       29.99544337548530       -9.66269318559458
H           24.79691041948949       29.85490286916171       -9.84960387946176
H           23.85048175114372       28.45901207495400       -9.31600660356647
C           22.62736142999862       26.58996863657170      -11.12212096764410
H           22.80776000633130       25.61515775304350      -11.56057563211803
C           21.94479104838346       26.66735068653843       -9.98425649953419
H           21.69529205392323       27.60956232438657       -9.52839478629817
H           21.58762268430444       25.78451036493422       -9.48041281054237
C           21.77756681413528       24.51047445328722      -15.92654964711572
H           21.11088599335163       24.73359529094682      -15.09480629712573
H           22.49352803872582       23.75771654342513      -15.59210677598322
H           21.19046678277813       24.08807373970169      -16.73964106956767
C           22.49211362995922       25.44100410288381      -18.91607658092869
H           22.26222116980562       26.07647741208595      -19.76367740458837
C           22.52037379326137       24.12349586276016      -19.08960881478587
H           22.78842505858120       23.44633761768047      -18.29752066044854
H           22.29883220481879       23.67657488861425      -20.04460480761274
C           24.78913154271166       29.65964278135000      -21.13745859044238
H           23.74094237792799       29.52711547315810      -21.40669334270570
H           25.29414948142272       28.70163062568770      -21.26527253710816
H           25.23087401027189       30.37391375674968      -21.82782861934484
C           26.08648739463459       32.41422765932916      -20.00013850990644
H           25.53447891456764       33.33955775202357      -19.83467880596676
H           26.10197068859145       32.21158823347170      -21.06827676376131
H           27.11222013803440       32.56794730243656      -19.66428556674747
O           22.16324677844361       30.40643726775485      -15.68196372853403
H           21.84446214419122       30.19527782254884      -14.79768806730513
H           21.75538846917189       29.77824885378620      -16.28778261715402
C           29.25924608196595       27.68692425738955      -13.86266594497302
H           30.14399666556073       27.99151829329040      -14.42155578204390
H           29.35052485399534       26.62557150628499      -13.63210769472280
H           29.22696049340755       28.24348517427607      -12.93136905932005
N           27.79250532808680       27.38720482487791      -15.87010263459604
H           28.40957959960360       26.75536621222304      -16.35342617853167
C           28.02467818090136       27.95250761657623      -14.64367430687413
C           26.59104962071415       27.82943093063346      -16.30468047842140
H           26.15061520771236       27.54895166361785      -17.23923543134871
N           26.04882677329537       28.63992272801583      -15.42842171599839
C           26.92898694464750       28.72678406810951      -14.38997999652589
H           26.71584949026009       29.33556552433181      -13.53596377916272
