91
 energy: -130.224731196348 gnorm: 0.259811931714 xtb: 6.7.1 (edcfbbe)
Fe          -1.69900000000000      -49.75100000000000      -35.40700000000000
N           -0.55000000000000      -50.84500000000000      -34.11000000000000
N           -0.95500000000000      -50.82900000000000      -36.98900000000000
N           -2.45800000000000      -48.37800000000000      -36.77700000000000
N           -2.07000000000000      -48.44000000000000      -33.88300000000000
C           -0.50300000000000      -50.72199999999999      -32.74000000000000
C            0.33900000000000      -51.78300000000000      -32.21800000000000
C            0.78000000000000      -52.49699999999999      -33.25900000000000
C            0.22800000000000      -51.93400000000000      -34.46900000000000
C           -0.06000000000000      -51.88300000000000      -36.88900000000000
C            0.23600000000000      -52.34800000000000      -38.22299999999999
C           -0.45100000000000      -51.60099999999999      -39.08400000000000
C           -1.22300000000000      -50.62700000000000      -38.33100000000000
C           -2.57400000000000      -48.59000000000000      -38.13800000000000
C           -3.31700000000000      -47.47400000000000      -38.69400000000000
C           -3.63600000000000      -46.64400000000000      -37.69300000000000
C           -3.10500000000000      -47.20200000000000      -36.45800000000000
C           -2.76400000000000      -47.23800000000000      -34.03400000000000
C           -2.97500000000000      -46.65800000000000      -32.73400000000000
C           -2.34000000000000      -47.61100000000000      -31.74200000000000
C           -1.80400000000000      -48.68999999999999      -32.53400000000000
C           -1.14500000000000      -49.76899999999999      -31.99600000000000
H           -1.13300000000000      -49.87200000000000      -30.91100000000000
C            0.46600000000000      -52.41400000000000      -35.73300000000000
H            1.12000000000000      -53.27999999999999      -35.82800000000000
C           -2.06900000000000      -49.66300000000000      -38.84699999999999
H           -2.36000000000000      -49.75700000000000      -39.89300000000000
C           -3.20600000000000      -46.65700000000000      -35.19899999999999
H           -3.67800000000000      -45.67799999999999      -35.11799999999999
C            1.71000000000000      -53.72800000000000      -33.21100000000000
H            1.97500000000000      -53.95099999999999      -32.15600000000000
H            2.64100000000000      -53.51700000000000      -33.78000000000000
H            1.19000000000000      -54.60799999999999      -33.64600000000000
C            0.67700000000000      -52.01100000000000      -30.72200000000000
H            0.03300000000000      -52.82000000000000      -30.31500000000000
H            0.49000000000000      -51.07800000000000      -30.14800000000000
H            1.74100000000000      -52.31300000000000      -30.61900000000000
C            1.20700000000000      -53.49900000000000      -38.57800000000000
H            0.65100000000000      -54.46000000000000      -38.59899999999999
H            2.00900000000000      -53.56400000000000      -37.81200000000000
H            1.65300000000000      -53.31900000000000      -39.57900000000000
C           -0.41200000000000      -51.77700000000000      -40.61799999999999
H            0.12200000000000      -52.62100000000000      -41.07800000000000
C           -1.03000000000000      -50.90100000000000      -41.40400000000000
H           -1.13900000000000      -49.85200000000000      -41.09300000000000
H           -1.44000000000000      -51.21500000000000      -42.37499999999999
C           -3.68300000000000      -47.30300000000000      -40.19000000000000
H           -3.80200000000000      -48.30300000000000      -40.65900000000000
H           -2.87200000000000      -46.75300000000000      -40.71399999999999
H           -4.64000000000000      -46.74600000000000      -40.28100000000000
C           -4.42800000000000      -45.32600000000000      -37.82000000000000
H           -4.68500000000000      -44.90500000000000      -38.80299999999999
C           -4.80800000000000      -44.68600000000000      -36.71500000000000
H           -4.91300000000000      -43.59100000000000      -36.71200000000000
H           -5.02200000000000      -45.24500000000000      -35.79199999999999
C           -3.68900000000000      -45.33800000000000      -32.41200000000000
H           -4.73800000000000      -45.38600000000000      -32.77500000000000
H           -3.17000000000000      -44.49700000000000      -32.92000000000000
H           -3.69500000000000      -45.17300000000000      -31.31300000000000
C           -2.29300000000000      -47.45800000000000      -30.21099999999999
H           -3.08200000000000      -48.09000000000000      -29.75100000000000
H           -2.47400000000000      -46.39700000000000      -29.93400000000000
H           -1.30200000000000      -47.78600000000000      -29.83100000000000
C            0.93300000000000      -46.57299999999999      -34.61999999999999
H            0.61300000000000      -45.51100000000000      -34.68800000000000
H            1.96400000000000      -46.60700000000000      -34.20700000000000
H            0.23900000000000      -47.11000000000000      -33.93800000000000
C            0.90600000000000      -47.20600000000000      -35.97700000000000
H            1.72500000000000      -46.77200000000000      -36.58900000000000
H           -0.06100000000000      -46.96000000000000      -36.46500000000000
S            1.09800000000000      -48.97099999999999      -35.88699999999999
C            2.34800000000000      -49.12499999999999      -34.61100000000000
H            1.94300000000000      -48.84900000000000      -33.61400000000000
H            3.20600000000000      -48.45399999999999      -34.83100000000000
H            2.71200000000000      -50.17300000000000      -34.55499999999999
C           -5.25000000000000      -55.00500000000000      -38.50399999999999
H           -5.39600000000000      -55.92200000000000      -37.89399999999999
H           -4.48000000000000      -55.18800000000000      -39.28300000000000
H           -6.21400000000000      -54.69700000000000      -38.96100000000000
C           -4.76700000000000      -53.91100000000000      -37.57300000000000
C           -3.84600000000000      -54.18000000000000      -36.56300000000000
H           -3.48300000000000      -55.18899999999999      -36.43200000000000
C           -3.38600000000000      -53.17600000000000      -35.72200000000000
H           -2.67300000000000      -53.40199999999999      -34.94300000000000
C           -3.84900000000000      -51.88100000000000      -35.89000000000000
O           -3.39800000000000      -50.86399999999999      -35.07700000000000
H           -2.77000000000000      -51.23800000000000      -34.45500000000000
C           -5.20800000000000      -52.59900000000000      -37.72400000000000
H           -5.92000000000000      -52.36500000000000      -38.50200000000000
C           -4.75000000000000      -51.58900000000000      -36.89400000000000
H           -5.09700000000000      -50.57600000000000      -37.03199999999999
91
 energy: -130.298781901149 gnorm: 0.119762342853 xtb: 6.7.1 (edcfbbe)
Fe          -1.60552141594858      -49.69360842912539      -35.43020795262268
N           -0.57688379825710      -50.87086855095676      -34.10709749335535
N           -0.96256900940472      -50.84314940062038      -36.99737918970958
N           -2.47148917369962      -48.38404606909892      -36.77355358331558
N           -2.07646325524046      -48.45558000429855      -33.88392872216469
C           -0.51189282244506      -50.73820904174990      -32.74366637734267
C            0.34058675877314      -51.78421509312405      -32.20171775687722
C            0.78848858713082      -52.50999684845365      -33.25365856510922
C            0.21851819879378      -51.93700215859844      -34.45461085357663
C           -0.07273649863172      -51.88629396865122      -36.90273219890685
C            0.25384048138313      -52.35653986743110      -38.22984331148869
C           -0.43147593944419      -51.58631025148680      -39.11257199728176
C           -1.21835010490442      -50.63715771566469      -38.32899375198173
C           -2.59016132698855      -48.58447406611460      -38.12338906541363
C           -3.33697837805936      -47.48120847603624      -38.70408775974557
C           -3.67625511793972      -46.64204035574246      -37.68734816443538
C           -3.10883097586051      -47.21153058774271      -36.46262143642991
C           -2.74810874451415      -47.26012321959156      -34.00145024395806
C           -2.95312345753785      -46.67807036391085      -32.69853001276054
C           -2.36560362904252      -47.58019385070990      -31.76261569725047
C           -1.83371026895323      -48.66943079761344      -32.54309401106377
C           -1.15526457402607      -49.76062059812919      -32.00689806475773
H           -1.12492513530153      -49.85334447476232      -30.92585109609963
C            0.45376030862158      -52.40905549048066      -35.73252265326223
H            1.11191488021887      -53.26665075097542      -35.82563326554639
C           -2.07464674252871      -49.66387845376530      -38.82684562398750
H           -2.36340465002014      -49.74740226922856      -39.86547010207800
C           -3.18337806903330      -46.67710787737453      -35.18553831887903
H           -3.63552189369475      -45.70136385532918      -35.09409805605433
C            1.70261027996090      -53.71666992753246      -33.21191152467816
H            1.96983642466492      -53.94732834435182      -32.17550697015944
H            2.62366775475971      -53.52171822831549      -33.77458737049795
H            1.20039788602623      -54.59149641074727      -33.64192913277677
C            0.66985414135608      -52.00525919433560      -30.73644223226853
H            0.04146637520902      -52.80522536937305      -30.32360548930853
H            0.49530887021410      -51.09305585584909      -30.15775897404961
H            1.71902248613729      -52.30205766336609      -30.62225271275606
C            1.20094214776048      -53.48960006387188      -38.56972840247089
H            0.65796171559304      -54.44322847585762      -38.59596129255986
H            1.99924262527215      -53.56255576104957      -37.82502673493804
H            1.64846711342090      -53.32087611225271      -39.55463443507578
C           -0.42512621154570      -51.76141051105799      -40.59527553607632
H            0.06071817144134      -52.64082060267421      -41.02734714761133
C           -1.02004995078150      -50.89513107752760      -41.41678848047003
H           -1.17264183432615      -49.86900955435498      -41.11161256039094
H           -1.37697140764193      -51.19448967839917      -42.39885092694504
C           -3.67937304582230      -47.31188806912565      -40.17379931510801
H           -3.80024603822920      -48.28893632068498      -40.65286350581438
H           -2.88591358726547      -46.76366522063525      -40.69895511244138
H           -4.61841380881411      -46.75728401052867      -40.27842175420801
C           -4.41118273357172      -45.34547316629992      -37.80335804689896
H           -4.60263517855919      -44.91534897402967      -38.79050139368190
C           -4.83120734680301      -44.67900950162593      -36.72426191797798
H           -4.97887410206376      -43.60320058481955      -36.73443410804517
H           -5.02012302061836      -45.20266811904231      -35.79835721498871
C           -3.67033510094557      -45.37078182998499      -32.41216338737262
H           -4.71115072057724      -45.39627495637989      -32.76798834580665
H           -3.17467061967866      -44.52333745482686      -32.90829170527871
H           -3.69222480169596      -45.17711874224501      -31.33414309223415
C           -2.30022960539288      -47.45477289347158      -30.24919509678219
H           -3.06957115066699      -48.07749123463995      -29.76911711036447
H           -2.46948845359148      -46.41631632077534      -29.94281271607601
H           -1.32545777127524      -47.77504106928899      -29.85395750523240
C            0.93023135739114      -46.56032538519390      -34.60834659142255
H            0.61473207478008      -45.51488279513720      -34.67677058885108
H            1.94407872747701      -46.59228031901915      -34.19475339582178
H            0.24408388773052      -47.09413826307177      -33.93994244632779
C            0.91197693205916      -47.19125223985944      -35.97696839157386
H            1.72033205619458      -46.77361123952471      -36.59567265224692
H           -0.04930851143690      -46.98200387346919      -36.46793352449411
S            1.09856085056591      -48.97675396512326      -35.89788592170736
C            2.35120223659863      -49.12090766776231      -34.60339878777792
H            1.94356437614625      -48.85841459164173      -33.62070486583505
H            3.20151098855393      -48.46721753048821      -34.83205226641629
H            2.69861115387348      -50.15838339157833      -34.56661478495011
C           -5.24752994206711      -54.99858844661713      -38.49117484802422
H           -5.39628258440671      -55.91780164894877      -37.91388884134007
H           -4.49979855855921      -55.18845285585917      -39.27089014542796
H           -6.19413829984069      -54.70904515881571      -38.95911103415278
C           -4.76320746818169      -53.90636455527036      -37.57364383408742
C           -3.84733440243527      -54.17895817530581      -36.56307149950818
H           -3.48410730515487      -55.18833858974079      -36.43238400438710
C           -3.38735836657322      -53.17763700764099      -35.72454917636612
H           -2.67155539416811      -53.40352954552982      -34.94622562148916
C           -3.83506837107582      -51.87466695846178      -35.89674061956303
O           -3.37461463071260      -50.85645472913171      -35.08545896864035
H           -2.76808577616934      -51.24544506495837      -34.43881199716683
C           -5.20748268076177      -52.59772610435385      -37.72309594768279
H           -5.91875664152014      -52.36452561078721      -38.50184824570223
C           -4.74957911292955      -51.58628521444265      -36.89698490304092
H           -5.09310033077243      -50.57299488617849      -37.03127951919613
91
 energy: -130.328199215458 gnorm: 0.043468749051 xtb: 6.7.1 (edcfbbe)
Fe          -1.54112359373952      -49.65603735546227      -35.44558098823951
N           -0.58886214656498      -50.88100613857873      -34.11009478864771
N           -0.95616007792978      -50.83865201322866      -37.00143393645870
N           -2.46135217953122      -48.38371810033193      -36.76424085979275
N           -2.06460876555814      -48.46232941736447      -33.88677247176300
C           -0.52415883809917      -50.75053448446997      -32.75164366813742
C            0.33401543821273      -51.78235808410664      -32.19557940378791
C            0.78717569658329      -52.51730385586097      -33.25327639997591
C            0.20405704233125      -51.93946534694086      -34.44630300574091
C           -0.08255225371610      -51.88193227003543      -36.91283782763919
C            0.25957589451514      -52.35796135552813      -38.23281870109806
C           -0.42961800381482      -51.57579145940385      -39.12950900397480
C           -1.21000020744634      -50.63575208774801      -38.32180977269582
C           -2.60331626672811      -48.58341146180573      -38.10144072141510
C           -3.35543293302938      -47.49428931819654      -38.69789267959685
C           -3.69749920625779      -46.64341172644774      -37.67146886192176
C           -3.10906814480733      -47.22696264501445      -36.45806594713773
C           -2.72705168642281      -47.27879619800041      -33.98511238360802
C           -2.93266348621763      -46.69919274386235      -32.67142247148931
C           -2.38468699991668      -47.55843245733669      -31.78316234690460
C           -1.84780542870346      -48.66119408787202      -32.55471840442456
C           -1.16405615182578      -49.75588772800319      -32.02146704566069
H           -1.11012765936893      -49.83109511148987      -30.94302429925652
C            0.43724052107026      -52.40379065600535      -35.73297198040741
H            1.10081042284704      -53.25325691623902      -35.82440956428180
C           -2.07842254592827      -49.66221736637090      -38.80357473307897
H           -2.36840660588906      -49.73520481108837      -39.83686861863342
C           -3.16237483766720      -46.69771434781990      -35.17361635655425
H           -3.59692686123318      -45.72102602612809      -35.07017007296476
C            1.69282191261726      -53.70352825321134      -33.21423332489719
H            1.96368349156704      -53.94070146105395      -32.18847629613161
H            2.60875525451802      -53.51960091969581      -33.77545436122925
H            1.20327219239969      -54.57725651233062      -33.64343796208237
C            0.65974646161741      -51.99714507076298      -30.75329982677628
H            0.04143086626412      -52.79274078725489      -30.33379798357865
H            0.49395092459982      -51.09715392945955      -30.16883461492291
H            1.70161018638383      -52.29213205421167      -30.63229760321911
C            1.19328528105617      -53.47532395520092      -38.56123372072631
H            0.65888835309347      -54.42702754587790      -38.58727767499001
H            1.99141481002929      -53.55645257390876      -37.82875413330658
H            1.64410898542337      -53.31885624300278      -39.53840386399371
C           -0.45296366479537      -51.74646617860503      -40.56286957556365
H           -0.01722077939852      -52.66489136772834      -40.96183377614352
C           -1.00712411906428      -50.89113552079473      -41.42980886398665
H           -1.20715914724618      -49.87833379369376      -41.14085706182095
H           -1.28135462147283      -51.17772282749790      -42.43678204347341
C           -3.67963237985007      -47.32487943991335      -40.14865831930155
H           -3.79930514403987      -48.28595931537715      -40.64254163516437
H           -2.89110248139726      -46.77802248965209      -40.67120881071249
H           -4.60524422549331      -46.76542268532508      -40.26960101046273
C           -4.38219572808924      -45.37233977999267      -37.77774719117527
H           -4.49447615129582      -44.93276714441024      -38.77253492266711
C           -4.85183325788502      -44.67580286523909      -36.73413014882524
H           -5.07609590355991      -43.61875708313617      -36.78233512710166
H           -5.01425755766177      -45.15694241875606      -35.79028118496668
C           -3.65011585226697      -45.40305478334655      -32.41089305765486
H           -4.68248941126719      -45.42882089727355      -32.76950261251997
H           -3.16271400663074      -44.55923461401958      -32.90619370099508
H           -3.68269795788905      -45.19036476336859      -31.34436990826929
C           -2.30954647182040      -47.45084750936482      -30.28531905861669
H           -3.06695854045898      -48.07367330584530      -29.80125708805773
H           -2.47171763120322      -46.42445420984724      -29.96166429571296
H           -1.33977423343545      -47.76882032910704      -29.89654997188954
C            0.92518895901410      -46.54334782456291      -34.59845161439874
H            0.60986794149429      -45.50822832834065      -34.66771925768219
H            1.92668550759349      -46.57357653287637      -34.17872962695239
H            0.24095110496205      -47.07798361509190      -33.94345648334879
C            0.91550620688313      -47.17022020155694      -35.97697333432830
H            1.72000033867459      -46.76979104736532      -36.59744539667475
H           -0.04261193002315      -46.99711827584962      -36.47107778414558
S            1.09741209570131      -48.97611659772535      -35.90595479493373
C            2.35385594085424      -49.12460099113297      -34.59602922101403
H            1.93843537183751      -48.86873979873199      -33.62686369394721
H            3.19509867284154      -48.47968046361842      -34.83545720610650
H            2.68403257202956      -50.15787278153400      -34.58049402487642
C           -5.24607547371675      -54.99422072277346      -38.48302604722679
H           -5.39529500714466      -55.91515992981000      -37.92467665697519
H           -4.50953145603968      -55.18663611517497      -39.26307059912202
H           -6.18229351772377      -54.71358922546080      -38.95790467334976
C           -4.76247818594484      -53.90398971279460      -37.57359058447035
C           -3.84727341900504      -54.17852432888732      -36.56457452286654
H           -3.48728200088130      -55.18869076883210      -36.43128796739281
C           -3.38400950191918      -53.17824374972227      -35.73102947831300
H           -2.66870305326256      -53.40388745368615      -34.95100178694038
C           -3.82156590996644      -51.87114634589641      -35.90483949254651
O           -3.36475720483907      -50.85863031526233      -35.08815320423160
H           -2.78191396989696      -51.25911276421520      -34.41703786094891
C           -5.20456238329017      -52.59578666969241      -37.72360526726022
H           -5.91820010843536      -52.36280574267258      -38.50036996415028
C           -4.74423807679111      -51.58333147165334      -36.90182505018919
H           -5.08483310151771      -50.56861002607321      -37.02962635938506
91
 energy: -130.340260804615 gnorm: 0.035125452963 xtb: 6.7.1 (edcfbbe)
Fe          -1.50463084893156      -49.64174261493419      -35.44619211202011
N           -0.60269387249479      -50.89230850494969      -34.11099851809324
N           -0.95144336547557      -50.82873775313864      -36.99565150758996
N           -2.45430836228242      -48.39141740144489      -36.74765682261017
N           -2.04888220667695      -48.46886449449376      -33.88558062086645
C           -0.53517043634861      -50.76172498526895      -32.75524569247313
C            0.32200566770741      -51.78699338188309      -32.20000318050401
C            0.77525115589065      -52.52305141643657      -33.25675815122328
C            0.19048641285991      -51.94735042699664      -34.44666422844379
C           -0.08469230983258      -51.87499612922570      -36.91194383650093
C            0.25155067869716      -52.35001034932719      -38.22933452345221
C           -0.44657710088350      -51.56919603450392      -39.12351551195115
C           -1.21063288950110      -50.62629732692843      -38.31123011228602
C           -2.61421925715343      -48.59301840357935      -38.08061615805488
C           -3.36997712586462      -47.51162797966836      -38.67298854929169
C           -3.69565791020245      -46.65393833724801      -37.64560482529432
C           -3.10028172472301      -47.23846179624142      -36.44209559589684
C           -2.70338634480704      -47.28449895825212      -33.98846569053309
C           -2.91940307860634      -46.70140970016596      -32.67673360041135
C           -2.38195062952975      -47.57437813783447      -31.78080031886694
C           -1.84122251435591      -48.67554206497616      -32.55615833136750
C           -1.16264659390996      -49.76265106384720      -32.02439159354719
H           -1.08725686337019      -49.81830180954875      -30.94692991003277
C            0.42828767667082      -52.40333467052598      -35.73362918151480
H            1.09266991228729      -53.25015241924541      -35.82602211251482
C           -2.08569834087730      -49.66151357035880      -38.78777417704202
H           -2.37869640809690      -49.72733724804178      -39.81922603058423
C           -3.13732508401228      -46.70162544579829      -35.16513015024908
H           -3.56042481369357      -45.72190916733125      -35.05196077163834
C            1.68681048605809      -53.70083377034872      -33.22036790779134
H            1.96029330135263      -53.93733494630776      -32.19495775183459
H            2.60025318855761      -53.51180009594128      -33.78465383844136
H            1.20074933724836      -54.57574608636114      -33.65176746464666
C            0.64987055188477      -51.99178063512485      -30.75981521303364
H            0.03237127950197      -52.78624331414618      -30.33639785658162
H            0.48610291818517      -51.08928813978203      -30.17765822477509
H            1.69269297974640      -52.28462767209390      -30.64244665953571
C            1.18684506737716      -53.46511334783865      -38.55401253192797
H            0.65373423215229      -54.41826492517995      -38.57531684130560
H            1.98646486383684      -53.54428315689329      -37.82153153655310
H            1.63985541781633      -53.31250372188150      -39.53121849028222
C           -0.49071024491393      -51.74924762982277      -40.55042140620412
H           -0.10194910937676      -52.70636672596810      -40.91416690624786
C           -0.98786576761160      -50.89238362783760      -41.45422969094726
H           -1.23155651470823      -49.88120076450074      -41.18101142712518
H           -1.15612112886704      -51.16827755365938      -42.49941940499708
C           -3.68372086273670      -47.33930705600400      -40.12318213914217
H           -3.80274763311151      -48.29677949959878      -40.62584461964396
H           -2.88516018397175      -46.79444584589531      -40.63389995631564
H           -4.60361570487310      -46.77182221476254      -40.25323804244869
C           -4.34913428215234      -45.37366994296720      -37.75995949518125
H           -4.38366562922508      -44.93662194001219      -38.76613393485427
C           -4.88207595108604      -44.66275303509990      -36.75285108671983
H           -5.20252742982112      -43.62298171773468      -36.85842903234513
H           -5.03552660313211      -45.10505155956654      -35.78521966544543
C           -3.63700763846256      -45.41571939933978      -32.41690324670790
H           -4.66449276206904      -45.46099372117845      -32.78090232460176
H           -3.14368135265469      -44.58036680914029      -32.91541392322290
H           -3.67158841544764      -45.20400349325871      -31.35054595093451
C           -2.31303201950493      -47.45811934813639      -30.29373009520473
H           -3.07206607831727      -48.08330173399295      -29.82068981894167
H           -2.47717882782402      -46.42996452211904      -29.97882570130614
H           -1.33860160927108      -47.77279289215583      -29.92198797679334
C            0.91437325687258      -46.52186427669002      -34.59291316101811
H            0.59581036437637      -45.48664881719983      -34.66116594114990
H            1.90976575919766      -46.54726509663123      -34.15681604306792
H            0.22439540013808      -47.05826987935843      -33.94527751005962
C            0.91849342181337      -47.14910442042432      -35.97319025194277
H            1.72426336342913      -46.75369471188201      -36.59348099406125
H           -0.03802557935158      -46.99522192010455      -36.47476113416723
S            1.09430308467067      -48.96245122168965      -35.91267824440714
C            2.34841993445164      -49.13176648101928      -34.59774937233260
H            1.92849577473473      -48.88289742166645      -33.62914833016615
H            3.19348794114742      -48.49246490846483      -34.83577736059922
H            2.66439891359919      -50.16968199860661      -34.59898612310436
C           -5.24566612927239      -54.99061600835901      -38.48024272563422
H           -5.39525040737366      -55.91548332413505      -37.92773299371192
H           -4.51000238833014      -55.18331008694301      -39.26096642542039
H           -6.18048740069482      -54.71170211866367      -38.95879713794623
C           -4.76037871612654      -53.90018664197406      -37.57277784852653
C           -3.84406686797995      -54.17695324354673      -36.56574990205697
H           -3.49103508114606      -55.18910436582090      -36.42943697051712
C           -3.37403043967827      -53.17676710973718      -35.73642822393012
H           -2.65940226853850      -53.40433461540950      -34.95663422905693
C           -3.80414252893600      -51.86746097935217      -35.91111194563054
O           -3.34890274849588      -50.86016385179833      -35.09008768008044
H           -2.78786512404658      -51.26613740881618      -34.40190091079956
C           -5.19662459026728      -52.58990231481304      -37.72403545297827
H           -5.91436980788442      -52.35664373832488      -38.49723894352834
C           -4.72872365936363      -51.57732952732475      -36.90628895800573
H           -5.06732477400733      -50.56119107439835      -37.03017320920676
91
 energy: -130.347357036079 gnorm: 0.029004295903 xtb: 6.7.1 (edcfbbe)
Fe          -1.48153709515350      -49.63902115328915      -35.44539524049282
N           -0.60979797009013      -50.89479139360770      -34.11690292044833
N           -0.94840011201882      -50.81634165467970      -36.98653407640403
N           -2.43769862593552      -48.39758295549646      -36.72813999900404
N           -2.02069314592749      -48.47266825505370      -33.89274786248080
C           -0.54167734222092      -50.76848193762874      -32.76217581311973
C            0.30906963168060      -51.79188443273021      -32.20706713675652
C            0.76116191594566      -52.52965572241963      -33.26231235018653
C            0.17943369694756      -51.95253736870414      -34.44982382906562
C           -0.08537890048756      -51.86486588745348      -36.91087014057420
C            0.23321940235675      -52.34618663738287      -38.22667745286640
C           -0.48088958072036      -51.57330472389226      -39.11616348246756
C           -1.22040894247143      -50.62242253583853      -38.29903108038300
C           -2.62184069666188      -48.60359399512794      -38.05782631004784
C           -3.37534277233446      -47.52436656911584      -38.64414746017691