91
 energy: -130.371195651723 gnorm: 0.000034284714 xtb: 6.7.1 (edcfbbe)
Fe          -1.56947811642192      -49.41681176088690      -35.53922567929947
N           -0.68939563259926      -50.69428259188789      -34.24939439163160
N           -1.05868637840517      -50.61917458668649      -37.06392548994984
N           -2.54877711549590      -48.22518060269122      -36.79027598515762
N           -2.11153896166053      -48.26413922808762      -34.00021772655556
C           -0.63256601281948      -50.58420345167779      -32.89344259105568
C            0.05519011905135      -51.71615598043391      -32.31663924713261
C            0.40265567574150      -52.52223898273995      -33.35661204610690
C           -0.07543071883418      -51.87171047127730      -34.55473913524819
C           -0.41753762733331      -51.81568036794179      -36.98277510784835
C           -0.26520178703747      -52.40098794815591      -38.28776959981119
C           -0.78832970014458      -51.50352959560566      -39.17779223064693
C           -1.30173109168084      -50.40650476827149      -38.38257235243812
C           -2.63869897077590      -48.36528759642041      -38.13932136578084
C           -3.45197535477149      -47.32029536194416      -38.70676772601708
C           -3.86810728881707      -46.54356900487601      -37.66105157946048
C           -3.26401427681665      -47.11811783227873      -36.47405234572797
C           -2.78831360219332      -47.08745064853764      -34.07196024352044
C           -2.92380995253591      -46.49471643590726      -32.76011434492426
C           -2.33637407451689      -47.35724395637654      -31.88819223144009
C           -1.83631427284712      -48.45664054914486      -32.68204425391616
C           -1.16155977114156      -49.54214753343680      -32.15294386085351
H           -1.02809197081107      -49.57404661566949      -31.08278794164148
C            0.05080585832120      -52.40372267482452      -35.82158598086689
H            0.54442651780941      -53.35837423718821      -35.91330122654409
C           -2.04900592800953      -49.36410987282157      -38.89192001465304
H           -2.22032653470390      -49.35076170365832      -39.95654498800755
C           -3.33202743708280      -46.54499868045051      -35.21904797028610
H           -3.85395096043469      -45.60550510017487      -35.12961226640437
C            1.12000569166120      -53.82768249757722      -33.34113143108285
H            1.38774280474626      -54.11029789722656      -32.32596206746319
H            2.03291485698703      -53.77094924667580      -33.93434728340053
H            0.49249758237022      -54.61349762668796      -33.76251767561448
C            0.29416230807936      -51.89831886630184      -30.85722223655274
H           -0.65067024703523      -51.93805278439291      -30.31423312652563
H            0.87779046791801      -51.06846885335236      -30.45773679924563
H            0.83677281986475      -52.82095407116466      -30.66702656881083
C            0.37829976834837      -53.71532034395442      -38.56229509580520
H           -0.10546794886093      -54.50123011166266      -37.98200573365407
H            1.43438232013378      -53.69470649390163      -38.29023495252650
H            0.30582170738918      -53.96335339057143      -39.61823530889929
C           -0.82891078326800      -51.63084530562833      -40.62014892209559
H           -1.02168090868359      -52.63186942006753      -40.99141813537112
C           -0.61044326933760      -50.65061201897999      -41.48891049907323
H           -0.35991156599279      -49.65269230097574      -41.17135712231130
H           -0.64935218399457      -50.82000089732259      -42.55221315992187
C           -3.78369746275614      -47.18678113893768      -40.15223713243424
H           -4.34359196323437      -48.05545221263401      -40.49999587412657
H           -2.87405947275086      -47.11272468414890      -40.74854915767648
H           -4.38814850819807      -46.30008181988670      -40.32536659846715
C           -4.74266204875973      -45.39025431948610      -37.72461407900852
H           -4.60031406537659      -44.74846900500864      -38.58745060501862
C           -5.70106296266086      -45.09855187028722      -36.85291762626133
H           -6.32100987261575      -44.22482266939341      -36.96771218472264
H           -5.91912421570397      -45.73373928632626      -36.01120349781296
C           -3.60281790790865      -45.19624813896373      -32.49301615044192
H           -4.65741419099669      -45.25373057584135      -32.76327038362013
H           -3.14827691153018      -44.39812524191341      -33.07990878483604
H           -3.53325257892448      -44.93203754897053      -31.44066432798800
C           -2.19193826270445      -47.25585909402239      -30.40866946940048
H           -2.68054283157802      -48.09706417922136      -29.91631434145671
H           -2.64077030913326      -46.33722940494081      -30.03957704904692
H           -1.13930586874874      -47.26255606601388      -30.12403685465881
C            1.34109205626711      -47.42296959766904      -33.51338258649630
H            1.39409792350353      -46.60741275703439      -32.79454017165686
H            2.33868394250940      -47.83971856974495      -33.62862866973503
H            0.68013198166556      -48.18830760485851      -33.11642977834064
C            0.80692147417448      -46.89911580727396      -34.83075997026024
H            1.53543655799366      -46.25482209951019      -35.32515991519436
H           -0.11745564717448      -46.34292690757339      -34.68106856808858
S            0.34006425896915      -48.19280305382507      -36.04767626811171
C            1.80347768523515      -49.26866019827589      -35.95316343127394
H            1.82807897588766      -49.78989540773246      -35.00253868159317
H            2.69662546312821      -48.66859517941422      -36.09991703910080
H            1.69967179975552      -49.98764121174673      -36.75870310142257
C           -3.39500337230385      -55.34046725699287      -38.24540315784010
H           -3.03082661279998      -56.19808115856581      -37.68536097831328
H           -2.74101782992452      -55.17779112584630      -39.10075489574310
H           -4.38869609125539      -55.57299015251103      -38.62681146010148
C           -3.43799588882250      -54.11312820483165      -37.38573210137747
C           -3.09914322532307      -54.15938109651643      -36.04209003722060
H           -2.80838410427457      -55.09907650231770      -35.59455832528425
C           -3.11243686944840      -53.01494612454893      -35.26272717969931
H           -2.82127177079077      -53.06221730349131      -34.22193760109109
C           -3.46503833940057      -51.80085187650257      -35.83027782362924
O           -3.43596334525944      -50.62689057252872      -35.11349544895820
H           -3.22614886527038      -50.82894880326545      -34.18958815894189
C           -3.82102125091551      -52.89165643850088      -37.93170184070093
H           -4.09237019319079      -52.83918375063581      -38.97579771890097
C           -3.84543742098652      -51.74551515850003      -37.16580367110637
H           -4.11886991174878      -50.79083855741679      -37.58486126140785
