87
 energy: -124.720519419895 gnorm: 0.000195768218 xtb: 6.7.1 (edcfbbe)
Fe         -34.00838111734066       -2.31428174332641        2.59226215861933
N          -33.82637172217547       -2.06789426994662        0.61926104898822
N          -35.45477139270438       -0.92877614769555        2.62969167746304
N          -34.19443559437251       -2.55416901994026        4.57761885215792
N          -32.62336979124297       -3.76317004691563        2.54598609977191
C          -32.96988925965130       -2.72189111419759       -0.20699229111082
C          -33.08899922104104       -2.22776060309960       -1.56239646278605
C          -34.04464412063204       -1.26239593302112       -1.53307189034099
C          -34.49523477045985       -1.18076957294159       -0.16032926505329
C          -35.95005854588405       -0.23543451669136        1.57117262846464
C          -37.01735407581280        0.64556017945158        1.99082405631337
C          -37.15253575225594        0.46803349411841        3.33256609911902
C          -36.16701041299648       -0.51946923356130        3.71182896864843
C          -35.05060743642925       -1.90141965278473        5.40361951882229
C          -34.86374144402867       -2.32797071648131        6.77659352479487
C          -33.88898589376910       -3.29008904922014        6.74363049401063
C          -33.49781826897063       -3.42141689507527        5.36375691204744
C          -32.17414764932236       -4.49792914511008        3.59583080323028
C          -31.18759943577138       -5.46658351237464        3.15809477053178
C          -31.06890979376966       -5.29581239993639        1.80406452691523
C          -31.96967909609645       -4.22916501163605        1.44960556533282
C          -32.11212911902017       -3.73619593908681        0.16408659898776
H          -31.49997654992731       -4.17622611617731       -0.60809544350178
C          -35.49600266073892       -0.32952687199702        0.26837978383572
H          -35.96030113128948        0.30823713281159       -0.46845180534242
C          -35.97525108972908       -0.95153032386819        5.01020508987315
H          -36.59737746100490       -0.51230710220227        5.77481662755299
C          -32.55382310829980       -4.32922788530371        4.91356092496367
H          -32.07828238995722       -4.95595115767981        5.65250255994309
C          -32.28541034790744       -2.72758051538830       -2.71341805104013
H          -32.46317167120488       -3.79154850506801       -2.87301953446546
H          -31.22103469300194       -2.58716112965535       -2.52501909608562
H          -32.54461779269214       -2.19679913669411       -3.62625445835207
C          -34.57136452194315       -0.41773745391737       -2.64239066111254
H          -34.41723111962131        0.63895186643493       -2.42362407615096
H          -35.64097918093650       -0.58202419610329       -2.77834514217225
H          -34.06873014101056       -0.65058404478286       -3.57786595162415
C          -30.24510670558539       -6.07752071641956        0.84140706535284
H          -29.32240348677647       -5.54772724291160        0.59839606244631
H          -30.79169239870188       -6.24452253388873       -0.08549726644030
H          -29.98375914238512       -7.04257731217754        1.27105566356930
C          -30.52272961069745       -6.41458511958278        4.02405762266961
H          -31.10756392747172       -6.77216519573843        4.86401337821430
C          -29.27931397075378       -6.85907860463579        3.87216109769902
H          -28.63585307829911       -6.50446560300210        3.08610162705506
H          -28.85191921741119       -7.57913280081140        4.55020301385818
C          -33.36459248191054       -4.11348030694464        7.86790562337841
H          -32.40598192135459       -3.72856536705184        8.22054884542278
H          -33.21649026311100       -5.14607263338632        7.55477746925551
H          -34.06692590589230       -4.09973345284942        8.69888687337297
C          -35.60922098844522       -1.82078908884860        7.90711978750058
H          -36.63774775877565       -1.54480124943282        7.70463420332332
C          -35.13158675839178       -1.66416689100162        9.13748564187700
H          -34.10601055424173       -1.87538650355291        9.38588932244556
H          -35.74870856628094       -1.29091542814067        9.93794017448586
C          -38.09542004178686        1.12391067859718        4.28181285575835
H          -37.54752810036624        1.67555201080950        5.04633997008308
H          -38.71609296684670        0.37998872683687        4.78191521346153
H          -38.74806433797817        1.81986655225600        3.76035312107023
C          -37.77014775362466        1.54978459259785        1.07589309634636
H          -37.09597163243334        2.26506824012507        0.60387555662169
H          -38.53012446280669        2.10491025895676        1.62014675332260
H          -38.26132022914575        0.97865148961495        0.28753096253213
C          -37.21869280448952       -6.87645611885760        2.78802538110541
H          -37.21780599394237       -7.53795199080383        1.92172411307073
H          -38.24773602213081       -6.76280491056594        3.12903093213895
H          -36.63894521579832       -7.33987299881470        3.58008973711330
N          -37.15024112262345       -4.74537826033872        1.47387116091272
H          -37.95962559465868       -4.94770239260701        0.91030431549551
C          -36.62758576970436       -5.55816335052318        2.44561812261186
C          -36.38430670658347       -3.63311015708574        1.41431755516589
H          -36.55743097389798       -2.81932873909552        0.74101582682360
N          -35.40970303721260       -3.69216679270152        2.28828920000611
C          -35.54746527186154       -4.88307272945281        2.93741003506972
H          -34.86595936822851       -5.17415121184354        3.70917153202077
C          -33.45665567752606        1.83070200903657        3.13008064991984
H          -33.82995476215675        2.61494316307334        3.78571391953248
H          -34.27498000241203        1.47621342068690        2.51045470628297
H          -32.68943752663874        2.24815202743878        2.48226358551590
C          -32.88903514500645        0.69125926142339        3.95386156131626
H          -33.64288616456364        0.26805035043612        4.61566341563088
H          -32.03085339763314        1.02659061106322        4.53636430436424
S          -32.28662486833337       -0.65086834874296        2.84938584494422
C          -31.03845161665071       -1.35298717051175        3.97096940820593
H          -31.51085965754122       -1.67227679085180        4.89443881421873
H          -30.27283521312952       -0.60542946865582        4.16162691943482
H          -30.60442405278217       -2.20921962206314        3.46667006317691
