87
 energy: -124.150189660155 gnorm: 0.252718904681 xtb: 6.7.1 (edcfbbe)
Fe          16.50700000000000       35.16200000000000       34.35099999999999
N           16.75400000000000       36.74200000000000       33.20300000000000
N           18.26600000000000       34.47300000000000       33.80500000000000
N           16.25400000000000       33.55700000000000       35.49200000000000
N           14.70300000000000       35.80600000000000       34.89300000000000
C           15.93600000000000       37.87300000000000       33.15700000000000
C           16.50100000000000       38.86000000000000       32.24800000000000
C           17.64200000000000       38.31600000000000       31.72700000000000
C           17.77500000000000       37.00099999999999       32.31900000000000
C           19.10300000000000       34.99600000000000       32.82600000000000
C           20.31500000000000       34.25100000000000       32.73600000000000
C           20.29100000000000       33.25900000000000       33.69100000000000
C           18.98500000000000       33.44600000000000       34.33800000000000
C           17.18300000000000       32.62700000000000       35.81200000000000
C           16.60700000000000       31.54100000000000       36.56099999999999
C           15.25400000000000       31.82700000000000       36.70600000000000
C           15.08000000000000       33.11500000000000       36.08500000000000
C           13.74700000000000       35.10600000000000       35.60200000000000
C           12.58600000000000       35.92400000000000       35.80899999999999
C           12.83400000000000       37.10899999999999       35.21700000000000
C           14.14700000000000       37.02400000000000       34.64200000000000
C           14.73400000000000       38.01799999999999       33.86500000000000
H           14.22300000000000       38.97900000000000       33.80200000000000
C           18.84000000000000       36.16400000000000       32.11700000000000
H           19.54400000000000       36.43699999999999       31.33100000000000
C           18.49500000000000       32.57000000000000       35.31700000000000
H           19.16600000000000       31.80800000000000       35.71299999999999
C           13.92600000000000       33.85500000000000       36.14200000000000
H           13.07600000000000       33.41200000000000       36.66100000000000
C           18.62800000000000       38.93100000000000       30.74700000000000
H           18.29300000000000       39.95600000000000       30.47800000000000
H           18.67500000000000       38.31300000000000       29.82500000000000
H           19.63400000000000       38.99200000000000       31.21500000000000
C           15.90100000000000       40.23200000000000       31.98999999999999
H           16.18100000000000       40.92000000000000       32.81600000000000
H           14.79400000000000       40.15500000000000       31.94500000000000
H           16.29300000000000       40.63900000000000       31.03400000000000
C           21.41500000000000       34.52600000000000       31.69000000000000
H           21.91700000000000       35.48900000000000       31.92400000000000
H           20.96200000000000       34.59200000000000       30.67800000000000
H           22.17000000000000       33.71100000000000       31.71600000000000
C           21.27000000000000       32.28100000000000       34.04800000000000
H           21.03300000000000       31.20700000000000       34.04700000000000
C           22.60800000000000       32.71700000000000       34.42100000000000
H           22.86500000000000       33.78700000000000       34.42899999999999
H           23.37700000000000       31.98200000000000       34.69900000000000
C           17.33100000000000       30.30200000000000       37.11099999999999
H           18.12700000000000       30.62100000000000       37.81700000000000
H           17.79600000000000       29.73700000000000       36.27500000000000
H           16.60800000000000       29.65400000000000       37.65200000000000
C           14.17800000000000       31.03600000000000       37.21899999999999
H           13.34500000000000       30.74900000000000       36.56099999999999
C           14.14100000000000       30.59000000000000       38.59500000000000
H           14.95300000000000       30.85300000000000       39.28900000000000
H           13.30100000000000       29.98300000000000       38.96300000000000
C           11.31500000000000       35.49800000000000       36.52100000000000
H           11.51900000000000       35.38400000000000       37.60700000000000
H           10.96600000000000       34.52399999999999       36.11500000000000
H           10.52900000000000       36.27100000000000       36.38100000000000
C           11.87200000000000       38.30900000000000       35.20800000000000
H           11.38600000000000       38.40200000000000       36.20300000000000
H           11.08700000000000       38.15500000000000       34.43700000000000
H           12.43700000000000       39.24099999999999       34.99399999999999
C           15.55000000000000       31.57700000000000       30.14400000000000
H           15.73100000000000       31.98200000000000       29.12500000000000
H           14.60100000000000       31.00000000000000       30.13900000000000
H           16.39600000000000       30.91300000000000       30.42400000000000
N           14.49700000000000       33.69000000000000       31.01300000000000
H           13.80600000000000       33.73600000000000       30.29200000000000
C           15.45000000000000       32.70400000000000       31.11700000000000
C           14.64300000000000       34.55300000000000       32.00700000000000
H           14.01800000000000       35.43200000000000       32.16100000000000
N           15.66000000000000       34.15600000000000       32.75200000000000
C           16.18300000000000       32.99900000000000       32.21900000000000
H           17.02700000000000       32.49700000000000       32.67500000000000
C           15.75700000000000       37.04599999999999       37.97199999999999
H           15.48800000000000       36.85300000000000       39.03300000000000
H           14.89600000000000       36.76100000000000       37.33100000000000
H           15.97000000000000       38.13000000000000       37.85100000000000
C           16.98400000000000       36.23000000000000       37.58600000000000
H           16.75500000000000       35.15199999999999       37.71899999999999
H           17.82100000000000       36.49500000000000       38.26700000000000
S           17.44700000000000       36.53400000000000       35.93800000000000
C           19.18100000000000       36.42600000000000       35.99799999999999
H           19.51100000000000       35.42300000000000       36.34400000000000
H           19.58800000000000       37.18300000000000       36.70199999999999
H           19.61100000000000       36.60000000000000       34.98900000000000
87
 energy: -124.203975431772 gnorm: 0.108164295352 xtb: 6.7.1 (edcfbbe)
Fe          16.50895901762448       35.15641364419261       34.35139646884076
N           16.74085379479378       36.75192965941022       33.18779820089337
N           18.29072404032452       34.47015726809904       33.80794711307030
N           16.25872668474177       33.55007185872444       35.50950653709625
N           14.69134732662457       35.80744918427981       34.89145701374947
C           15.93967277311033       37.88129376836238       33.15852888749560
C           16.49401331254032       38.86217318537913       32.25501843042752
C           17.63766948401611       38.31548587419817       31.72606122762297
C           17.77052781646392       37.00602299031193       32.31591622838850
C           19.11066943016900       34.99122006404748       32.81779462842042
C           20.32647906558670       34.26089569556466       32.72777068858836
C           20.29445682035352       33.27177237320949       33.69819203327293
C           18.98832442606797       33.42601633032997       34.33629555853832
C           17.18878754300748       32.60413100409079       35.81532464183130
C           16.61432099583307       31.53492547006220       36.57971807113254
C           15.25823322602976       31.82436831722617       36.71272886114279
C           15.07653065489316       33.09818684532999       36.06768472118636
C           13.74207888050347       35.11142363254859       35.60350906932895
C           12.57486926473408       35.92119291417897       35.80619266180948
C           12.82859979000061       37.12821801618603       35.21747863530630
C           14.14325840268212       37.03674932338113       34.64043985408050
C           14.74412483224666       38.02698719452475       33.86735981541876
H           14.22728553454437       38.97380954335704       33.78917902045573
C           18.83968674019471       36.15661690498543       32.09981499096611
H           19.55265123691022       36.44192404745721       31.33795415608721
C           18.50350992289979       32.56957570082977       35.32615723903059
H           19.16380235093315       31.80280521055940       35.70363452990974
C           13.91372125852155       33.84238562324443       36.13247047392897
H           13.07650912339339       33.40964909602019       36.66490040414815
C           18.61308374178606       38.92358085889698       30.75793042671484
H           18.29870724738011       39.93536534194660       30.48411925067715
H           18.67687414981389       38.32202196751475       29.84355366420897
H           19.61251885331813       38.98630558366487       31.20465961152601
C           15.90440570421887       40.21803270146027       31.99515181048750
H           16.17449806277074       40.90877282968506       32.80312392098081
H           14.81288155921377       40.15930459850343       31.94273987976169
H           16.28209343671622       40.62901407267501       31.05384601082329
C           21.40554082053299       34.52546389416734       31.70374260517783
H           21.90949987266184       35.47443540293997       31.91982311215133
H           20.97093682943206       34.58788925112718       30.69994948334933
H           22.15082102877492       33.72457535734384       31.72156209576473
C           21.30427840798134       32.30983779530433       34.06051611664592
H           21.05270031714939       31.24826410142230       34.07347264659569
C           22.57091566227255       32.70127561634580       34.39404731295818
H           22.83704300139953       33.75271893503054       34.42269682209856
H           23.33455775789993       31.98798015983254       34.68418073095076
C           17.32751773780684       30.31774182142174       37.10590750505657
H           18.11749571220105       30.61629886713444       37.80446165416663
H           17.78708397803592       29.74889279300223       36.28939985506659
H           16.61913771246217       29.67226172291736       37.63471036920720
C           14.18659109734021       31.02879111054076       37.26389152906835
H           13.35799293118761       30.76778185957050       36.60276053151388
C           14.15134948771502       30.59178687140193       38.55317681223935
H           14.93500490289614       30.85583270907180       39.25474340321644
H           13.32236939547902       30.00341024339384       38.93127830357134
C           11.32536467068194       35.49696159805114       36.51790814898657
H           11.51522051734861       35.38107699852230       37.59151634104408
H           10.96855038859122       34.53929304497940       36.12450399244359
H           10.54391082546854       36.25030072875532       36.38341494148109
C           11.88752872366507       38.30610162541794       35.20482158058505
H           11.40056512946821       38.40079605489353       36.18142488456282
H           11.10711951205306       38.16159486829850       34.44832832190495
H           12.42560338285547       39.23269392125611       34.99388381755568
C           15.54787066916815       31.57948835873655       30.14208086982406
H           15.72722415013884       31.96846262525649       29.13335299574345
H           14.61784602109001       31.00088542858269       30.13241953860535
H           16.37729798096962       30.92299635783927       30.41780254729095
N           14.49588534442554       33.68175095962582       31.00499031457032
H           13.79974221445792       33.73124651827273       30.28099615265940
C           15.44576598442372       32.69974697089912       31.11179925043258
C           14.65507567360058       34.54672237252188       32.01293742147630
H           14.03846835633405       35.41744716268241       32.16775818431007
N           15.66678805091291       34.16349248068944       32.76472151734527
C           16.17261659189376       33.01040979453435       32.22161641841203
H           17.00978439704020       32.50843753980344       32.67078538963774
C           15.75467603695907       37.04487162778103       37.97830077184115
H           15.48636437598951       36.85803067749075       39.02177890453221
H           14.90541535526028       36.77277808529581       37.34553594198280
H           15.96047135173591       38.11308815893693       37.85353502130523
C           16.97834927728110       36.22102282584496       37.60375400735588
H           16.76087902043036       35.15057252558787       37.72407207418463
H           17.81709622756826       36.48630873655594       38.26257512789264
S           17.43588566545960       36.57302395894364       35.92515765996644
C           19.19646073861019       36.41906307820191       36.00363671925130
H           19.51237327300783       35.42375775795383       36.33979787601431
H           19.59225601729640       37.17551453481251       36.69226168542518
H           19.60725091762306       36.59957541656934       35.00485595522947
87
 energy: -124.214370940626 gnorm: 0.046083030316 xtb: 6.7.1 (edcfbbe)
Fe          16.50208793485342       35.15019071163975       34.34571129573713
N           16.72801144019831       36.75887424251569       33.16917115278500
N           18.30717365012091       34.47157665770533       33.80836161309141
N           16.26435782765815       33.54323661164016       35.51889873599655
N           14.67989421166717       35.80827072768513       34.89057297974185
C           15.94049630240419       37.88488674082061       33.15537419568913
C           16.48783428922235       38.86341409272256       32.26135694491474
C           17.63318634728727       38.31239871486373       31.72442667360583
C           17.76382518570597       37.00756396117752       32.30828422333164
C           19.11316734493757       34.99152884538507       32.81413005668594
C           20.33082068078071       34.26715490536380       32.72210195085759
C           20.28549238918892       33.28250669766642       33.70133194278378
C           18.99403803912603       33.42039416616086       34.34011810262403
C           17.19703326493367       32.58776621373320       35.81905318341354
C           16.61984270661522       31.53142175287725       36.58886479406492
C           15.26435567912340       31.82790310710961       36.70553301676772
C           15.07881504399489       33.09128517528894       36.05437569387566
C           13.73753613558447       35.11426085967607       35.59974568919268
C           12.56990220073444       35.91861390755349       35.80260702675784
C           12.82839446488505       37.14233318155128       35.21880662210781
C           14.13906954980142       37.04678879390119       34.64047798881855
C           14.75032831183036       38.03315384946696       33.86861217732315
H           14.22911606071285       38.97133677135034       33.77457058842425
C           18.83569826369376       36.15026883459466       32.08444479320298
H           19.56044702639433       36.44745294382060       31.34433268190904
C           18.51361111976697       32.57466567943737       35.33670295517166
H           19.16477382333602       31.79340356171100       35.69072555279499
C           13.90432592940007       33.83156364175895       36.11790929342315
H           13.07640488251328       33.40242605288338       36.65895046158197
C           18.59858796866656       38.91633065573937       30.76617059612717
H           18.29239685161441       39.92101201120029       30.49218186940569
H           18.67110300336335       38.31916756853061       29.85800682146065
H           19.59327619410049       38.97536450661179       31.20648826691279
C           15.90614899009377       40.20741522448206       32.00025217529192
H           16.17003232954510       40.89863361639239       32.80068392919996
H           14.82208187789941       40.15773822552922       31.94169122901675
H           16.28088116856618       40.61595286364305       31.06637295407993
C           21.39984356838809       34.52285798435634       31.72012696381555
H           21.90657462015998       35.46544252600516       31.92420825901978
H           20.97516499029686       34.58294181479732       30.71940086612031
H           22.13759461481022       33.72667132170002       31.73804235876204
C           21.32062778176828       32.33290086879438       34.07086409097428
H           21.04496700126826       31.28269076565147       34.09834271903221
C           22.53753989618344       32.69679593777029       34.39528235700984
H           22.82981212506076       33.73411349045492       34.40100073619482
H           23.30553336034511       31.99062846157960       34.65881078692688
C           17.32400582872760       30.33114888979183       37.10352659138124
H           18.11384342533040       30.61593962761155       37.79761792248811
H           17.78140789239006       29.76528761573134       36.29325235314503
H           16.62252789925958       29.68459147834555       37.62277910792405
C           14.19484655414839       31.03393282011485       37.29288022867451
H           13.36998645883951       30.79962323059114       36.62470834180491
C           14.15817868397057       30.61268191643354       38.53373319060567
H           14.93980822752065       30.84553186516585       39.23696996989563
H           13.34916293129080       30.01028640852319       38.90980681299402
C           11.33504050485702       35.49597057945702       36.51361770824339
H           11.52195751055626       35.37666672113308       37.58029516661659
H           10.97502448620598       34.54465540660514       36.12874985026948
H           10.55366498103790       36.23803047025375       36.38466036401454
C           11.90487827475186       38.30668457578440       35.20039364650168
H           11.41482623228044       38.40357644832212       36.16683879069063
H           11.12709886662259       38.16749308823498       34.44944134450887
H           12.42831221307167       39.23139054473950       34.98771001382980
C           15.54580261842208       31.57881559517062       30.14081518228863
H           15.72364868255684       31.95993569334657       29.13732868734132
H           14.62581036213055       30.99838268299163       30.12720435485663
H           16.36691358368580       30.92707566029435       30.41606806424547
N           14.49361198453038       33.67710020600676       30.99988519601705
H           13.79393453793785       33.73145191159655       30.27573775507888
C           15.44085939104558       32.69551652780105       31.10821078392871
C           14.66465434691275       34.54150392816749       32.01630950973782
H           14.05664725863233       35.40879292976145       32.17468918578007
N           15.67168735822531       34.16491219032501       32.77095692054257
C           16.16393837628408       33.01552192387842       32.22188019989527
H           16.99583634294673       32.50859163005295       32.66440111200787
C           15.74781759796620       37.04061543035760       37.99359656655319
H           15.47768140867475       36.85916263203850       39.02807984029048
H           14.90743135045626       36.77659800878345       37.36052469634199
H           15.95691575009515       38.09872494394293       37.86366427725363
C           16.97001887660759       36.21529290006476       37.62282144594683
H           16.76478110799899       35.14796725807242       37.71616768444323
H           17.81422596078680       36.47858015692474       38.26101909888867
S           17.43047681814952       36.61337823028231       35.91767013126445
C           19.21614791070003       36.41435644463306       36.00772675471886
H           19.49995379219531       35.41785463239504       36.33646571876927
H           19.60492420234661       37.16553524566500       36.69140187905933
H           19.61150296124960       36.59654230530871       35.01291418513628
87
 energy: -124.216703259645 gnorm: 0.014521709447 xtb: 6.7.1 (edcfbbe)
Fe          16.49757085118821       35.15250972162223       34.34377017434136
N           16.71663363798977       36.75514492120394       33.15476056613982
N           18.30658614352333       34.47948640378377       33.80924792785790
N           16.26914081208629       33.54854757312337       35.52101735823867
N           14.67617699841434       35.80904656888305       34.88415423428275
C           15.93542816342461       37.88275610805570       33.14909329754109
C           16.48189399494618       38.86158717504372       32.25961287427945
C           17.62495145052533       38.30759342919096       31.71928958651148
C           17.75367914819222       37.00289532230160       32.29695214323981
C           19.10816184143778       34.99532802209110       32.81287681597506
C           20.32776159202522       34.27244005527321       32.72570190228793
C           20.27743077392565       33.29430628266390       33.70920535087041
C           18.99374486131376       33.43012544741521       34.34601758238210
C           17.20245904323377       32.59212590830273       35.82318985471360
C           16.62345608857714       31.53892276432458       36.59135823875081
C           15.26973643875779       31.83912627910579       36.70203715664827
C           15.08235110922072       33.09633399803550       36.04708210957570
C           13.73426069483154       35.11356806000945       35.58834692195055
C           12.56993339153013       35.91848711644019       35.79582152647056
C           12.83130345044689       37.14638830986535       35.21634099692787
C           14.13778300118179       37.05025248520708       34.63782607865920
C           14.74925368612950       38.03552494503244       33.86611452211990
H           14.22704648450612       38.97238373797329       33.76297931466167
C           18.82846477197208       36.14771675297098       32.07551159896285
H           19.56282377303688       36.45224816783619       31.34696336163686
C           18.51723583764139       32.58249182498773       35.34194277223126
H           19.16605602918303       31.79124991419199       35.68181585640205
C           13.90069097858282       33.82789476660123       36.10100852531740
H           13.07472276810834       33.39475959486811       36.64175624975979
C           18.59012820377107       38.91091222554208       30.76533560789273
H           18.28499099875352       39.91587279595512       30.49228171767554
H           18.66456377455386       38.31232266737110       29.85840288167450
H           19.58321522015947       38.96645092679397       31.20929183083953
C           15.90403962044737       40.20559642539427       32.00200237953258
H           16.16581032854589       40.89471722813747       32.80495589562009
H           14.81986814200619       40.15823495869932       31.93914964367249
H           16.28288254373186       40.61370604393418       31.06991330526884
C           21.40157828714596       34.52074536969646       31.73047016739598
H           21.91017918256215       35.46335682933133       31.93165226779676
H           20.98307759201323       34.57621322846055       30.72659950162282
H           22.13584800099301       33.72156382546031       31.75914398840910
C           21.30671020696642       32.34007083732750       34.07943929331640
H           21.00906960940224       31.29670792945696       34.13329277193785
C           22.55605616458331       32.69415842819866       34.35830769909483
H           22.85329473667316       33.72989121712429       34.37908663467744
H           23.30427623273964       31.98060069117394       34.65433112988282
C           17.32571625138112       30.33720031346673       37.10174675249075
H           18.11671445725393       30.61698045279287       37.79705118931154
H           17.78312534041997       29.77601249767094       36.28798239326091
H           16.62295892785202       29.68824286547900       37.61605713508600
C           14.20048166676043       31.04873653139944       37.29194897704134
H           13.36407903161656       30.84329908953374       36.62885764784591
C           14.18471068064731       30.59025313998830       38.53599805323029
H           14.96129316896547       30.83065198181816       39.24214669300709
H           13.35886945383209       30.01531228881923       38.91735997218536
C           11.33983359031786       35.49325243168889       36.51076465276088
H           11.53277972153585       35.37070440596926       37.57633727193183
H           10.97954633047512       34.54095066830268       36.12741851133856
H           10.55537223098657       36.23304528372081       36.38736878533653
C           11.91575592875103       38.31527527544250       35.19476170744721
H           11.42318730076980       38.41659432975558       36.15947906947468
H           11.14002911637046       38.17890850620261       34.44081856205630
H           12.44258704356880       39.23829930627787       34.97998878668918
C           15.54119112497840       31.57562346076438       30.14010895174617
H           15.72030995596199       31.95457285927266       29.13572051515976
H           14.62280275243232       30.99223002980501       30.12345079294664
H           16.36217057547285       30.92403739552173       30.41684511373191
N           14.49181109932920       33.67693230494239       31.00018709178802
H           13.79154033727308       33.73502836498735       30.27656821994452
C           15.43598867758564       32.69191600805206       31.10818675460852
C           14.66853511534251       34.53993409474994       32.01768111143971
H           14.06673578739067       35.41038492986647       32.17894576158844
N           15.67394625027173       34.16050860865254       32.77246327480187
C           16.15973463725754       33.00995189419111       32.22215806589254
H           16.98908662389590       32.49733510905212       32.66209242407927
C           15.74199594595727       37.03392330543566       38.01231063728952
H           15.47042430269659       36.84879600365468       39.04632056353807
H           14.90013554649537       36.77499442916547       37.37863997637024
H           15.95092265505233       38.09267541947651       37.88775360939051
C           16.96426009264793       36.21400751778454       37.63275501169314
H           16.76393958241022       35.14410016372068       37.70397580298037
H           17.81171631991012       36.46915846310706       38.26841303956191
S           17.43047065679976       36.63723787697946       35.92328030665728
C           19.22251532942537       36.41076619175714       36.01305892287194
H           19.48276498591154       35.40524234465502       36.33406891213671
H           19.62242957856608       37.15106773828143       36.70107657229844
H           19.61720516444977       36.59249283333258       35.01840079194320
87
 energy: -124.218136050323 gnorm: 0.020483159612 xtb: 6.7.1 (edcfbbe)
Fe          16.49036080565996       35.15474673020705       34.33882026777830
N           16.70262796017034       36.74973645626051       33.13702630729954
N           18.30249967952958       34.48905085658793       33.80811754184911
N           16.27209326200033       33.55670785171277       35.52104812392358
N           14.67235922144295       35.80915902291177       34.87334613059664
C           15.92776530612027       37.87871571657134       33.13838404833648
C           16.47448116910914       38.85928354007161       32.25438506808585
C           17.61439723702529       38.30116610132088       31.70939479865127
C           17.74065543432609       36.99666655616254       32.28155393407856
C           19.10290883126157       35.00170094803673       32.81324127349762
C           20.32756125468392       34.28305849852360       32.73546279460508
C           20.27186261364567       33.31180675001102       33.72499144694635
C           18.99046838221236       33.44145405283963       34.35105926959270
C           17.20664709983158       32.59985854936650       35.82950087809489
C           16.62711962704435       31.55275710919374       36.60041125592421
C           15.27333241179043       31.85615484978587       36.70272664367459
C           15.08508550791646       33.10466441932422       36.03711447476353
C           13.72947664112831       35.11304906135386       35.57131699057467
C           12.56935721391606       35.91893105633978       35.78575320762049
C           12.83490526336751       37.15125897532961       35.21214111005184
C           14.13572991612792       37.05360605409904       34.63262105690321
C           14.74553182176803       38.03682559899421       33.85918716252228
H           14.22475490900333       38.97380896399042       33.74891683244280
C           18.82020147939836       36.14564077995450       32.06570672960898
H           19.56226185681135       36.45566889714825       31.34728568389001
C           18.51814619332811       32.59231184811257       35.34694390074245
H           19.16691967997275       31.79572135064992       35.67579945567153
C           13.89487707268416       33.82448901364734       36.07663259769500
H           13.06959192075748       33.38418341731385       36.61228520171080
C           18.58074255150415       38.90477528619262       30.75899654622740
H           18.27632918129364       39.91039752807948       30.48557745967067