77
 energy: -118.898152832392 gnorm: 0.336781993539 xtb: 6.7.1 (edcfbbe)
Fe          17.09700000000000      -31.03500000000000       -3.41300000000000
N           16.09500000000000      -32.34600000000000       -2.22800000000000
N           17.12100000000000      -29.68000000000000       -1.87600000000000
N           18.03900000000000      -29.63000000000000       -4.58700000000000
N           17.10800000000000      -32.37800000000000       -4.97000000000000
C           15.71800000000000      -33.61800000000000       -2.59600000000000
C           15.11000000000000      -34.27800000000000       -1.46600000000000
C           15.11600000000000      -33.41000000000000       -0.45300000000000
C           15.72700000000000      -32.17700000000000       -0.91300000000000
C           16.58200000000000      -29.90500000000000       -0.63200000000000
C           16.74700000000000      -28.69500000000000        0.16900000000000
C           17.36000000000000      -27.78400000000000       -0.60100000000000
C           17.60100000000000      -28.37900000000000       -1.89600000000000
C           18.31800000000000      -28.32200000000000       -4.24400000000000
C           18.79300000000000      -27.62700000000000       -5.43300000000000
C           18.79799999999999      -28.50400000000000       -6.46000000000000
C           18.34700000000000      -29.78700000000000       -5.91900000000000
C           17.56800000000000      -32.09400000000000       -6.24100000000000
C           17.24800000000000      -33.20700000000000       -7.11500000000000
C           16.50700000000000      -34.22200000000000       -6.25500000000000
C           16.47800000000000      -33.62200000000000       -4.93000000000000
C           15.88700000000000      -34.19400000000000       -3.82700000000000
H           15.51500000000000      -35.21100000000000       -3.94500000000000
C           15.95100000000000      -31.04400000000000       -0.18000000000000
H           15.60000000000000      -31.04200000000000        0.85200000000000
C           18.17600000000000      -27.76700000000000       -2.98400000000000
H           18.55399999999999      -26.75500000000000       -2.84200000000000
C           18.21400000000000      -30.95800000000000       -6.63700000000000
H           18.67299999999999      -30.97800000000000       -7.62500000000000
C           14.57900000000000      -33.60900000000000        0.96500000000000
H           14.15400000000000      -34.63100000000000        1.06100000000000
H           13.78000000000000      -32.86600000000000        1.17100000000000
H           15.40500000000000      -33.49200000000000        1.69900000000000
C           14.60200000000000      -35.73300000000000       -1.50200000000000
H           15.31600000000000      -36.36100000000000       -2.07700000000000
H           13.60800000000000      -35.77100000000000       -1.99700000000000
H           14.52600000000000      -36.13000000000000       -0.46700000000000
C           16.28100000000000      -28.55600000000000        1.64700000000000
H           16.32900000000000      -29.54800000000000        2.14600000000000
H           15.23300000000000      -28.18800000000000        1.67700000000000
H           16.94800000000000      -27.84900000000000        2.18600000000000
C           17.74400000000000      -26.36000000000000       -0.19300000000000
H           18.72200000000000      -25.93100000000000       -0.45700000000000
C           16.85900000000000      -25.61600000000000        0.50700000000000
H           15.87600000000000      -26.02800000000000        0.78000000000000
H           17.11100000000000      -24.59000000000000        0.81200000000000
C           19.20300000000000      -26.14800000000000       -5.40500000000000
H           19.59700000000000      -25.89100000000000       -4.39800000000000
H           18.32000000000000      -25.51000000000000       -5.62000000000000
H           19.99700000000000      -25.96400000000000       -6.16000000000000
C           19.19800000000000      -28.34200000000000       -7.95100000000000
H           19.28700000000000      -29.22500000000000       -8.60000000000000
C           19.44000000000000      -27.15000000000000       -8.47600000000000
H           19.36199999999999      -26.24200000000000       -7.86000000000000
H           19.72200000000000      -27.05300000000000       -9.53500000000000
C           17.56700000000000      -33.35100000000000       -8.60600000000000
H           18.66100000000000      -33.48800000000000       -8.74000000000000
H           17.25000000000000      -32.43500000000000       -9.14800000000000
H           17.04000000000000      -34.23800000000000       -9.01900000000000
C           15.92200000000000      -35.57800000000000       -6.72800000000000
H           16.53200000000000      -35.97200000000000       -7.56900000000000
H           14.87700000000000      -35.43500000000000       -7.07700000000000
H           15.94600000000000      -36.30899999999999       -5.89200000000000
C           22.57800000000000      -32.19400000000000       -2.66700000000000
H           22.87200000000000      -33.20700000000000       -3.01500000000000
H           23.04200000000000      -32.00500000000000       -1.67500000000000
H           22.93500000000000      -31.44300000000000       -3.40300000000000
N           20.37200000000000      -32.95000000000000       -1.71100000000000
H           20.77900000000000      -33.63700000000000       -1.10900000000000
C           21.08700000000000      -32.11900000000000       -2.55100000000000
C           19.08100000000000      -32.68600000000000       -1.83600000000000
H           18.29200000000000      -33.18300000000000       -1.27200000000000
N           18.93200000000000      -31.73500000000000       -2.74600000000000
C           20.17200000000000      -31.37300000000000       -3.21700000000000
H           20.28600000000000      -30.61700000000000       -3.98300000000000
O           15.39600000000000      -29.78800000000000       -4.93500000000000
O           15.47900000000000      -30.36900000000000       -3.93300000000000
77
 energy: -118.963834061019 gnorm: 0.130548191173 xtb: 6.7.1 (edcfbbe)
Fe          17.06594074452425      -31.00925852499994       -3.42312987412152
N           16.10129115372345      -32.35307187623651       -2.23302284784680
N           17.12216773177460      -29.67517365984871       -1.86485659934418
N           18.03734770976246      -29.62681329619003       -4.59632099054502
N           17.09884579957325      -32.37784129622516       -4.96346818706585
C           15.72457866831988      -33.61706151235519       -2.59863339971828
C           15.11007734752802      -34.29024136556772       -1.46985922307187
C           15.11039741332972      -33.40977853940426       -0.44346553331090
C           15.73361451057823      -32.18757202522200       -0.92557245175186
C           16.58491416104220      -29.89041217588540       -0.62873214544971
C           16.74425714232150      -28.69288191688225        0.18400097622867
C           17.37288688217906      -27.76951098843268       -0.59265268854122
C           17.60599413446056      -28.38889702216377       -1.88650410212646
C           18.32088595638063      -28.33111630881403       -4.25924492371554
C           18.80501683505963      -27.62450453650024       -5.43766086541110
C           18.81630947856345      -28.51530806159220       -6.47429485803435
C           18.34482197674550      -29.78642621396876       -5.91878924931790
C           17.55843437532448      -32.12907549681380       -6.22916085146870
C           17.23143731759137      -33.24310350599545       -7.09417310991951
C           16.53569206507969      -34.19503175657219       -6.28356641007668
C           16.48495607594698      -33.60899049767103       -4.96066575958094
C           15.89425039412473      -34.19030693307678       -3.84339969914613
H           15.51584415412752      -35.20053395725998       -3.95819836334921
C           15.95603374020413      -31.04372506792705       -0.18447777244352
H           15.60004193595358      -31.04364398705871        0.84059390389013
C           18.17806135378460      -27.77772134180604       -2.98961594171185
H           18.53829915653895      -26.76306315975130       -2.84779217366081
C           18.21001189071142      -30.96883076506562       -6.63264120079943
H           18.64628114782776      -30.97886327382054       -7.62659830024911
C           14.58297880870652      -33.60716186551606        0.95574398536803
H           14.16007002734547      -34.61193882967520        1.06176501165251
H           13.79554087195503      -32.87616891934446        1.17028433244007
H           15.38961642881451      -33.48946069167528        1.68978291142250
C           14.60875215293684      -35.71871604405803       -1.50180258199238
H           15.30443210873999      -36.35100383207138       -2.06525702175100
H           13.62615660901159      -35.76819907830653       -1.98673063622495
H           14.52399783763943      -36.12107183973627       -0.48656514062253
C           16.28884979502834      -28.56136452612737        1.62882341867524
H           16.33084262927608      -29.53155414764493        2.13610217379925
H           15.25488824316042      -28.19708069432996        1.67342668970205
H           16.93461917313328      -27.85880371146812        2.16823448262757
C           17.72316388182070      -26.37296401126355       -0.19585453713574
H           18.69642558084787      -25.96088148994467       -0.46604039063091
C           16.86710426989391      -25.62653065099784        0.50182279659695
H           15.89105527288102      -26.01189179016898        0.77249754338211
H           17.10969355858982      -24.61167132399190        0.80509474915026
C           19.20179880344183      -26.16487946001850       -5.40153038832490
H           19.58826769667958      -25.89568621449131       -4.41256055970462
H           18.33699616556609      -25.52430437093312       -5.61811394939212
H           19.99035999452713      -25.96441690899891       -6.13320668461022
C           19.19580841264378      -28.33485770670996       -7.91661160612472
H           19.27472931753079      -29.21843621610245       -8.55115432505405
C           19.43649352158396      -27.15178161427487       -8.47029119331508
H           19.35318501494390      -26.24205944369230       -7.89528576288256
H           19.71663620687528      -27.05812219025037       -9.51621202973403
C           17.55737780587781      -33.35481813858063       -8.57057669949296
H           18.63855665368773      -33.48511580052655       -8.72806382837796
H           17.25078590310074      -32.45604019675102       -9.12362999541055
H           17.04689230151889      -34.21949589514244       -9.00834743706296
C           15.94577546647384      -35.53520100230050       -6.72098893194476
H           16.52500567061046      -35.95620431886024       -7.55196601486877
H           14.90631065988956      -35.42461961251505       -7.06356493168519
H           15.95090297996229      -36.27428933559649       -5.90736784239413
C           22.57740353047773      -32.19788051635011       -2.66591417289093
H           22.87821520670802      -33.19451113782733       -3.01012858562872
H           23.04364586905706      -32.00727606481684       -1.69172996151604
H           22.92981940851409      -31.45539801638454       -3.38754919465357
N           20.38740569952557      -32.94934146150767       -1.70825473722975
H           20.79254190617106      -33.63985826826388       -1.10124314558596
C           21.09460253553612      -32.12966317398487       -2.55447211632444
C           19.08418656222486      -32.67772910132929       -1.84685374666746
H           18.30250660062389      -33.16813567206843       -1.28884891172983
N           18.91819706638378      -31.73406244357036       -2.74944423862043
C           20.16121614271490      -31.38232774514323       -3.20659754701325
H           20.27750630192505      -30.62888878253741       -3.96494592556403
O           15.37205678574110      -29.76951781268134       -4.97509994564723
O           15.47293530662069      -30.38485886836201       -3.90487073534815
77
 energy: -118.982946059336 gnorm: 0.041486652874 xtb: 6.7.1 (edcfbbe)
Fe          17.02288252677335      -30.98320677402120       -3.43809727894271
N           16.10355053404741      -32.35791797138100       -2.24156886091089
N           17.12548090393943      -29.67563068349440       -1.85784677749565
N           18.03013251102510      -29.62589287322411       -4.60375620235159
N           17.08909851959625      -32.37311122975576       -4.96046347046112
C           15.73117572111017      -33.61450797831200       -2.60529705459424
C           15.11694032355123      -34.29602636446613       -1.47714005627668
C           15.11261663096598      -33.40738738835985       -0.44360702477724
C           15.74055636059893      -32.19414302079000       -0.94154517472424
C           16.58870497404153      -29.88451988921919       -0.62821098690373
C           16.74017324205084      -28.69702533759481        0.18805516349452
C           17.37941298377514      -27.76626476829503       -0.59241733985953
C           17.61008748195385      -28.40314406451154       -1.88254212991318
C           18.31957961717959      -28.34235207084283       -4.26877949547018
C           18.81561714883739      -27.62736836215710       -5.43322248646756
C           18.82806808599881      -28.52553854536082       -6.47725751771946
C           18.34004869578640      -29.78890736708450       -5.91597331238421
C           17.54955153907471      -32.14486678636867       -6.21859022814362
C           17.22269771950071      -33.27013401485387       -7.07257318870444
C           16.56191035205937      -34.16863143139572       -6.30475534624516
C           16.48783026139760      -33.59379838571333       -4.97751708904623
C           15.89937036069735      -34.18460238238890       -3.85864166694853
H           15.51343753227985      -35.18786347305198       -3.97680032720795
C           15.96183166654074      -31.04729721544411       -0.19299864180804
H           15.59816789924023      -31.05027001431509        0.82521345461866
C           18.17616198172626      -27.79118208695155       -2.99471908273631
H           18.51458132080134      -26.77212091935503       -2.85490456180989
C           18.19892873158178      -30.97490920146913       -6.62854960020073
H           18.60222878889025      -30.97809654911460       -7.63342634508057
C           14.58977471612329      -33.60175878263946        0.94166880041083
H           14.16728149036348      -34.59676321531670        1.05519545634681
H           13.80879151553682      -32.87685202725644        1.16352757526393
H           15.38353740411539      -33.48174494774594        1.67868041120778
C           14.61680062642754      -35.70278461502627       -1.50333786128891
H           15.30018913518203      -36.34184802082562       -2.05893325618026
H           13.63952871949846      -35.75766192391249       -1.98247270074855
H           14.52323264462927      -36.10414948122455       -0.49718502872952
C           16.29729113656555      -28.56635232458116        1.60756953059097
H           16.33992196327090      -29.52350171656806        2.12210068881005
H           15.26925632864322      -28.20724094942553        1.66232800353042
H           16.92874856959627      -27.85966745777392        2.14326548791417
C           17.70762083762477      -26.39827992757762       -0.20421458076027
H           18.67477507017198      -26.00094440933619       -0.49459777317882
C           16.87410828309676      -25.63822430954063        0.49509945483739
H           15.89728247443312      -25.99518523308756        0.76861927162517
H           17.11677956225414      -24.63182471246657        0.79522910587695
C           19.20634586709499      -26.18557725450068       -5.39676683882316
H           19.57791654288262      -25.90865484469552       -4.41316176560826
H           18.34926152264226      -25.54827002416050       -5.62025551702770
H           19.99261496127403      -25.97364624533673       -6.11540259499265
C           19.19426095820153      -28.33020976681588       -7.86900393676246
H           19.26618988327164      -29.21949222735828       -8.48580668020110
C           19.42914262601420      -27.15780397809661       -8.45875445946780
H           19.33932543048238      -26.23168004525056       -7.92799316638093
H           19.70525943356059      -27.08035364561545       -9.49798355517709
C           17.54973265071333      -33.36122940078567       -8.53477182749604
H           18.62434986546064      -33.48180493059774       -8.69636199419296
H           17.24138618219073      -32.46587334903639       -9.07652210315775
H           17.04641063241552      -34.21222765717404       -8.98751054106984
C           15.97296824986781      -35.49160870673176       -6.71667908385453
H           16.53438780974474      -35.92678298546907       -7.54279528057183
H           14.93625173715149      -35.38465356714462       -7.04692187035454
H           15.97251764414884      -36.21915860763823       -5.90361157686826
C           22.57731112968853      -32.19994821494461       -2.66701109547675
H           22.88704550063188      -33.18691481855205       -3.00733933034553
H           23.04371424742670      -32.00760798418347       -1.70233183715583
H           22.92589350664668      -31.46074427080417       -3.37952193657055
N           20.39788304175109      -32.95017230066775       -1.70554014002450
H           20.80033549991463      -33.64094250028671       -1.09284614016815
C           21.09910568575291      -32.13907149086520       -2.55868439460720
C           19.08764616854062      -32.67324377863700       -1.85503356708227
H           18.31041308954731      -33.15810282571381       -1.30147175038690
N           18.91009023903073      -31.73714696392083       -2.75341843528493
C           20.15323350462301      -31.39194463773467       -3.20048107882913
H           20.27418869719128      -30.63871278234388       -3.95142852986031
O           15.34984310868704      -29.77676435866347       -4.99738770627288
O           15.47422969089579      -30.39315463267759       -3.88781122238579
77
 energy: -118.987459213350 gnorm: 0.021340314146 xtb: 6.7.1 (edcfbbe)
Fe          16.99904957239065      -30.97353867064833       -3.44530903521304
N           16.09919016401373      -32.35655513456265       -2.25152731734802
N           17.12175952624850      -29.68390850830519       -1.86080048605283
N           18.01624557525185      -29.62644100924268       -4.60240240570710
N           17.07740895781380      -32.35975675393808       -4.95954815573415
C           15.73028525957103      -33.61175264882788       -2.61175730972468
C           15.12329340814270      -34.29458767691204       -1.48358018050711
C           15.11859787284448      -33.40514559051554       -0.45091831798049
C           15.74255798821155      -32.19538611597290       -0.95229128719483
C           16.58764335423182      -29.89186081377416       -0.63127448640460
C           16.73640864597672      -28.70829357216613        0.18184943761238
C           17.37260448557356      -27.77700470017978       -0.60037668144018
C           17.60552584049242      -28.41570241972466       -1.88516731275577
C           18.31366106984658      -28.34814708975350       -4.26376846901330
C           18.82368375197854      -27.63204748528068       -5.41534786283256
C           18.83384473032859      -28.52653587220106       -6.46143238026163
C           18.33199836962293      -29.78587373436863       -5.90985261039090
C           17.54473902174805      -32.13011395998139       -6.21272116144889
C           17.23374167302044      -33.25868036751191       -7.06746026643852
C           16.57045464452086      -34.16206782297807       -6.29517299895987
C           16.48350164170605      -33.58155062423520       -4.97217970064465
C           15.89527258066706      -34.17956516449217       -3.86477713484187
H           15.50460644732163      -35.17887874675463       -3.99275023275883
C           15.96265840822953      -31.05414041018685       -0.19944450669595
H           15.59435842529872      -31.06065576069807        0.81581362876052
C           18.16693656392327      -27.79861360601963       -2.99378213386309
H           18.48689373246073      -26.77446124117118       -2.85686301290517
C           18.18373651254556      -30.96402224011419       -6.62830263344977
H           18.55216867280991      -30.96163175466484       -7.64709547440699
C           14.59708641767930      -33.59336941197903        0.93240307111600
H           14.17336615914430      -34.58718154537011        1.04935400063691
H           13.81743849625915      -32.86612945886113        1.15182049076202
H           15.38966880990621      -33.46911129218275        1.67003576501240
C           14.62065884338927      -35.69619522640501       -1.50677708014735
H           15.30210615143325      -36.34129796629061       -2.05772655920365
H           13.64407050687276      -35.74670925519635       -1.98751954795180
H           14.52103288832827      -36.08991345911277       -0.49839073372397
C           16.30041275666552      -28.57214987212634        1.59758895852936
H           16.35653183815681      -29.52524042197497        2.11846164954370
H           15.26930450933832      -28.22235252545427        1.65294147557926
H           16.92738335770268      -27.85107098992948        2.11947049398625
C           17.70010797743566      -26.41484358587985       -0.22435449926543
H           18.66378736332528      -26.02950184004936       -0.53900973677817
C           16.88415616466630      -25.64337601743287        0.48570178030007
H           15.90296568655623      -25.98208061902668        0.76984193129302
H           17.14195646659991      -24.64045569066050        0.77965698624650
C           19.21941010342432      -26.19765576503748       -5.37814036922032
H           19.56834617977569      -25.91748446606552       -4.38724128609548
H           18.36495517417400      -25.56491132936789       -5.62481514185348
H           20.02132569926537      -25.98901314285399       -6.08032132287418
C           19.19763431545708      -28.33161585063105       -7.84214544357493
H           19.27847147925030      -29.23451342066671       -8.43568450393035
C           19.41717276477506      -27.17014943307831       -8.46291375669555
H           19.29655884280214      -26.21864601108746       -7.97549480632113
H           19.69429566684685      -27.12325135846877       -9.50251578205916
C           17.55602355526526      -33.35362719417239       -8.52089008360195
H           18.62991686688297      -33.46989835573008       -8.67422409243483
H           17.23465642424431      -32.45604224846291       -9.04630168707207
H           17.05137008410190      -34.20579067419396       -8.96804002497856
C           15.98799830324030      -35.47332188270335       -6.70731677801203
H           16.54892340719234      -35.90185714996049       -7.53513625335567
H           14.95334336635170      -35.34767718978232       -7.03016134297531
H           15.99490671351902      -36.18673275099283       -5.88607301243043
C           22.58093144143959      -32.20085440671346       -2.66842295200018
H           22.90089906225465      -33.18522570805354       -3.00777901045489
H           23.04694132029764      -32.00460596349088       -1.70438211657272
H           22.92499524251891      -31.45883154458195       -3.38001516802463
N           20.40366584851798      -32.95518006227676       -1.70305534047172
H           20.80603868341334      -33.64150757486627       -1.08482931410728
C           21.10263483859376      -32.14687814232015       -2.56096581260033
C           19.09237093047134      -32.67851130668356       -1.85609114943670
H           18.31449264538981      -33.16044858816519       -1.30305223715007
N           18.91251577312725      -31.74577415547516       -2.75540950573746
C           20.15423947562277      -31.40190084493679       -3.20176526588065
H           20.27717806613895      -30.64650571586639       -3.94881408658323
O           15.32106539400855      -29.80642749139547       -5.00867275846392
O           15.46686104138658      -30.40226159880473       -3.88058755236392
77
 energy: -118.990071491968 gnorm: 0.017170297935 xtb: 6.7.1 (edcfbbe)
Fe          16.97449668067526      -30.96635621137381       -3.44892832950312
N           16.09155744207852      -32.35382580352140       -2.26320765763995
N           17.10980970403759      -29.69498388745442       -1.86806272430334
N           17.99179731224135      -29.62581385603476       -4.59770119024218
N           17.06208089849238      -32.33774503390591       -4.95221373799939
C           15.72431172322285      -33.60897749085629       -2.61951923037370
C           15.12697148751066      -34.29304768848248       -1.49095917407169
C           15.12397905565128      -33.40407429214805       -0.45973026858969
C           15.74089257520369      -32.19602959594142       -0.96318580054572
C           16.58053841043825      -29.90174310737483       -0.63550087828616
C           16.72762665976595      -28.72104484817191        0.17358734480121
C           17.35834524570764      -27.78968468383071       -0.61068123421207
C           17.59013632370220      -28.42774075591581       -1.89044429843186
C           18.30262380785493      -28.35152144719202       -4.25471307688627
C           18.82694924134068      -27.63661343741037       -5.39466108117853
C           18.83034804554624      -28.52516833242905       -6.44249446345773
C           18.31287354711205      -29.77917545787510       -5.90267136484355
C           17.53185268436645      -32.10711533060311       -6.20278723371382
C           17.24238008627442      -33.23994797507449       -7.05579205049605
C           16.58214546379395      -34.14918462767334       -6.28118749456887
C           16.47874250098954      -33.56377133286090       -4.96349350960250
C           15.88611073040298      -34.17329300274003       -3.87226884176689
H           15.49332501418881      -35.16947716276861       -4.01293427899207
C           15.95869798468230      -31.06234629863716       -0.20471984361870
H           15.58915370970944      -31.07443705346402        0.80930870713884
C           18.14827858890554      -27.80178776556573       -2.99135584868290
H           18.45242902589321      -26.77430326015354       -2.85483655544649
C           18.15336431917613      -30.94551765767881       -6.63058607704743
H           18.48942606580068      -30.94101809075853       -7.65949713106370
C           14.60553752089476      -33.58345867150040        0.92468914082769
H           14.18031560621443      -34.57634683279910        1.04816895873708
H           13.82704436775943      -32.85171290728623        1.13795507246304
H           15.39985995280503      -33.45334546242864        1.66051511392521
C           14.62163123011598      -35.69296439725670       -1.51185718815065
H           15.30385100968212      -36.34390741178189       -2.05598333780200
H           13.64695875142319      -35.73914659234891       -1.99850355006609
H           14.51438044387506      -36.07856735126867       -0.50038242857194
C           16.30072779501470      -28.57935462354869        1.59096375754825
H           16.38048986673995      -29.52682774541657        2.12115445887525
H           15.26304853686437      -28.24741904086040        1.64898870008624
H           16.92067981029784      -27.83817976359122        2.09508536864467
C           17.69516149259197      -26.42893142158339       -0.25006291992445
H           18.65330970960546      -26.05569996796746       -0.59705199424973
C           16.90119390662321      -25.64372804697156        0.47141975099902
H           15.92271686272190      -25.96842545862681        0.78476970801672
H           17.17877368337416      -24.64104651153253        0.74879064663715
C           19.23709235174762      -26.20892643529670       -5.36654964594500
H           19.56744678440043      -25.91969092206609       -4.37047480197961
H           18.39020527007775      -25.57487799317240       -5.63752648519521
H           20.04830719585196      -26.02011593030774       -6.06525978091970
C           19.20249096311685      -28.33361725713669       -7.81940588510501
H           19.31962063640592      -29.24739507911417       -8.39099717791341
C           19.39270458019346      -27.18007760563302       -8.46086011017011
H           19.27196662280233      -26.21715429113287       -7.99781008863099
H           19.67893901325845      -27.16228837501863       -9.49983387306631
C           17.56607620866217      -33.33825971771412       -8.50431333349445
H           18.64002003781613      -33.44677905823673       -8.65626386201100
H           17.23337035800090      -32.44262204282919       -9.02416637770948
H           17.06595079391311      -34.19492540643222       -8.94863183249315
C           16.00530189518965      -35.45633031652963       -6.69402213948367
H           16.56222094461953      -35.88032692168082       -7.52616489078275
H           14.96991818174014      -35.32281689540936       -7.00961357775997
H           16.01954092482816      -36.16605801592141       -5.87182877595747
C           22.59015961930972      -32.20134216221398       -2.66925158067617
H           22.92074532857605      -33.18328863298596       -3.00834235860358
H           23.05466864766890      -31.99978627469487       -1.70454604685522
H           22.92702317861728      -31.45545878876610       -3.38192894190153
N           20.41453459620878      -32.96475513879739       -1.69948265913310
H           20.81724514118444      -33.64478656960397       -1.07488239864539
C           21.11160284270108      -32.15726380843827       -2.56131294934312
C           19.10304906493036      -32.68916901185338       -1.85371775521427