77
 energy: -118.995552882446 gnorm: 0.000047716529 xtb: 6.7.1 (edcfbbe)
Fe          16.86836749037998      -30.93356225364383       -3.46375234237402
N           16.05806353347203      -32.34780055595529       -2.26766740575172
N           16.96558076529863      -29.65672576088049       -1.89258542691001
N           17.88216267762553      -29.59559536675599       -4.58865191604530
N           16.96302256423406      -32.28833463510912       -4.95414349461863
C           15.69117542414347      -33.60612270852560       -2.62203782666390
C           15.06915598698624      -34.28185011470080       -1.50455024027145
C           15.06119871121480      -33.39308701267344       -0.47388406320352
C           15.68419698569841      -32.18599410989052       -0.97164025652300
C           16.47087404762382      -29.87531683025605       -0.64608110962329
C           16.65808612479176      -28.71097286322145        0.18241426614415
C           17.27756268975396      -27.77408151363167       -0.60272396676026
C           17.46213170990536      -28.39383501112652       -1.90052912968991
C           18.23887099153087      -28.33291238426655       -4.23471487939208
C           18.84664996966402      -27.65045727508305       -5.35044947096877
C           18.83184553003877      -28.53362228664810       -6.39770152914446
C           18.22298120660096      -29.74870047304075       -5.89057984085035
C           17.42235934416545      -32.05446985048633       -6.20934215104772
C           17.22022536548704      -33.22015697442539       -7.04411223047623
C           16.62503885555335      -34.15634882495939       -6.25723736984564
C           16.46299867218988      -33.54933220723077       -4.95258247415956
C           15.87699649535544      -34.17786451375177       -3.86890358421378
H           15.52285127434741      -35.18770608203021       -4.01046882863933
C           15.87248813112490      -31.04717467550204       -0.21178246575267
H           15.50770433226196      -31.06848417952938        0.80407985162548
C           18.04680162367620      -27.76628842609470       -2.98577155991904
H           18.36415743859570      -26.74294728701422       -2.85391323388786
C           18.01114754193350      -30.88478379386235       -6.65183199086626
H           18.30810500372532      -30.84735305469408       -7.68886869094077
C           14.53289312014568      -33.55698335403731        0.90980322918555
H           14.11648074459056      -34.55123864026213        1.04890400648597
H           13.74857232165500      -32.82634426027635        1.10587394752299
H           15.32417392680965      -33.41025031016135        1.64548912576839
C           14.54926098489838      -35.67700554353484       -1.55201569579112
H           15.34322570840816      -36.37356478320547       -1.82141383831477
H           13.75776515965261      -35.76157450289475       -2.29626071561251
H           14.14497402836848      -35.97292910001030       -0.58739730046445
C           16.29593459969445      -28.61656072120238        1.62339442387655
H           16.49321805123108      -29.55730645767435        2.13533102179186
H           15.23652479302182      -28.38523542260732        1.74051168189955
H           16.87448725421362      -27.82976380194739        2.10307393617630
C           17.70886034726508      -26.43548267571865       -0.26014507655891
H           18.61523286716405      -26.09665278035140       -0.74828170314076
C           17.08199873129089      -25.61748340485958        0.57828606996034
H           16.15232642323327      -25.88367410012316        1.04953482646106
H           17.46445397792418      -24.63435386241936        0.79646599602995
C           19.41541101771150      -26.27627009710479       -5.30584483029466
H           19.91340538078096      -26.09483699349449       -4.35459396229738
H           18.62841174908778      -25.53024283870400       -5.42271182129012
H           20.13686822252634      -26.14429217749074       -6.10958031415944
C           19.33180985452767      -28.36338724834418       -7.74516888602202
H           19.74532426002308      -29.25220453490128       -8.20754121604601
C           19.30866912200580      -27.22835215731087       -8.43527111980032
H           18.86284230239801      -26.33061498577252       -8.04502456106574
H           19.70744211169736      -27.16917544542304       -9.43426333419366
C           17.60819139276888      -33.30063852476251       -8.47983768216657
H           18.68010136408212      -33.14097883881338       -8.59943489972570
H           17.08483913686678      -32.53750730945720       -9.05504883099761
H           17.35822400130488      -34.27402164223969       -8.89405464229483
C           16.18388716953285      -35.53712617155447       -6.59951340275190
H           16.43819560211514      -35.78089554281271       -7.62776749157474
H           15.10445153537254      -35.62994225085626       -6.48176550775525
H           16.66056028470369      -36.26618907270598       -5.94412520574505
C           22.49952598910662      -32.62323083443326       -3.04723475938603
H           22.73193862125985      -33.63698506740527       -2.72125719397807
H           23.18265935210038      -31.93880037185814       -2.54433402629420
H           22.66497699251399      -32.55510636350136       -4.11789967463104
N           20.59022280761691      -32.28969783379423       -1.46048011281030
H           21.11082328884732      -32.52097871187460       -0.62977216561861
C           21.08893378075205      -32.28039097583297       -2.73858429331150
C           19.29021915761877      -31.93205621109049       -1.52701509050076
H           18.64263719489214      -31.85295909976686       -0.67789581732515
N           18.93436834291207      -31.69790325095054       -2.76195611309345
C           20.03874815480451      -31.90937207209624       -3.52983291758012
H           20.00170037022380      -31.78051722619537       -4.59173792113449
O           15.11124492672640      -30.12022692869185       -5.11659358695923
O           15.35518298618009      -30.35181447449840       -3.88099919371542
