87
 energy: -124.589086513990 gnorm: 0.342066082260 xtb: 6.7.1 (edcfbbe)
Fe           9.40500000000000      -12.97400000000000       18.21900000000000
N            9.62800000000000      -14.14000000000000       16.52400000000000
N            7.59600000000000      -12.30200000000000       17.48600000000000
N            9.12400000000000      -11.88100000000000       19.89800000000000
N           11.12000000000000      -13.67200000000000       18.92500000000000
C           10.64700000000000      -14.99300000000000       16.28500000000000
C           10.46200000000000      -15.55100000000000       15.03500000000000
C            9.32200000000000      -14.97900000000000       14.49600000000000
C            8.79200000000000      -14.15400000000000       15.45900000000000
C            7.06000000000000      -12.60500000000000       16.27200000000000
C            5.81300000000000      -11.98700000000000       16.16400000000000
C            5.55400000000000      -11.36300000000000       17.38200000000000
C            6.70000000000000      -11.51800000000000       18.16200000000000
C            8.01400000000000      -11.16700000000000       20.21500000000000
C            8.23300000000000      -10.54800000000000       21.43900000000000
C            9.53800000000000      -10.80400000000000       21.78600000000000
C           10.02900000000000      -11.71700000000000       20.88300000000000
C           11.75100000000000      -13.24600000000000       20.06600000000000
C           12.95700000000000      -13.92000000000000       20.21000000000000
C           13.03500000000000      -14.83000000000000       19.16000000000000
C           11.92500000000000      -14.62200000000000       18.34800000000000
C           11.70500000000000      -15.24700000000000       17.13500000000000
H           12.42600000000000      -16.00300000000000       16.82400000000000
C            7.60900000000000      -13.45700000000000       15.33600000000000
H            7.05300000000000      -13.59200000000000       14.40800000000000
C            6.88600000000000      -11.00300000000000       19.43000000000000
H            6.07100000000000      -10.41400000000000       19.85000000000000
C           11.26200000000000      -12.31600000000000       20.95500000000000
H           11.90800000000000      -12.03100000000000       21.78600000000000
C            8.72200000000000      -15.22100000000000       13.12800000000000
H            7.77000000000000      -15.78300000000000       13.23500000000000
H            9.42600000000000      -15.81900000000000       12.51000000000000
H            8.51300000000000      -14.24900000000000       12.63300000000000
C           11.32700000000000      -16.60000000000000       14.39400000000000
H           11.77500000000000      -17.24300000000000       15.18100000000000
H           12.14300000000000      -16.11300000000000       13.81900000000000
H           10.71200000000000      -17.23300000000000       13.71900000000000
C            4.87700000000000      -12.07600000000000       14.97800000000000
H            4.45500000000000      -13.10200000000000       14.91500000000000
H            5.43500000000000      -11.85800000000000       14.04200000000000
H            4.04400000000000      -11.35100000000000       15.10200000000000
C            4.28200000000000      -10.64700000000000       17.80700000000000
H            4.22900000000000       -9.57200000000000       18.02400000000000
C            3.05800000000000      -11.55000000000000       17.91300000000000
H            3.13600000000000      -12.62400000000000       17.69100000000000
H            2.08400000000000      -11.13700000000000       18.21300000000000
C            7.29600000000000       -9.62400000000000       22.17800000000000
H            6.24500000000000       -9.89300000000000       21.93900000000000
H            7.47900000000000       -8.57400000000000       21.86400000000000
H            7.45400000000000       -9.72600000000000       23.27300000000000
C           10.31400000000000      -10.14200000000000       22.90000000000000
H           11.15600000000000       -9.45900000000000       22.72500000000000
C            9.85600000000000      -10.48100000000000       24.30300000000000
H            9.01100000000000      -11.16700000000000       24.46400000000000
H           10.36300000000000      -10.04500000000000       25.17600000000000
C           13.97300000000000      -13.70900000000000       21.32100000000000
H           13.49900000000000      -13.92400000000000       22.30300000000000
H           14.32400000000000      -12.65500000000000       21.31400000000000
H           14.83400000000000      -14.39600000000000       21.17800000000000
C           14.13100000000000      -15.84100000000000       18.90500000000000
H           14.57600000000000      -16.15800000000000       19.87300000000000
H           14.92500000000000      -15.38400000000000       18.27600000000000
H           13.70800000000000      -16.73200000000000       18.39400000000000
C           10.50600000000000       -8.05900000000000       15.81600000000000
H           10.32700000000000       -8.09000000000000       14.72000000000000
H           11.44000000000000       -7.49000000000000       16.01200000000000
H            9.64600000000000       -7.55700000000000       16.30800000000000
N           11.60900000000000      -10.32900000000000       15.91700000000000
H           12.34600000000000      -10.09800000000000       15.28200000000000
C           10.64600000000000       -9.47500000000000       16.34700000000000
C           11.38600000000000      -11.53500000000000       16.50200000000000
H           12.00500000000000      -12.41800000000000       16.34500000000000
N           10.28100000000000      -11.44300000000000       17.29700000000000
C            9.80600000000000      -10.17000000000000       17.20300000000000
H            8.92100000000000       -9.85900000000000       17.74300000000000
C            9.90100000000000      -15.81800000000000       21.11600000000000
H           10.19400000000000      -15.82900000000000       22.18800000000000
H           10.72400000000000      -15.35900000000000       20.52800000000000
H            9.74100000000000      -16.86500000000000       20.78200000000000
C            8.60800000000000      -15.00600000000000       20.93000000000000
H            8.74000000000000      -14.03000000000000       21.44200000000000
H            7.78400000000000      -15.55500000000000       21.43000000000000
S            8.15100000000000      -14.70600000000000       19.20900000000000
C            8.39200000000000      -16.28900000000000       18.38000000000000
H            7.89500000000000      -17.11400000000000       18.93300000000000
H            9.47500000000000      -16.52600000000000       18.31200000000000
H            7.96300000000000      -16.25500000000000       17.35600000000000
87
 energy: -124.687167088340 gnorm: 0.148761938847 xtb: 6.7.1 (edcfbbe)
Fe           9.39059352396647      -12.98075258977236       18.21680445851898
N            9.62463072627904      -14.12003393841304       16.54457511520066
N            7.60504422036915      -12.30009920321036       17.49501194869611
N            9.12490856428997      -11.89013181985703       19.88249065504218
N           11.11471804051334      -13.65930490370672       18.91531944709947
C           10.63904437032218      -14.98470036843108       16.28938559787111
C           10.45864521957989      -15.56292413221013       15.01179266994529
C            9.32601080054923      -14.99845172365955       14.47909163283142
C            8.79941897237890      -14.13792961849569       15.46538882418875
C            7.05712761327820      -12.59827591473171       16.28541018703787
C            5.78007558814470      -11.98366837334342       16.17079486979932
C            5.52265745272891      -11.35327566626057       17.37094233050200
C            6.69871500766203      -11.52470493936913       18.16137083124979
C            8.01921812388222      -11.16962194922889       20.21436369168769
C            8.23763712998544      -10.52074554340936       21.45751081088935
C            9.53550250720685      -10.78215798998327       21.82351295676592
C           10.03856160530218      -11.69588190674768       20.86692392454995
C           11.75384449145193      -13.24240568716379       20.05248718561040
C           12.97905214051485      -13.93541836055495       20.21150748539775
C           13.05782205503720      -14.83084927146195       19.17096455356718
C           11.91934897433135      -14.61478277242571       18.35313716944237
C           11.69823157681560      -15.24540780086622       17.14152088545909
H           12.42095123136238      -15.99176999409451       16.82620546190561
C            7.61095015164511      -13.44199961092358       15.33878652149565
H            7.05537029471971      -13.58820471274409       14.41740475815701
C            6.88439391737665      -11.01131391605566       19.43218699238036
H            6.07516517579024      -10.41825090808662       19.84552734341636
C           11.27086034443021      -12.30806884580313       20.94622281133885
H           11.90447446027573      -12.03637973810542       21.78370025966957
C            8.72398477640407      -15.22794188311492       13.12713808180977
H            7.77886807099311      -15.77767973912565       13.22698337688715
H            9.41336264755389      -15.81134398260701       12.50876820545441
H            8.51798955104291      -14.26744507921682       12.63635887790246
C           11.32898740086212      -16.60292063684725       14.38881680046932
H           11.77202699741977      -17.23870056928165       15.16495158973627
H           12.13789882281648      -16.12695411031994       13.81931255344749
H           10.72869199032604      -17.23006790535070       13.72108803719704
C            4.87344984648717      -12.07556015959766       14.98177958552182
H            4.45641275251671      -13.08889013026806       14.91049382335611
H            5.42353794049348      -11.85985902108560       14.05553414452499
H            4.05081932747748      -11.36150755971418       15.09616623042631
C            4.24286840369981      -10.71227579305556       17.79837187286197
H            4.21583637364435       -9.63790291909490       18.02103727106172
C            3.10757935013884      -11.50670755078343       17.90469808031718
H            3.15769769351215      -12.57511869374842       17.69505261135740
H            2.13174203033637      -11.12376846786593       18.20497989074673
C            7.29043162246563       -9.62015729749939       22.17974574509371
H            6.25350652697723       -9.88642081084472       21.94538152502380
H            7.47020895040207       -8.58133440605301       21.87483535173468
H            7.44944098433863       -9.71445290073672       23.25916284808689
C           10.27535275610326      -10.17988011094238       22.96312003006589
H           11.11279143328125       -9.50174343621987       22.75451798017773
C            9.87625663961551      -10.46455357888336       24.25477262260950
H            9.04454887395261      -11.14431071137058       24.43798082733319
H           10.36204742475647      -10.04458828360739       25.13370526481055
C           13.97037081388724      -13.71545087192930       21.31832595911456
H           13.50713117841150      -13.92087528736282       22.29272254470905
H           14.32045663533891      -12.67419723323585       21.31453101736811
H           14.82708088317075      -14.38362958839202       21.18460579033140
C           14.13414576343609      -15.83909212762252       18.90956046171400
H           14.57726860514428      -16.15906308029514       19.85913472843833
H           14.91958759177620      -15.39671518650104       18.28230282557344
H           13.72022644100729      -16.71936446493829       18.40228921536186
C           10.50811574072632       -8.06491124057364       15.81862626176128
H           10.33002063669019       -8.08631590070305       14.73504109486769
H           11.42609114298295       -7.49395246753400       16.00968725135212
H            9.66244223197115       -7.56507246431422       16.30172970783676
N           11.59881994281994      -10.32865483801786       15.92376186843459
H           12.34284548486720      -10.10038960138438       15.28538974383913
C           10.63225733097128       -9.46672757963836       16.34256740468580
C           11.37377142502496      -11.52932763196452       16.51243649434815
H           11.98711771423555      -12.40347815640259       16.35569043198752
N           10.29243950238147      -11.45327265858004       17.29234456077995
C            9.82057645603222      -10.17786968370933       17.19556692362118
H            8.94055088452906       -9.86771183215454       17.73443704418171
C            9.90101887447941      -15.82264871158720       21.11575445535340
H           10.18975856480506      -15.82987317348411       22.17380233009501
H           10.71262987376679      -15.37233042165274       20.53907788415556
H            9.75045381969383      -16.85647938516881       20.78717623102925
C            8.61491643899005      -15.02134387493128       20.93594030690692
H            8.73078598452575      -14.04009148036677       21.41936325728953
H            7.78397321946711      -15.54932002767160       21.42478675618834
S            8.13527323379990      -14.70203591162951       19.20969477843013
C            8.39948171951090      -16.29847234735217       18.38955208384242
H            7.89494050128118      -17.10485308630962       18.93471718562552
H            9.46858518951627      -16.52318278846108       18.31004997590764
H            7.97155270695211      -16.24269895978089       17.38023881713941
87
 energy: -124.704842936811 gnorm: 0.100621045854 xtb: 6.7.1 (edcfbbe)
Fe           9.37590858984719      -12.98700392240078       18.21561948649256
N            9.62260088328022      -14.09724897546287       16.55904365694875
N            7.60971021364392      -12.30104836330075       17.50397504883864
N            9.12975726502343      -11.88519413116868       19.86512953461332
N           11.11381393800923      -13.64696740850603       18.90772434556995
C           10.63023362982291      -14.97294976363020       16.29580610042120
C           10.45152495269144      -15.56824480756859       15.00060011201301
C            9.32702381080017      -15.00833837849064       14.47259572025221
C            8.80702759913545      -14.11630464489267       15.47115084379584
C            7.05849019118424      -12.59234248383615       16.29703524540531
C            5.75544648030277      -11.99011937585200       16.18265661275168
C            5.50292450157338      -11.35872356680439       17.36896986715995
C            6.69783213087113      -11.53886235201027       18.16744616838132
C            8.02617836853530      -11.16687145386511       20.20918675400874
C            8.24342182159169      -10.50054317881149       21.46543093003437
C            9.53143242332837      -10.76873737591075       21.84126064179524
C           10.04781363997615      -11.67263475911570       20.84620033531466
C           11.75637317352773      -13.23140015105370       20.03763097257965
C           12.99259408657521      -13.94442582630908       20.21036863364628
C           13.07273133500998      -14.82906817521499       19.17725320959529
C           11.91345472929435      -14.60505739797188       18.35528412319373
C           11.68961755497326      -15.24027189621181       17.14642472497342
H           12.41346320732933      -15.97827086475351       16.82748131206700
C            7.61642575667804      -13.42291327448757       15.33991676381390
H            7.05948728445750      -13.57798807386400       14.42563070149797
C            6.88269946456075      -11.01949561822138       19.43611124316189
H            6.07692974503590      -10.42429237128407       19.84392467743595
C           11.27902053288545      -12.29367488623390       20.93427150382404
H           11.90037857866707      -12.03948608147117       21.78232432575773
C            8.72359261413701      -15.23330668504695       13.12944601377177
H            7.78139564841821      -15.77532695053035       13.21855662347343
H            9.40110888409668      -15.80862807699113       12.50504238744080
H            8.52131818912463      -14.28118000851128       12.63844946193340
C           11.32987900732878      -16.60314059261078       14.38697989882678
H           11.77179337934187      -17.23692723880826       15.15294131485354
H           12.13699400638878      -16.13867104844033       13.81876591758340
H           10.74684661665062      -17.23040903145289       13.71711101990262
C            4.86849408088233      -12.07829971618057       14.98877315244301
H            4.45325022776961      -13.08299674979510       14.90232024066886
H            5.41706173698156      -11.85951638630497       14.07194372082153
H            4.04887734503230      -11.37128775627166       15.08953485393952
C            4.22444680465163      -10.76202661859059       17.79610310263452
H            4.21826628129282       -9.69210512957007       18.02054894206158
C            3.15767691422319      -11.47762222011323       17.89614179323069
H            3.17540769737915      -12.54135801245317       17.68957091971027
H            2.18669196482160      -11.10222621286626       18.19614126967210
C            7.28504176787573       -9.61489784318034       22.17897265838805
H            6.25667396993044       -9.88088791686580       21.95013514415563
H            7.45287125043663       -8.57839234423840       21.88473783714302
H            7.44059748151452       -9.69668522711831       23.25141129752605
C           10.24396842430133      -10.21519713946614       23.00292430986743
H           11.07936044790319       -9.54815363376279       22.77222648919978
C            9.88966745286744      -10.46374135050258       24.21757010424906
H            9.06459693211370      -11.13279427500096       24.42787971702954
H           10.36489881532603      -10.04346179176999       25.09326313594589
C           13.96674073404981      -13.72123943159680       21.31604719906130
H           13.50938514012258      -13.91971685969578       22.28575293473935
H           14.31604016076194      -12.68787755842117       21.31403622194622
H           14.82539070495752      -14.37588605784376       21.19383936512697
C           14.13757048390035      -15.83718530399098       18.91187404599417
H           14.58473888981078      -16.16124902248086       19.84856723351232
H           14.92034526658625      -15.40934087130392       18.28380237469815
H           13.72948139894126      -16.71103286128769       18.40769046573626
C           10.50907589985150       -8.07114172498625       15.82212664700812
H           10.33350853176176       -8.08363036096030       14.74554371692014
H           11.41883428925107       -7.50220158796700       16.01257280792599
H            9.67345422997023       -7.57085930017295       16.30128106685478
N           11.59170975758792      -10.33012304517809       15.92675823147718
H           12.33988735503916      -10.10621504843073       15.28846790825300
C           10.61820115274888       -9.46236421255249       16.33795811831167
C           11.36281825546065      -11.52375018573277       16.52256649433869
H           11.97183320490186      -12.39220514712661       16.36892941885008
N           10.30068452280346      -11.46041062589581       17.28901320843674
C            9.82829629235104      -10.18477003514235       17.18929403747161
H            8.95485928460092       -9.87536015806394       17.72878156215075
C            9.89779021455122      -15.83049670433354       21.11461997823355
H           10.18312837510178      -15.83285488884097       22.16487186053336
H           10.70302893680361      -15.38307918212332       20.54574489622399
H            9.75960546548021      -16.85839300561894       20.79095875828266
C            8.61752034685176      -15.03588251984484       20.94267006125145
H            8.72229187540000      -14.04675212254062       21.39442419688089
H            7.78027848983935      -15.54982960922494       21.41975308474469
S            8.11863884105846      -14.70094337063691       19.21090936734113
C            8.40487947509821      -16.30756617193727       18.39912409856598
H            7.89407871850038      -17.09552367130809       18.94599507933219
H            9.46663475839097      -16.51586860276131       18.31683176517742
H            7.97817511806373      -16.22753123685204       17.40124887280332
87
 energy: -124.709893270802 gnorm: 0.015913706606 xtb: 6.7.1 (edcfbbe)
Fe           9.37194094717438      -12.99186962661967       18.21589311424824
N            9.62503623237295      -14.08675432391646       16.55568665500557
N            7.61250534591667      -12.30915105828914       17.50608942180716
N            9.13290381589987      -11.87204552759578       19.85181111462559
N           11.12204345641391      -13.63499173543630       18.89907068145480
C           10.62898279047448      -14.96687147038428       16.29461559337198
C           10.45105598822714      -15.56767622164731       14.99785623693436
C            9.32829777175807      -15.00686857826090       14.46878084994438
C            8.81409036438627      -14.10327690284384       15.46520804291899
C            7.06251827591006      -12.59358099788279       16.29773486856437
C            5.75274486428637      -12.00283896627671       16.18589096589925
C            5.51064045418671      -11.37147435954578       17.36965325255824
C            6.70020412111811      -11.55422444718520       18.17220728253667
C            8.02780493793835      -11.15976288911240       20.20254136676975
C            8.24288247836051      -10.48845600905588       21.45843797334907
C            9.52754477185711      -10.76501152317904       21.83112035728856
C           10.05341356845152      -11.65612869951663       20.82762468514309
C           11.76540473986907      -13.21558187048441       20.02487109214622
C           12.99843735712417      -13.93911209758365       20.20538787974199
C           13.07979529424937      -14.82368117555098       19.17306398288335
C           11.91723415121213      -14.59695868916359       18.35113095030149
C           11.68712138078554      -15.23482291619841       17.14553250994543
H           12.41098921838268      -15.96990626651930       16.82542271922106
C            7.62488235973003      -13.40999852944436       15.33391662350740
H            7.06637778477899      -13.56190913314687       14.42181156177690
C            6.88002766517281      -11.02738436399824       19.43702590367348
H            6.07212336973067      -10.43488920176222       19.84262194372655
C           11.28659182547696      -12.27493837613870       20.91746979955748
H           11.90015350750081      -12.03212419267503       21.77446429182223
C            8.72149135288944      -15.23800307532539       13.12730744607472
H            7.77731361814754      -15.77645501750368       13.21376659508704
H            9.39330999111150      -15.81534582762591       12.49844478874282
H            8.52229870784226      -14.28807363624986       12.63329090007157
C           11.33292464644371      -16.60226208219023       14.38358744008989
H           11.77441285591512      -17.23868959889354       15.14665435075601
H           12.14297589502667      -16.14161456031898       13.81686198000845
H           10.76014294296045      -17.23217154103281       13.70705096602348
C            4.86334369154392      -12.08499625153556       14.99314812410001
H            4.44744501455370      -13.08796986776137       14.89330101187543
H            5.41404169019194      -11.85741726862637       14.08112808084056
H            4.04098349738120      -11.38067732639356       15.09109574168833
C            4.25319830686974      -10.75993681900166       17.79505115726723
H            4.25869658256251       -9.69920684758532       18.03299867948087
C            3.13776928880360      -11.47658241751557       17.89019882243189
H            3.14747695107588      -12.53654505698384       17.67951248298985
H            2.18681408101133      -11.07293098882429       18.20003389868682
C            7.27913516342030       -9.60590964559219       22.17480250769515
H            6.25147449687654       -9.87891608009899       21.95198179178460
H            7.43117436448641       -8.56586504963602       21.88408609655771
H            7.43454172317210       -9.67758340578279       23.24799537400721
C           10.24160926431649      -10.23158509670564       22.99162995029037
H           11.08345630261563       -9.58214205813598       22.76603729060918
C            9.88281623922458      -10.46955218022397       24.24661276004429
H            9.06264745553972      -11.13756126513328       24.46557863051055
H           10.38087584248410      -10.04191944077422       25.10124852109919
C           13.96583213482179      -13.72328728373549       21.31771583985699
H           13.50328421818523      -13.92065661550199       22.28448980050235
H           14.31629007293132      -12.69165959899422       21.31796083114924
H           14.82724035014376      -14.37590737413318       21.20444815067967
C           14.14358975487541      -15.83545719601372       18.91070440306902
H           14.59622041083535      -16.16134508263658       19.84428991887295
H           14.92818985911094      -15.41755521842496       18.27869132222431
H           13.73469350947704      -16.70981891080986       18.41027319306148
C           10.50985732141088       -8.07508575410049       15.82708005053587
H           10.33640616157802       -8.07852079112953       14.75069168262779
H           11.42076532305427       -7.51097694739419       16.02225435767639
H            9.67763901005109       -7.57264800458142       16.30823455648371
N           11.58731835958033      -10.33488404041588       15.92696954684856
H           12.33651380267242      -10.11255452290989       15.29081963631089
C           10.61125048720400       -9.46763089206064       16.33622855903078
C           11.35947758207129      -11.52541355639292       16.52809183921507
H           11.96895018062946      -12.39266304682973       16.38201778006291
N           10.29689637704506      -11.46417962498098       17.29156983713397
C            9.82385213081946      -10.18988890382714       17.18819430652356
H            8.95461224459683       -9.88032653883308       17.72983273776427
C            9.88945874504600      -15.84167438872461       21.11505477967711
H           10.17356724843850      -15.84046277200907       22.16516031034003
H           10.69634160876101      -15.39542364296970       20.54847728769575
H            9.76168136828930      -16.87197235326177       20.79489873324980
C            8.60938449162133      -15.04767557821316       20.94177510107717
H            8.71288061972910      -14.05372271046588       21.37915872806648
H            7.76884127179136      -15.55620747211061       21.41771273791589
S            8.10279464353949      -14.69800919059939       19.21459207915071
C            8.40685005235373      -16.30615088243184       18.41459567409509
H            7.89377949981716      -17.09018854074246       18.96443931091208
H            9.47035548283229      -16.50620604222706       18.33489583731270
H            7.98306687147479      -16.21864396767368       17.41833396134060
87
 energy: -124.711196054826 gnorm: 0.010710379299 xtb: 6.7.1 (edcfbbe)
Fe           9.37144697910485      -12.98813903524453       18.21157389318938
N            9.62474455731386      -14.08277685417550       16.55442133357055
N            7.61365383344822      -12.31943857398617       17.50722025467598
N            9.13426506294709      -11.86257491326356       19.84325402394807
N           11.12596459449806      -13.62954321623190       18.89539274645903
C           10.62875084674238      -14.96258163676909       16.29393680948539
C           10.45205504552134      -15.56737919042437       14.99493535829816
C            9.33188193895480      -15.00523667590278       14.46369245537447
C            8.81889859971545      -14.09642096859366       15.46052335788727
C            7.06404024413378      -12.60088180505417       16.29867226626868
C            5.74819359502012      -12.01884198896675       16.19012896641534
C            5.50977552691645      -11.39044874637091       17.37518015353414
C            6.70172086326869      -11.56912360820463       18.17597807885567
C            8.02912477888431      -11.15256918686756       20.19681258871994
C            8.24098699513256      -10.48056314159714       21.45538739049935
C            9.52309633800684      -10.76415137614382       21.82938148227961
C           10.05527130848217      -11.64620355470831       20.81696863517087
C           11.76926849596861      -13.20543892812998       20.01770365533198
C           13.00386241558592      -13.93215578879756       20.20081895335099
C           13.08632641453159      -14.81742164352584       19.16965308666049
C           11.92034225493579      -14.58996722399402       18.34739218891805
C           11.68759887443486      -15.22930272633156       17.14329515432392
H           12.41183548739544      -15.96255591714608       16.82207582272823
C            7.63101878387834      -13.40318937023405       15.32693933259132
H            7.07693725899947      -13.54352183678194       14.41128949527735
C            6.87749963696266      -11.03316678310827       19.43696343116226
H            6.06441118372090      -10.44853651272091       19.84225949345720
C           11.29043637866308      -12.26170293241881       20.90719742022539
H           11.90282107853879      -12.01705425831905       21.76303042535726
C            8.71968332883651      -15.23994093943646       13.12497508928232
H            7.77425240466735      -15.77609068609860       13.21600629511815