72
 energy: -105.885418042306 gnorm: 0.267999391074 xtb: 6.7.1 (edcfbbe)
Fe           0.68700000000000      -22.04400000000000       18.57400000000000
N           -1.07200000000000      -21.41600000000000       19.31300000000000
N           -0.25500000000000      -22.74300000000000       16.91100000000000
N            2.46100000000000      -22.79000000000000       17.87900000000000
N            1.62900000000000      -21.43400000000000       20.28700000000000
C           -1.29600000000000      -20.69200000000000       20.47300000000000
C           -2.69600000000000      -20.32700000000000       20.54300000000000
C           -3.28800000000000      -20.81900000000000       19.45800000000000
C           -2.29500000000000      -21.50900000000000       18.66700000000000
C           -1.59300000000000      -22.64700000000000       16.63600000000000
C           -1.81500000000000      -23.19500000000000       15.31900000000000
C           -0.63400000000000      -23.58300000000000       14.82300000000000
C            0.38100000000000      -23.28000000000000       15.81000000000000
C            2.68900000000000      -23.27900000000000       16.60200000000000
C            4.11800000000000      -23.46300000000000       16.44000000000000
C            4.71000000000000      -23.14300000000000       17.60300000000000
C            3.68100000000000      -22.72100000000000       18.51599999999999
C            2.96300000000000      -21.67800000000000       20.60200000000000
C            3.23400000000000      -21.14400000000000       21.91400000000000
C            1.91500000000000      -20.54400000000000       22.40100000000000
C            0.97600000000000      -20.77900000000000       21.33300000000000
C           -0.33400000000000      -20.38600000000000       21.39700000000000
H           -0.63500000000000      -19.78100000000000       22.25200000000000
C           -2.55900000000000      -22.14900000000000       17.47200000000000
H           -3.60100000000000      -22.26600000000000       17.17500000000000
C            1.72400000000000      -23.52700000000000       15.65000000000000
H            2.05000000000000      -23.95000000000000       14.70000000000000
C            3.89400000000000      -22.30500000000000       19.80900000000000
H            4.87900000000000      -22.48699999999999       20.23900000000000
C           -4.77700000000000      -20.71100000000000       19.08600000000000
H           -5.24000000000000      -19.87100000000000       19.64800000000000
H           -5.30000000000000      -21.65400000000000       19.35300000000000
H           -4.87900000000000      -20.51500000000000       17.99700000000000
C           -3.37900000000000      -19.50400000000000       21.66500000000000
H           -3.50100000000000      -18.45100000000000       21.33100000000000
H           -2.74900000000000      -19.52100000000000       22.58000000000000
H           -4.38100000000000      -19.93000000000000       21.88600000000000
C           -3.20900000000000      -23.28700000000000       14.67000000000000
H           -3.34100000000000      -22.44800000000000       13.95400000000000
H           -3.99300000000000      -23.21800000000000       15.45400000000000
H           -3.30400000000000      -24.24800000000000       14.12000000000000
C           -0.28000000000000      -24.23700000000000       13.46500000000000
H            0.73400000000000      -24.63300000000000       13.30800000000000
C           -1.14600000000000      -24.35400000000000       12.45000000000000
H           -2.17500000000000      -23.97700000000000       12.54800000000000
H           -0.83900000000000      -24.82900000000000       11.50600000000000
C            4.79200000000000      -23.96700000000000       15.14500000000000
H            4.04500000000000      -23.98900000000000       14.32300000000000
H            5.18500000000000      -24.99400000000000       15.30200000000000
H            5.62000000000000      -23.28300000000000       14.86200000000000
C            6.20600000000000      -23.17300000000000       18.01100000000000
H            6.47900000000000      -22.93500000000000       19.04900000000000
C            7.19900000000000      -23.47100000000000       17.18100000000000
H            6.99200000000000      -23.71800000000000       16.12900000000000
H            8.24100000000000      -23.47400000000000       17.53500000000000
C            4.59800000000000      -21.18300000000000       22.64200000000000
H            5.35700000000000      -20.64300000000000       22.03700000000000
H            4.92400000000000      -22.23699999999999       22.77200000000000
H            4.50900000000000      -20.68800000000000       23.63300000000000
C            1.57800000000000      -19.84700000000000       23.74300000000000
H            2.48400000000000      -19.82300000000000       24.38600000000000
H            0.77800000000000      -20.41100000000000       24.26900000000000
H            1.24400000000000      -18.80500000000000       23.55100000000000
O            0.30500000000000      -23.91500000000000       19.39800000000000
H           -0.01700000000000      -24.45900000000000       18.67900000000000
H            0.41400000000000      -24.17000000000000       20.24300000000000
C            0.02500000000000      -18.80200000000000       17.74400000000000
H           -0.05600000000000      -18.10100000000000       16.88600000000000
H            0.35900000000000      -18.22200000000000       18.63000000000000
H           -0.98500000000000      -19.22000000000000       17.94300000000000
S            1.19300000000000      -20.13400000000000       17.39500000000000
H            0.42500000000000      -20.72800000000000       16.49300000000000
72
 energy: -105.944130383262 gnorm: 0.112554342791 xtb: 6.7.1 (edcfbbe)
Fe           0.69543678493278      -22.04349428025666       18.57843204920370
N           -1.07372819235540      -21.39798565913029       19.30164559812053
N           -0.24258014576510      -22.73544561709780       16.90363527843402
N            2.46781455220460      -22.77496076005354       17.87612948054494
N            1.61856962385278      -21.44308741085017       20.28621659238840
C           -1.29332075576176      -20.68975028937221       20.46108518584470
C           -2.69621831102932      -20.32055828843119       20.55368312403100
C           -3.30299564900754      -20.82537336987832       19.45695489920360
C           -2.29195533568458      -21.50895769338866       18.67663472805340
C           -1.58004712973524      -22.66632561468110       16.62748138237030
C           -1.82675800118194      -23.20731903375156       15.30702262876735
C           -0.62463047917752      -23.59518727471282       14.79652555039690
C            0.37388346178382      -23.28893287107245       15.80939631815860
C            2.70547154266892      -23.26240373553727       16.61427527378768
C            4.13140496758556      -23.47207157917845       16.43734173125446
C            4.73311662601527      -23.15106664130391       17.61835084297799
C            3.67664414394034      -22.71769271924509       18.51658010437173
C            2.93017804730655      -21.66465991345820       20.62904957549123
C            3.19594651594472      -21.12794771233738       21.94249216590724
C            1.96241163394743      -20.55914772839468       22.39389367185781
C            1.01503991145714      -20.78462377949964       21.33110752939062
C           -0.31689035533782      -20.39069679398565       21.38973400816780
H           -0.62226669119028      -19.79950110385197       22.24750499357077
C           -2.54543815910108      -22.15183778740489       17.47580561457481
H           -3.58311380972239      -22.24651200613539       17.17483329241506
C            1.72903166667352      -23.52052666061200       15.66380648100916
H            2.05117506692605      -23.94244217661771       14.71902511960433
C            3.87247607786271      -22.29376107800227       19.82010880214109
H            4.85924891640748      -22.46018416692469       20.24092648665886
C           -4.76445774631513      -20.71152655963735       19.08684399799152
H           -5.22970878133069      -19.88658158100852       19.63667542764198
H           -5.29119941716292      -21.63858105194483       19.34297946798326
H           -4.87877052589562      -20.52063923992942       18.01465591952043
C           -3.36285418226838      -19.51386080752564       21.65393967235259
H           -3.49393880407988      -18.47182405966224       21.33498274859679
H           -2.75957090205246      -19.52297281855602       22.56579455368894
H           -4.35280292002143      -19.92593079768800       21.88096846309411
C           -3.19873662193827      -23.28648879300480       14.67699898120130
H           -3.33883145093284      -22.46094431205307       13.96719707940488
H           -3.98095756367338      -23.22116571066410       15.43839127078123
H           -3.31122414648619      -24.23418252863312       14.14123596588307
C           -0.29763524264496      -24.22410741707455       13.47943902114603
H            0.71087562592990      -24.61303479374709       13.34057219619348
C           -1.14376966347533      -24.34751706545919       12.45973482703087
H           -2.15609895514142      -23.97629324052471       12.52187875930268
H           -0.84201776707970      -24.81860540151104       11.52854867062828
C            4.77608735679180      -23.96170878004116       15.15599909325060
H            4.05364724216506      -23.98892825362319       14.33550481218787
H            5.17761574704397      -24.97274866177971       15.29932029317462
H            5.59106833513439      -23.29208130447536       14.86085204027101
C            6.18250339845943      -23.17704804815993       17.99735509815632
H            6.43750683112801      -22.93560772903207       19.02868916221309
C            7.18878757754354      -23.47299021809456       17.18172273457384
H            7.01858516914356      -23.72139503085895       16.14550817731598
H            8.21771720783748      -23.47286813360711       17.53046114619925
C            4.55297034802185      -21.17586621404367       22.63246261021366
H            5.32161428379020      -20.65316139890324       22.04464026187427
H            4.89832941113462      -22.21098970383984       22.76782401834361
H            4.50298078662875      -20.69878697094645       23.61638440150429
C            1.60749655068333      -19.87106170590527       23.70813151171586
H            2.47667536026535      -19.82809802637855       24.37197395122593
H            0.80631268747531      -20.40613167414713       24.23960846931086
H            1.26040411277228      -18.84061119256760       23.54198962046018
O            0.29922822227719      -23.91796182668926       19.38613592605798
H           -0.02261519523519      -24.48481561516421       18.68650794284266
H            0.41187540119119      -24.20329482720357       20.27401871195455
C            0.01001795958625      -18.78772218290327       17.74538888683087
H           -0.05079743044238      -18.10493944780022       16.89135859930490
H            0.35816937892435      -18.23432462567670       18.62210062982787
H           -0.97639258299192      -19.21334206913824       17.94934887681392
S            1.19166554788261      -20.11524525071625       17.39496192666154
H            0.43533883289783      -20.70256118451476       16.47123556657477
72
 energy: -105.962043347231 gnorm: 0.041634966120 xtb: 6.7.1 (edcfbbe)
Fe           0.70589352473092      -22.04496060150291       18.58217673765031
N           -1.07128641002389      -21.38624957814537       19.29317705882623
N           -0.23133040378591      -22.73651562446188       16.89971956876527
N            2.47416534810993      -22.75919179100592       17.87688955896239
N            1.60772066889024      -21.45211643990016       20.28474864598205
C           -1.28473198602916      -20.68670713707984       20.44601410793824
C           -2.68775956166836      -20.31849975024641       20.55730728830371
C           -3.30561683394863      -20.83190493825549       19.45583340760933
C           -2.28193918061249      -21.50555754829329       18.68104233308988
C           -1.56625203752893      -22.68030724624305       16.62323713283039
C           -1.83297932007322      -23.21746109816629       15.30734676987263
C           -0.61774412901491      -23.60379597970852       14.78415813673761
C            0.37052901115693      -23.29340860909630       15.81015976350971
C            2.71500677695558      -23.24386990816592       16.62744079148430
C            4.13399367761748      -23.47332672632522       16.43819393218299
C            4.74453077405020      -23.15506170500390       17.63089385767749
C            3.67091447207782      -22.71059743469857       18.51857861580014
C            2.90274984762279      -21.65895394557700       20.64026448854603
C            3.15974449840996      -21.11485263561583       21.96064331044950
C            1.99879138429598      -20.57625113169155       22.38436385372793
C            1.03508262282157      -20.79411359864991       21.32513201482046
C           -0.30269387645875      -20.39750869448259       21.38010992080383
H           -0.60999837015752      -19.82342729493532       22.24403158891652
C           -2.52669452158311      -22.14676068339219       17.47607625649398
H           -3.56079761813066      -22.21898049357419       17.16959558407833
C            1.73388613488557      -23.50944896521354       15.67783604764679
H            2.05697392254596      -23.93391856874721       14.73925017067904
C            3.85299981852042      -22.27905026177705       19.82602707144170
H            4.84138405945294      -22.42054278848364       20.24253921388442
C           -4.74802677822071      -20.71571430218341       19.08906513784301
H           -5.21445481965975      -19.89842029126000       19.63266798596452
H           -5.28251042917054      -21.63386227982674       19.33409431174070
H           -4.86951250460963      -20.52632552449051       18.02525509619190
C           -3.34152897744930      -19.52599223073576       21.64230118446594
H           -3.47834282236965      -18.48866416829112       21.33220836051805
H           -2.75337001987732      -19.53016388385848       22.55396261409865
H           -4.32588618516619      -19.93158773765439       21.87164505577822
C           -3.18678223569275      -23.28979902711665       14.68804899206437
H           -3.32955443596856      -22.47291430524440       13.97850548785720
H           -3.96838683913438      -23.21957919952196       15.43808770919295
H           -3.31381953046967      -24.23027002531390       14.15805320431367
C           -0.31373191455852      -24.20734805927719       13.50541160293199
H            0.69258247043121      -24.59175147142313       13.38484735798189
C           -1.14136765525550      -24.33486173568287       12.47052080610000
H           -2.14727087341836      -23.96695672775180       12.49257485037000
H           -0.83534939321567      -24.80978293905002       11.55285139117975
C            4.75916613649217      -23.95485044668979       15.17088363033558
H            4.04351686267571      -23.98895920692721       14.35589542946842
H            5.17233866699600      -24.95586605882316       15.30379859820235
H            5.56556751978946      -23.29068966874881       14.86549224222229
C            6.14709269175007      -23.18579500820361       17.98636443746344
H            6.38478378342612      -22.93442470763407       19.01336370470618
C            7.17164489129647      -23.47889672966119       17.18593428484311
H            7.04170990416894      -23.73073868402150       16.15388928342892
H            8.18990212938418      -23.46706320773803       17.53909033457388
C            4.50410215010149      -21.16933424394493       22.62781163757413
H            5.26565791159551      -20.65460818898040       22.03638602391409
H            4.84973143595704      -22.19800214609884       22.75699770674492
H            4.47660933218981      -20.70158011749628       23.60868350087981
C            1.64201483129141      -19.89490274197959       23.67524258634566
H            2.49264717200697      -19.84295970676019       24.34920991179839
H            0.83857671635611      -20.42401803591904       24.19559309134449
H            1.28709556105311      -18.87448502329128       23.50765851260329
O            0.28934612077699      -23.92764918383959       19.38749198205491
H           -0.02819980913610      -24.53282470241252       18.71554466900452
H            0.40651779816815      -24.24349475482839       20.28320246694263
C           -0.00315806322997      -18.76996302490280       17.74968619557801
H           -0.05035143736291      -18.10014519472055       16.89753812337731
H            0.35686717572087      -18.23736946193009       18.62224328597628
H           -0.97295415512415      -19.20485999569700       17.95634067113500
S            1.19513535274398      -20.09366018692250       17.39336570900535
H            0.46040997158879      -20.65652448470724       16.42940360317268
72
 energy: -105.967153386225 gnorm: 0.021099112921 xtb: 6.7.1 (edcfbbe)
Fe           0.70667245359610      -22.05705415232838       18.58609705658239
N           -1.06435227263079      -21.37986908472186       19.28537404661045
N           -0.22737389219537      -22.73779917628229       16.90229420302359
N            2.47046249192628      -22.75185141390876       17.87996150704604
N            1.59964627776279      -21.46216564732252       20.28113916058274
C           -1.27863215295264      -20.68529099499161       20.43608892576799
C           -2.67803280011477      -20.32157807823061       20.55200715313748
C           -3.29787730922202      -20.83433960384657       19.45221486383910
C           -2.27358776494290      -21.50101483625621       18.67669539053663
C           -1.56073092272688      -22.68093038872758       16.62682668986157
C           -1.83385749707170      -23.21888505579086       15.31829463651615
C           -0.61927700327533      -23.60298856285547       14.79161942531305
C            0.37008378332058      -23.29329009001206       15.81387110714103
C            2.70907945328576      -23.23455338899495       16.63165868557429
C            4.12136527894471      -23.47032998694204       16.43873429266969
C            4.73499899120600      -23.15409617140605       17.62990095976675
C            3.66517667265316      -22.70508622451240       18.51700467477763
C            2.89532667350275      -21.66666013651895       20.62941175845325
C            3.15710651946399      -21.12770824452543       21.95154102040835
C            1.98914299392156      -20.57859289806801       22.37697873804456
C            1.02608144415193      -20.79986842454748       21.31666771031530
C           -0.30285656912922      -20.40156247907817       21.37464636208633
H           -0.60938447561077      -19.84209112215217       22.24701584401119
C           -2.51753928025893      -22.13785129877698       17.47333329574552
H           -3.54919232643489      -22.18721443387416       17.15622843140433
C            1.73246832874847      -23.50284649386222       15.68269353577880
H            2.06148523894071      -23.92699879292986       14.74714585649350
C            3.84870803833079      -22.26994633515687       19.81998088092811
H            4.84120186065848      -22.38009523436213       20.23518362338503
C           -4.73836525037119      -20.72121279541370       19.08660819468006
H           -5.20414972424704      -19.90558181011641       19.63365860731977
H           -5.27354335325789      -21.64096386003252       19.32610381208848
H           -4.85891685909890      -20.52884674869133       18.02273712806695
C           -3.32289344577938      -19.53318891744894       21.64046555772203
H           -3.45804590375822      -18.49510804454908       21.33153568255650
H           -2.73193225441766      -19.54091099877130       22.55081205596747
H           -4.30605566176614      -19.94133724049491       21.86930011008327
C           -3.18664473249251      -23.29543720843018       14.70321749763078
H           -3.32517095182944      -22.48513047006551       13.98469788372190
H           -3.96690495492793      -23.21339224111196       15.45416833003870
H           -3.32046027543214      -24.24194675088401       14.18410103427390
C           -0.31754868637950      -24.20127441270113       13.51684939742796
H            0.68872251801027      -24.58923054168419       13.41421778516747
C           -1.12999609365272      -24.32421467592211       12.46747811412657
H           -2.13144214026842      -23.93520152875488       12.45348574262596
H           -0.80803403678534      -24.80667224446644       11.56037052216122
C            4.73958795155630      -23.94906182863142       15.17169488976378
H            4.01368152255876      -23.99740803266806       14.36604662554151
H            5.17051940804172      -24.94289798122838       15.30685540887304
H            5.53144467861660      -23.27236920012603       14.85414462742851
C            6.12987437242073      -23.18743712590365       17.98719623786358
H            6.34893758251770      -22.92967083789890       19.01641832394694
C            7.16784510365617      -23.48506359293840       17.20385070333936
H            7.06723003028556      -23.75584983740718       16.17063682424018
H            8.17804710033384      -23.46271648691191       17.57626554780778
C            4.48669733882338      -21.17531274315256       22.62517018960510
H            5.23494741128663      -20.65473212314959       22.02622166116384
H            4.81941998936852      -22.20596179293786       22.75175887409128
H            4.44800233758034      -20.70585480799607       23.60414408293277
C            1.65477820776251      -19.90283071860837       23.66401107155379
H            2.51394485267173      -19.85906207720434       24.32640039836193
H            0.85550958072589      -20.44120867578592       24.17575151810457
H            1.30691358783273      -18.88494342058727       23.48458457070871
O            0.27171735669404      -23.95413938832327       19.40285751092522
H           -0.02832843341281      -24.58879380387903       18.74676511716464
H            0.40719882520330      -24.28623813614494       20.29224050621429
C           -0.00960292703611      -18.75332778218538       17.75822459799550
H           -0.05104559976996      -18.07871346981563       16.90954906954044
H            0.35229891695920      -18.23153382832641       18.63672889527219
H           -0.97872696480702      -19.19213257961140       17.96095018040398
S            1.19407812148109      -20.07585778134504       17.39663082059677
H            0.50309922125479      -20.57567270671171       16.35448445509988
72
 energy: -105.970297558492 gnorm: 0.019385965796 xtb: 6.7.1 (edcfbbe)
Fe           0.70394927958822      -22.05062757590719       18.57363717405785
N           -1.05687334041885      -21.37588393624476       19.27666489334283
N           -0.22554815286042      -22.73574105720088       16.90507836220300
N            2.45948466064582      -22.74619156144035       17.88512108787790
N            1.58618973312189      -21.47323578272923       20.26678612814688
C           -1.27288588353481      -20.68760153568178       20.42702838368879
C           -2.66746256092876      -20.32578725160290       20.54654207324429
C           -3.28932906581430      -20.83497196450075       19.44812789565752
C           -2.26623796169346      -21.49462754247349       18.67039593913319
C           -1.55763960454825      -22.67938050267819       16.63127820855557
C           -1.83571716699843      -23.21859739066006       15.33014955734688
C           -0.62310783496327      -23.60039523391413       14.80054278073453
C            0.36693559534764      -23.29233324820172       15.81814409614924
C            2.69692170264590      -23.22792984948657       16.63619631731148
C            4.10304092536860      -23.46859399295151       16.44019050275880
C            4.71944180065818      -23.15439258512314       17.62871830603230
C            3.65554169469902      -22.70050056588888       18.51509074659180
C            2.88227175303076      -21.67537941349002       20.61207078997501
C            3.14761755274897      -21.13790905982293       21.93276762939225
C            1.97854554627863      -20.58798135989740       22.36135913169491
C            1.01432743907441      -20.81099384898261       21.30347601777852
C           -0.30426946035201      -20.40988707770325       21.37153983909781
H           -0.60677079758171      -19.86169614280482       22.25095950967785
C           -2.51110633448968      -22.12260586415520       17.46730655863835
H           -3.53926659922034      -22.14848161170729       17.13923139461648
C            1.72692674505648      -23.49713615590991       15.68613615218822
H            2.06347361294374      -23.91854763212874       14.75266294836512
C            3.84409716449031      -22.25638857857239       19.81086008712190
H            4.83920137120727      -22.32941060280296       20.22720979111247
C           -4.72936584413043      -20.72693829148396       19.08307402860022
H           -5.19769400721185      -19.91588289516963       19.63601328468973
H           -5.26079284605232      -21.65164648925874       19.31513550555533
H           -4.84828794265089      -20.52874485367424       18.01899625731462
C           -3.30143335896524      -19.53977606088723       21.64184053892652
H           -3.43093094330045      -18.49913757310391       21.33737271810289
H           -2.70265150824149      -19.55557202966055       22.54791234399105
H           -4.28473705200573      -19.94633327438965       21.87401113886277
C           -3.18680036517469      -23.30666661178912       14.71531400434904
H           -3.32482888706720      -22.50520047592616       13.98628013760201
H           -3.96747132555571      -23.21580177764367       15.46679322025673
H           -3.31480455932675      -24.25951982123484       14.20461117335254
C           -0.31980795434596      -24.19886430097345       13.52759039080729
H            0.68031315767847      -24.60840032065406       13.44493211867261
C           -1.11575331502099      -24.30339190614902       12.46366279411986
H           -2.11656800365095      -23.91338129312478       12.42834396114111
H           -0.77828520081234      -24.79789352105482       11.56799076075955
C            4.72392369462052      -23.94442284211118       15.17548435126460
H            3.99110672612284      -24.01472121904881       14.37570036258795
H            5.17648028231148      -24.92824733710485       15.31465110479760
H            5.50203841206782      -23.25291914374613       14.85215149000593
C            6.11155527566201      -23.18979542670955       17.99099847967658
H            6.31799726293519      -22.91837395127945       19.01938540188914
C            7.15740589895009      -23.49766108762390       17.22364830391007
H            7.08066457840223      -23.77782912598507       16.18893798641328
H            8.15993596000179      -23.46602619262728       17.61786567044736
C            4.46767331707417      -21.18319153911591       22.61497651453872
H            5.21437967733295      -20.65831083420716       22.02053675137955
H            4.79660480649572      -22.21330578899231       22.74510708275295
H            4.41714279672557      -20.71295057826798       23.59338222121522
C            1.66529339927359      -19.91131908160782       23.64780903807500
H            2.53624456667627      -19.87488239428441       24.29581386693149
H            0.87229973863008      -20.44795549495652       24.16785682519555
H            1.32581975119521      -18.89207016380742       23.46907168508632
O            0.23055727157234      -23.96966111081986       19.42463331695849
H           -0.00590070168554      -24.65967929085560       18.78759681344617
H            0.43115801344678      -24.33429444160278       20.29487803191506
C           -0.01608524108405      -18.73196761026185       17.76737762374896
H           -0.05921672390426      -18.04864651302246       16.92608619863511
H            0.34367264719595      -18.21966139369821       18.65284273329396
H           -0.98378985100803      -19.17898770529797       17.96484842350702
S            1.20589557429535      -20.04096308114750       17.39425955981792
H            0.55829100902604      -20.49679623097716       16.29895348291374
72
 energy: -105.971454954530 gnorm: 0.027399044887 xtb: 6.7.1 (edcfbbe)
Fe           0.69641272590219      -22.05707373527371       18.57174057984918
N           -1.05286691084113      -21.36654975092735       19.26708157587439
N           -0.22446413864296      -22.71908853781703       16.90282995953128
N            2.44965588943184      -22.74200997897736       17.88550954642307
N            1.57783453670542      -21.47474387413670       20.25371177553092
C           -1.27128295916810      -20.68575787462839       20.42117667871989
C           -2.66389247345004      -20.32573056320714       20.54368309953744
C           -3.28641631880459      -20.82842921593549       19.44407467831715
C           -2.26412955184942      -21.48090528177484       18.66143732751020
C           -1.55703062192595      -22.66668475446702       16.62959742877592
C           -1.83747311668799      -23.21666521035573       15.33493061212095
C           -0.62733909310775      -23.60010997702651       14.80576157686915
C            0.36382552030418      -23.28418823582575       15.81740646049983
C            2.68766278610870      -23.22380586363470       16.63470765359169
C            4.09179997390916      -23.46704073260172       16.43874117275418
C            4.70928623350693      -23.15122453520069       17.62470323638784
C            3.64986710608370      -22.69382968768545       18.50972324333073
C            2.87513807705604      -21.67419974200885       20.59795886589037
C            3.14080698045195      -21.14216927447354       21.91899030146480