72
 energy: -105.893083615458 gnorm: 0.285697894656 xtb: 6.7.1 (edcfbbe)
Fe          36.71899999999999       13.08400000000000       86.94600000000000
N           34.82099999999999       13.14300000000000       87.42400000000001
N           37.12400000000000       12.42700000000000       88.74400000000000
N           38.61199999999999       13.07000000000000       86.47799999999999
N           36.33200000000000       13.89700000000000       85.22400000000000
C           33.75200000000000       13.59500000000000       86.65899999999999
C           32.47300000000000       13.49400000000000       87.38199999999999
C           32.79300000000000       13.04600000000000       88.61600000000000
C           34.24000000000000       12.82200000000000       88.63199999999999
C           36.27799999999999       12.21800000000000       89.79399999999998
C           36.96600000000000       11.63000000000000       90.93200000000000
C           38.26100000000000       11.50700000000000       90.58400000000000
C           38.34100000000000       11.97900000000000       89.22699999999999
C           39.65000000000000       12.51700000000000       87.19399999999999
C           40.91900000000000       12.59800000000000       86.48000000000000
C           40.65600000000000       13.26100000000000       85.33300000000000
C           39.22800000000000       13.54200000000000       85.34199999999998
C           37.21300000000000       14.25200000000000       84.22499999999999
C           36.53700000000000       14.81800000000000       83.07700000000000
C           35.23300000000000       14.80300000000000       83.36699999999999
C           35.10000000000000       14.27800000000000       84.71999999999998
C           33.88700000000000       14.18600000000000       85.41200000000001
H           32.99600000000000       14.60300000000000       84.94300000000000
C           34.92400000000000       12.43500000000000       89.73800000000000
H           34.35299999999999       12.28500000000000       90.65400000000000
C           39.51400000000000       12.00400000000000       88.48399999999999
H           40.40700000000000       11.58600000000000       88.94999999999999
C           38.57100000000000       14.12100000000000       84.30300000000000
H           39.16700000000000       14.50700000000000       83.47600000000000
C           31.80600000000000       12.83700000000000       89.75699999999999
H           31.54600000000000       11.75900000000000       89.83000000000000
H           30.88000000000000       13.41900000000000       89.56300000000000
H           32.26500000000000       13.16200000000000       90.71500000000000
C           31.05800000000000       13.68000000000000       86.86799999999999
H           31.07200000000000       13.74400000000000       85.75900000000000
H           30.63000000000000       14.62000000000000       87.27800000000001
H           30.43200000000000       12.81400000000000       87.17100000000001
C           36.32599999999999       11.23600000000000       92.26899999999999
H           35.97500000000000       10.18300000000000       92.21599999999999
H           35.45700000000000       11.89600000000000       92.47799999999999
H           37.07500000000000       11.32600000000000       93.08499999999998
C           39.35500000000000       11.13000000000000       91.35799999999999
H           40.26900000000000       11.71900000000000       91.21200000000000
C           39.49099999999999       10.07600000000000       92.33700000000000
H           38.64100000000000        9.41700000000000       92.56999999999999
H           40.44599999999999        9.92000000000000       92.86099999999999
C           42.22900000000000       12.03200000000000       86.97599999999998
H           42.08200000000000       10.97600000000000       87.28799999999998
H           42.58500000000000       12.62000000000000       87.84899999999999
H           42.98399999999999       12.06500000000000       86.16200000000001
C           41.54299999999999       13.72400000000000       84.35700000000000
H           41.57200000000000       14.80500000000000       84.15800000000000
C           42.44400000000000       12.91100000000000       83.56699999999999
H           42.47700000000000       11.82000000000000       83.70399999999999
H           43.10500000000000       13.37500000000000       82.82100000000000
C           37.14099999999999       15.32900000000000       81.76599999999999
H           38.07000000000000       14.76300000000000       81.54000000000001
H           37.39099999999999       16.40700000000000       81.86299999999999
H           36.41700000000000       15.18000000000000       80.93600000000001
C           34.11799999999999       15.19200000000000       82.39300000000000
H           34.15200000000000       14.52600000000000       81.50500000000000
H           34.25899999999999       16.24300000000000       82.06100000000001
H           33.13000000000000       15.08000000000000       82.88900000000000
O           36.73000000000000       15.02000000000000       87.72900000000000
H           35.83300000000000       15.19400000000000       88.01400000000000
H           37.41900000000000       15.57800000000000       87.79099999999998
C           35.17200000000000       10.34100000000000       86.06399999999998
H           35.21500000000000        9.24200000000000       85.90999999999998
H           34.66499999999999       10.79100000000000       85.18399999999998
H           34.56300000000000       10.53600000000000       86.97299999999998
S           36.84199999999999       11.04900000000000       86.26000000000001
H           37.05800000000000       10.50800000000000       87.45000000000000
72
 energy: -105.949457828839 gnorm: 0.108082217194 xtb: 6.7.1 (edcfbbe)
Fe          36.72195046381543       13.09004933175287       86.94769167629778
N           34.79364134152510       13.14877513335708       87.42478369530231
N           37.13570889024462       12.41618433271687       88.76389268691176
N           38.63973403978556       13.08337673385875       86.48803655455863
N           36.31839749399875       13.90313825193362       85.19853451826019
C           33.74608054301101       13.59624085388785       86.65267244562104
C           32.47972452389198       13.48439369183901       87.37176161235010
C           32.79187376653597       13.04540065726117       88.61652376123781
C           34.22835872651691       12.83865250963553       88.63654711355996
C           36.27623891193888       12.20210257207992       89.80249147951740
C           36.95264764098962       11.62596961877423       90.94120260031670
C           38.26537982752729       11.49708025815623       90.58900435326575
C           38.35552477313235       11.99016355927864       89.22870691855388
C           39.65550124430267       12.51195751772499       87.20494993145233
C           40.91451676511730       12.58256597506076       86.49066122414143
C           40.66069454511941       13.25377720459351       85.33332616110742
C           39.23666582488519       13.54533321561565       85.34901183527974
C           37.20804428190603       14.26262220776055       84.21921959674621
C           36.53384288565670       14.81852370746770       83.06990564207072
C           35.21393299791154       14.80348321644813       83.36523798244177
C           35.08858259339222       14.26848365045586       84.70934534499943
C           33.88831283169239       14.16953300728714       85.40287971248125
H           33.00262273336200       14.58744431303451       84.94000910488589
C           34.91706641126132       12.43295204673495       89.74990670072368
H           34.34850232925127       12.27413187800647       90.65634970504748
C           39.52076597163438       12.00122008657249       88.48518812424489
H           40.40737243021742       11.58861126734898       88.94960690044728
C           38.57427599037787       14.12782855000645       84.29904127360901
H           39.16758466348370       14.49854367374489       83.47194989562537
C           31.82234456055794       12.83260383440804       89.74896554248470
H           31.55249470268100       11.77242284870619       89.83324488514056
H           30.90617286947082       13.40535300219166       89.56761396029397
H           32.25588102660765       13.15584163270653       90.70142351072414
C           31.08019282872931       13.68648360108629       86.85908878563268
H           31.06925469609579       13.74744918356017       85.76733842349188
H           30.63879144982668       14.60509339919109       87.26706407911446
H           30.45140978984428       12.83947842985460       87.16238667923218
C           36.32493727660800       11.24352154181476       92.25605480680474
H           35.97795829845346       10.20329436221664       92.21628786483035
H           35.46889877489287       11.88698879897815       92.48045838681846
H           37.06218809187957       11.32690162758446       93.06311652559205
C           39.38038485070408       11.10030407615097       91.38154338734030
H           40.28185779545814       11.69083968159432       91.22046264428350
C           39.47938075248435       10.11110961405516       92.31274505550728
H           38.65485263604165        9.44500100222077       92.54464995389817
H           40.41430525611835        9.94074044510308       92.83686653381072
C           42.21837893658734       12.03152789638142       86.97794262629063
H           42.08908897873852       10.98850930037452       87.28710191020986
H           42.58219287689393       12.60772241205372       87.83746340729974
H           42.96820802636498       12.07118437835589       86.18044594069951
C           41.57164932438602       13.70512151544713       84.32432492661536
H           41.58068000917071       14.77968467845660       84.13117189658119
C           42.42226525711273       12.93482823180004       83.59568491681945
H           42.45780612656299       11.85646001810257       83.71256350739155
H           43.07883623688581       13.37493761085384       82.85273572923575
C           37.14422815535607       15.31658875366821       81.78272799474225
H           38.06141190869014       14.77011485963272       81.54229871612284
H           37.38602242720435       16.38397284503969       81.86283053157838
H           36.43426686834717       15.18344637199587       80.95875599620803
C           34.11542817334079       15.19104092875461       82.40980251631525
H           34.14960256520023       14.53930165907446       81.52723706332974
H           34.25070993458817       16.22507375559363       82.07209203122916
H           33.13441062466668       15.08700060290103       82.87842307155040
O           36.72399119937038       15.02230952045811       87.73397614929239
H           35.83481218882883       15.22202363158897       88.02544954077182
H           37.44096792969727       15.62401696400267       87.80468808627147
C           35.14848716556516       10.32210867853622       86.06602476768377
H           35.21468230218157        9.24206849625108       85.90921047152200
H           34.67614203996118       10.79008819418570       85.19793736844429
H           34.56427955650178       10.53860935680602       86.96417292879947
S           36.81981620489989       11.01754178415270       86.23120042974956
H           37.05378388395826       10.48575145171484       87.43298789918840
72
 energy: -105.961889052176 gnorm: 0.042099438052 xtb: 6.7.1 (edcfbbe)
Fe          36.72638613900795       13.10216044245808       86.95238522246025
N           34.77273593036180       13.15994180413169       87.43251709682508
N           37.14502132261875       12.40410262527174       88.78147415751447
N           38.66412293557080       13.09997504646680       86.49763541775970
N           36.30967502080635       13.91206724644471       85.17807645520568
C           33.74070701203470       13.58981599987868       86.64892832152508
C           32.48500270264422       13.47751821758445       87.36278324744201
C           32.79226666351858       13.04720332863768       88.61714518680765
C           34.22106026697620       12.85172966231089       88.64328663383108
C           36.27571769457986       12.18503780947890       89.80822006928695
C           36.95034347680183       11.62287925095358       90.94774936898915
C           38.26947020573642       11.50015923895655       90.59294437477344
C           38.36432622495594       11.99681373630620       89.23252564294380
C           39.66331483940009       12.51771624348857       87.21614949042805
C           40.91377711141883       12.57787140392382       86.49839436658726
C           40.66190807243272       13.25825128218377       85.34169169088949
C           39.24277414200924       13.55297573615023       85.35705674137127
C           37.20431435624797       14.27063034802748       84.21483186377640
C           36.52828649582720       14.81722719204018       83.06463874116545
C           35.19976613717450       14.79991216792332       83.36070824721106
C           35.08124755249302       14.25453241204690       84.69613098784237
C           33.88718743374426       14.13827677765878       85.38779159501465
H           33.00123097407384       14.54414882249545       84.92249115950099
C           34.91348045515172       12.42444573674764       89.75762749277858
H           34.34380714215542       12.25165083633374       90.65630163875350
C           39.52907264785012       12.00174676680760       88.49060632109118
H           40.41238871131609       11.59051720802862       88.95369417882863
C           38.57563869002838       14.13354874005746       84.29842451784462
H           39.16801813282918       14.48441387864774       83.46692013875972
C           31.83647247932461       12.82783256997700       89.74226501678460
H           31.56782706626361       11.77479827493204       89.83102211098708
H           30.92467407656051       13.39504502244438       89.56784555885042
H           32.26189749699988       13.15014270401183       90.68979738028072
C           31.10038747623051       13.69489967449420       86.84508298876732
H           31.08110568348316       13.75719945608110       85.76220216572162
H           30.66088475929404       14.60537521908469       87.25462813218567
H           30.46815603665380       12.85958688405185       87.14941114543173
C           36.32743289965143       11.24839211352092       92.24630845289904
H           35.97681744515495       10.21578600525472       92.21518147661628
H           35.47907340519849       11.88622887544014       92.47917235953017
H           37.05967154706590       11.32971131372177       93.04730620850961
C           39.40196337692754       11.09035866711839       91.39246729274271
H           40.29743344256343       11.67764370405556       91.21066606395719
C           39.47054175270299       10.12851065535430       92.28685764254078
H           38.65149675061286        9.47086125161041       92.52278824926404
H           40.38438075905179        9.95085457126159       92.83130602748224
C           42.21210793930696       12.03112310395125       86.98039645568467
H           42.09628668008236       10.99314675285742       87.28707368832701
H           42.57663381524898       12.60000960197377       87.83571328204573
H           42.95762021900924       12.08210850643056       86.19129831046880
C           41.58428183155277       13.69790960852218       84.30620423151079
H           41.57109030860664       14.76878339955146       84.11687086470491
C           42.39917408478239       12.94447709984033       83.61018721103451
H           42.44660267591418       11.87462802177277       83.72883207649164
H           43.06636155250629       13.36619667988708       82.87562454266163
C           37.14467029331669       15.30633660680740       81.79712045250979
H           38.05635990467372       14.76677130457189       81.55778942607148
H           37.38530726613516       16.36785882015283       81.87235661760108
H           36.44430596140626       15.18154790753311       80.97367893250237
C           34.10748132504376       15.19148209236116       82.42489370140098
H           34.13970043337947       14.54919963009464       81.54301837048308
H           34.24037736938187       16.21867436272258       82.08864400480920
H           33.12890444951729       15.09390076837136       82.88007534766065
O           36.73547131558938       15.04419434471019       87.74869796918284
H           35.85704914841929       15.28718072035578       88.04790389142022
H           37.44903427018770       15.67381354253012       87.82207000679841
C           35.12162601783328       10.30291606180492       86.06375528077280
H           35.19313272080609        9.23264531960872       85.90754921554976
H           34.66724373708291       10.78235364762554       85.20427249463476
H           34.55587622506744       10.53602205605508       86.95742724021601
S           36.79958820551755       10.98942619296551       86.20291051210073
H           37.05744730612638       10.43979692308625       87.39919723359699
72
 energy: -105.966347959817 gnorm: 0.018736010961 xtb: 6.7.1 (edcfbbe)
Fe          36.73050181691998       13.11455583792239       86.95959602560450
N           34.77030761763668       13.16670656053337       87.43896914474558
N           37.15020805620151       12.40198527451742       88.78864802844950
N           38.67347677515576       13.11690736151594       86.50820030671281
N           36.30664502057539       13.91640215136673       85.17414222788177
C           33.74113455716998       13.57756311564823       86.64660393804128
C           32.48899372297634       13.46944461764291       87.35700831209677
C           32.79443019283472       13.04450640155757       88.61524040650529
C           34.22202545809922       12.85553408755293       88.64709750075221
C           36.27779031918273       12.17659333226043       89.80969324465165
C           36.95738791149432       11.62237457165727       90.94978991132899
C           38.27706851339800       11.50994035638122       90.59345797410309
C           38.36994164108263       12.00382792327914       89.23520528795822
C           39.66909336212709       12.52995237374764       87.22413548903445
C           40.91619656508113       12.58638851871616       86.50304356519554
C           40.66047636099395       13.27169011971474       85.35032665496426
C           39.24357880797474       13.56585863705669       85.36540801370963
C           37.20117984075554       14.27424120681598       84.21554138833878
C           36.52153271929608       14.81254285134263       83.06355482248004
C           35.19139911762088       14.79005801619631       83.35723507295903
C           35.07684242542635       14.23785648506838       84.68826707424334
C           33.88347944355848       14.10256955271131       85.37410432426208
H           32.99050269571053       14.47578489543883       84.89444130461017
C           34.91476592023301       12.41439873059187       89.75900293426083
H           34.34134743572666       12.22113621333847       90.65208096484317
C           39.53666732537351       12.00931436746925       88.49613820512671
H           40.41958549646334       11.59621919289438       88.95794706277991
C           38.57373545032546       14.13941367730207       84.30223258692712
H           39.16625061566910       14.47187961735881       83.46309064186738
C           31.84518650899850       12.82031642269640       89.74046631341035
H           31.58395813227588       11.76606860312579       89.83067186570693
H           30.93074251128319       13.38252000461748       89.56996539554346
H           32.27240425469022       13.14432285319494       90.68605171482098
C           31.11345369843821       13.70469793657280       86.83063003309468
H           31.09990980853971       13.77079321098861       85.74839621132924
H           30.68483511573911       14.61947886481420       87.23970664909906
H           30.46986958117617       12.87775580198204       87.12979050538699
C           36.33272306885814       11.25230752956892       92.24596713609719
H           35.97405369325636       10.22273812502080       92.21678798748788
H           35.48816272792899       11.89455809050003       92.48051837830872
H           37.06546152636465       11.33066562055848       93.04547431353544
C           39.41773113705052       11.09976743998372       91.38939085600271
H           40.31842255934270       11.67448790519123       91.19735620270112
C           39.45747361925284       10.13553309911346       92.29783365936646
H           38.62823400230003        9.48505698922211       92.51135080494066
H           40.36513436649599        9.93090398148223       92.84284026758942
C           42.21257404487036       12.03720558709930       86.98384904365889
H           42.10200968069525       10.99653653128890       87.28279112599411
H           42.57367163114485       12.59872353518739       87.84500262663340
H           42.95892283896920       12.09899529808775       86.19772134508881
C           41.58018286724306       13.70894588952822       84.30557563402469
H           41.55145519698642       14.77598593873346       84.10225792835990
C           42.40917453129607       12.93743834995098       83.62236437918980
H           42.44415321621009       11.86905418302898       83.74800289698088
H           43.06674556322975       13.34439411463227       82.87148567017017
C           37.14599615428093       15.29986987494532       81.80393453655434
H           38.05808950900924       14.75840649094666       81.57207861247467
H           37.38945834148864       16.35992925427682       81.88187221097809
H           36.45182133787374       15.17859568868335       80.97580617868212
C           34.09442343807087       15.19330573046190       82.43472356151925
H           34.11753835195341       14.55949336334746       81.54718371878126
H           34.22742393233604       16.22278754401065       82.10709667128449
H           33.11643377159237       15.09869030540449       82.89190202726213
O           36.76055434810355       15.07725063225633       87.77354937811320
H           35.89011804053238       15.36205007284908       88.06867771667817
H           37.46751327410579       15.72135649335468       87.83391020114024
C           35.08993040974558       10.28890900951665       86.05737851205576
H           35.15751842698705        9.21831271795841       85.90257342644765
H           34.63256923044082       10.77143950552565       85.20274523329240
H           34.53728806677396       10.52991487618085       86.95692150126085
S           36.77290752615774       10.97691769898659       86.17204946628775
H           37.06422477284769       10.38087278752567       87.34214568823113
72
 energy: -105.969688604932 gnorm: 0.018561583172 xtb: 6.7.1 (edcfbbe)
Fe          36.73447852650672       13.12120200138643       86.96631647577475
N           34.77303987701902       13.17406434281744       87.44663318178688
N           37.15543670726993       12.39148306902177       88.79081059268975
N           38.68096035379071       13.13088179296273       86.51764928364523
N           36.30567975442030       13.92608162692666       85.17545928614291
C           33.74466427191082       13.56507004355572       86.64702386205552
C           32.49267458802409       13.45636175452007       87.35180730650345
C           32.79694337090194       13.03914739315063       88.61377616826914
C           34.22562178310211       12.85611438987956       88.65033332229193
C           36.28176352675916       12.16232508734136       89.80843952596165
C           36.96710571532020       11.61493850303460       90.95122114311606
C           38.28684422596201       11.51762010497566       90.59532138534743
C           38.37683004544323       12.01109100343042       89.23887208125339
C           39.67705808939292       12.54497364972450       87.23122032278503
C           40.92203773812921       12.59784342951531       86.50436292832659
C           40.65999833274167       13.28507574249100       85.35487169086862
C           39.24432811745867       13.58222175024023       85.37456210557825
C           37.19835940551837       14.28093869488699       84.21816439764876
C           36.51406171884063       14.80862622565273       83.06221956981791
C           35.18365230176630       14.77537496518396       83.35180760124524
C           35.07389558261813       14.22369990290801       84.68293939050059
C           33.88039855926404       14.05938161308429       85.36024573084249
H           32.97599624898536       14.37876735952971       84.85766100981135
C           34.91856755604149       12.39619847757785       89.75669745437342
H           34.34105329678287       12.17938014087293       90.64310516540006
C           39.54711467296918       12.02169808589434       88.50297217769808
H           40.43023778479842       11.60699655651683       88.96329144934876
C           38.57130348422503       14.14692462832264       84.30764124386455
H           39.16464379386812       14.46109474620823       83.46185885261988
C           31.85269092849432       12.80987439193449       89.74135522719291
H           31.60385945114330       11.75157296689956       89.83290184797026
H           30.93096668169512       13.36305349251721       89.57549352541898
H           32.28449250600408       13.13771479947104       90.68494075861646
C           31.12602080342450       13.71570920887987       86.81506806328238
H           31.12654581794684       13.78776963496134       85.73183159104332
H           30.71582149600818       14.64133553569941       87.22137649403389
H           30.46022175241629       12.90150234249620       87.10296164939064
C           36.34052276484226       11.25484829364315       92.25030794960556
H           35.96666104102109       10.22936641896721       92.22388942027040
H           35.50345666582250       11.91043823160641       92.48250900976821
H           37.07562580605391       11.32733740884710       93.04938591086771
C           39.43357059954106       11.10425252738245       91.38339478249736
H           40.34047345435049       11.66513884683751       91.19158125362672
C           39.44757601898693       10.13307510128403       92.29319540101254
H           38.58728538769076        9.52363419215676       92.50843791164776
H           40.33952561669673        9.91513339352874       92.86000959979928
C           42.21813242555758       12.04899216931713       86.98651408948943
H           42.11095981616393       11.00226348558821       87.26992111106752
H           42.56858088587330       12.59968908761634       87.86081189583878
H           42.96989014439479       12.12702008624068       86.20573275235425
C           41.56995525045480       13.71615463423344       84.29801582285418
H           41.53161702229076       14.77711246752068       84.07509567986877
C           42.40067567457535       12.92841396981146       83.62552614904168
H           42.45347750463146       11.86685929449779       83.80182380827591
H           43.06887465579484       13.32292507482607       82.87729429017813
C           37.14809270200541       15.29603750864562       81.80795392032601
H           38.06028182291168       14.74741688989263       81.58695434452321
H           37.39960553415801       16.35484741804863       81.89063134532910
H           36.46155943924489       15.17919363452422       80.97164297708494
C           34.07911662441366       15.19368317513912       82.44328932245638
H           34.08429772623462       14.57224543593728       81.54545673292421
H           34.21361155352910       16.22899747823064       82.13014057381147
H           33.10448083936407       15.10204644706518       82.91228386110132
O           36.79944534410408       15.11098967055167       87.82207021965513
H           35.93747863437678       15.46624514181147       88.08193602738740
H           37.48620523376182       15.78596497443762       87.83614592784610
C           35.04837766968506       10.27771662406389       86.04919173624174
H           35.10549226952641        9.20468567993282       85.90060016137680
H           34.57793848155954       10.75583000173202       85.19832658200487
H           34.51195446226558       10.52649855369703       86.95796205434617
S           36.74451662893718       10.95476248656029       86.13159153618622
H           37.07231543221500       10.31907474135326       87.27416197681789
72
 energy: -105.971057363981 gnorm: 0.024898263275 xtb: 6.7.1 (edcfbbe)
Fe          36.73811382684340       13.12677784110630       86.97269436427777
N           34.77952909079640       13.17416045162449       87.44944863364704
N           37.15913167192669       12.37838636594440       88.78731206405449
N           38.68316239520097       13.13498899366992       86.52144801171849
N           36.30765183756634       13.93623617633514       85.18112130145009
C           33.74943466574446       13.55139751517742       86.64589230363163
C           32.49544919699822       13.44327485186566       87.34908352155428
C           32.79926266220029       13.02984561644869       88.61201249568602
C           34.22978512384629       12.84865398998928       88.64973708973592
C           36.28532844407214       12.14781367922038       89.80431987592111
C           36.97361420032342       11.60825138278890       90.95180148401955
C           38.29350069595750       11.52167554333848       90.59991102679467
C           38.38155395046565       12.00968627901835       89.24046658231588
C           39.68248490763207       12.55388317985683       87.23481391627740
C           40.92827898372928       12.61160805062975       86.50704190516913
C           40.66282796692610       13.29506591043534       85.35708454435880
C           39.24503046134992       13.58926712141869       85.37776512137089
C           37.19819904416789       14.28710875918759       84.22057995907254
C           36.51081961359423       14.80692580502201       83.06103778441138