87
 energy: -124.720510714708 gnorm: 0.000189049090 xtb: 6.7.1 (edcfbbe)
Fe         -20.33135903696397       21.44210144800604      -51.44778757292479
N          -21.20660525866541       21.85488353948276      -53.19423462517675
N          -19.43355118177544       23.23254835779251      -51.47665210359870
N          -19.44813439930570       21.03365093412273      -49.69050612233340
N          -21.29216286470911       19.68428316986832      -51.37408351061084
C          -22.06028395525900       21.05688369734120      -53.88602303561449
C          -22.44368221242830       21.67929659783501      -55.13538823960276
C          -21.80117487111827       22.87573650422274      -55.17749595457662
C          -21.03606328904469       22.96744130807118      -53.95259428650164
C          -19.54018887486884       24.18491110969160      -52.44000674566340
C          -18.77014698430596       25.35729853174665      -52.08782753316115
C          -18.19533716334301       25.08835177304288      -50.88478030776992
C          -18.62212831583848       23.75573876893257      -50.52072859564778
C          -18.61347571041355       21.84054045112140      -48.98777957115408
C          -18.16351037314949       21.18266881225464      -47.77678364818557
C          -18.78552776035181       19.96215819379539      -47.75671930182275
C          -19.58864437493528       19.89878212439316      -48.95048664839762
C          -21.21520381964207       18.75129546158961      -50.39044099502507
C          -22.07002505527633       17.61887498742554      -50.69040692062892
C          -22.67554050260033       17.91144640112250      -51.88382222473161
C          -22.17282738912434       19.19921134680734      -52.28835930476203
C          -22.52594684796252       19.82704202622067      -53.47028818306846
H          -23.21364280444631       19.31015507346882      -54.12184820713006
C          -20.26853736013094       24.06420284673066      -53.60911931987780
H          -20.23924179547440       24.89115773064117      -54.30227199182880
C          -18.22254324149576       23.11209987681913      -49.36532467859833
H          -17.55118703610065       23.64431774848451      -48.70914592981681
C          -20.40636899285194       18.82863229336224      -49.27300388355349
H          -20.41464037990517       17.98988802579698      -48.59375891843419
C          -23.36637452893335       21.06621000659463      -56.13200118498159
H          -24.34538347995406       20.88380455340516      -55.68775415024425
H          -22.97098117773663       20.11263684869102      -56.48201672297252
H          -23.49708043593372       21.71898856581064      -56.99163707655222
C          -21.82741932565646       23.92755607877687      -56.23316301103603
H          -20.82289337219177       24.10944806269841      -56.61529806212279
H          -22.21193405754406       24.86660324201446      -55.83333265999386
H          -22.46032013121001       23.62574751093593      -57.06401988961485
C          -23.70411128938696       17.12394838886475      -52.61751580859455
H          -23.25211320187309       16.55774819670899      -53.43375374881814
H          -24.46097049730770       17.78149681696233      -53.04252882007015
H          -24.19042416437220       16.42323269517719      -51.94176635335074
C          -22.22890088140574       16.45836705346428      -49.84262563917211
H          -22.14808966968447       16.64149141343880      -48.77710347511500
C          -22.45107526104075       15.21811899337857      -50.26579557634486
H          -22.49180953373531       14.96821226187421      -51.31155634114437
H          -22.57308293412907       14.40049641274470      -49.57481364412136
C          -18.73473990882642       18.91546354058551      -46.69897475006343
H          -18.05416888463104       18.10934427004581      -46.97906435519749
H          -19.72038316370505       18.48115786628402      -46.53719138721434
H          -18.38792180031143       19.34821353162563      -45.76281378877087
C          -17.25933678469712       21.76351199968565      -46.80924806542195
H          -17.33454419526974       22.83750092238725      -46.68312139264663
C          -16.36300651342685       21.09264224483537      -46.09305462639212
H          -16.21171522184536       20.03368718156603      -46.21061589850514
H          -15.72821449844690       21.58836159863069      -45.37740005314186
C          -17.29495592245613       25.93919540809011      -50.05675370152456
H          -17.12743036988140       26.90260177360250      -50.53216251415855
H          -16.32887979318783       25.45286605302778      -49.91832198861447
H          -17.72957350841495       26.11309043469589      -49.07206767497387
C          -18.66692743227992       26.58062019865820      -52.93301088259980
H          -18.03760732173348       27.32796568025995      -52.45608734258789
H          -19.65174304747941       27.01780839847508      -53.10053373486363
H          -18.23546989786240       26.33926765655691      -53.90488026822103
C          -24.45920063795196       22.64705827980351      -47.88828942409526
H          -25.48160627896518       22.62925280903270      -48.26569092190964
H          -24.34472282233775       23.52727557004393      -47.25563638668962
H          -24.29613403044363       21.76052060280612      -47.28357299993812
N          -23.45503991928090       23.67700478847846      -49.93848849372079
H          -24.06842749970645       24.47504001015392      -49.96177007224648
C          -23.48407040800203       22.67154667775367      -49.00770814067751
C          -22.45966781975219       23.39994874048309      -50.81013841661420
H          -22.20487434107501       24.01606341892009      -51.64742290323397
N          -21.85734003308591       22.28163808794699      -50.48809325528318
C          -22.48284384740449       21.81663026580270      -49.36956675636426
H          -22.17420951094829       20.90484813091438      -48.90241152228127
C          -16.52166168062899       22.28797375731702      -53.06103987639045
H          -15.58190821630331       22.71705912117942      -52.71902993719481
H          -17.28051777488088       23.06460667625795      -53.05677928876270
H          -16.39667196393752       21.93370296292487      -54.08151886431987
C          -16.93204969509102       21.14579349401332      -52.15207025938152
H          -17.05117980824307       21.48240166852234      -51.12360057174563
H          -16.20194852285903       20.33753463174305      -52.19503640787509
S          -18.53703650154457       20.43803846176233      -52.70650611544001
C          -18.30865255790213       18.75764207899251      -52.04831645546302
H          -18.16108727103440       18.79976282823404      -50.97389839938981
H          -17.45753618692459       18.29625163977598      -52.54237872962021
H          -19.21334861364460       18.20340029643368      -52.27238285203359
