78
 energy: -115.499448735071 gnorm: 0.272438806876 xtb: 6.7.1 (edcfbbe)
Fe          14.59400000000000       27.96800000000000        4.72000000000000
N           14.94600000000000       29.20200000000000        6.28000000000000
N           13.85600000000000       26.59500000000000        6.04600000000000
N           14.40000000000000       26.59800000000000        3.23500000000000
N           15.52000000000000       29.25100000000000        3.44700000000000
C           15.44900000000000       30.52300000000000        6.18300000000000
C           15.36300000000000       31.15700000000000        7.45400000000000
C           14.82000000000000       30.25600000000000        8.35300000000000
C           14.53400000000000       29.10000000000000        7.58200000000000
C           13.58000000000000       26.78500000000000        7.39400000000000
C           12.94300000000000       25.63600000000000        7.94200000000000
C           12.79600000000000       24.71500000000000        6.96600000000000
C           13.33400000000000       25.33400000000000        5.73500000000000
C           13.94500000000000       25.28400000000000        3.32000000000000
C           14.14600000000000       24.58900000000000        2.11000000000000
C           14.75000000000000       25.46400000000000        1.25500000000000
C           14.94400000000000       26.69900000000000        1.95700000000000
C           15.74500000000000       29.01800000000000        2.12300000000000
C           16.48200000000000       30.19300000000000        1.60500000000000
C           16.63200000000000       31.05500000000000        2.56100000000000
C           16.01700000000000       30.53200000000000        3.75100000000000
C           15.96600000000000       31.09000000000000        4.99600000000000
H           16.37400000000000       32.09600000000000        5.08600000000000
C           13.91500000000000       27.93600000000000        8.07900000000000
H           13.66900000000000       27.94500000000000        9.14000000000000
C           13.41600000000000       24.75700000000000        4.50700000000000
H           13.01600000000000       23.74600000000000        4.43500000000000
C           15.49100000000000       27.86700000000000        1.46500000000000
H           15.75200000000000       27.85900000000000        0.40700000000000
C           14.55500000000000       30.39800000000000        9.83400000000000
H           14.87300000000000       31.40700000000000       10.17200000000000
H           15.13300000000000       29.63200000000000       10.39400000000000
H           13.46900000000000       30.27600000000000       10.03400000000000
C           15.76400000000000       32.60300000000000        7.75500000000000
H           15.61200000000000       33.22700000000000        6.84800000000000
H           16.83600000000000       32.64300000000000        8.04400000000000
H           15.13400000000000       33.00400000000000        8.57800000000000
C           12.50800000000000       25.52500000000000        9.40300000000000
H           12.08000000000000       26.49400000000000        9.73700000000000
H           13.38600000000000       25.28000000000000       10.03800000000000
H           11.73300000000000       24.73500000000000        9.50500000000000
C           12.25200000000000       23.32100000000000        7.02000000000000
H           11.70000000000000       22.91700000000000        6.15900000000000
C           12.40700000000000       22.54300000000000        8.06900000000000
H           12.95200000000000       22.90200000000000        8.95500000000000
H           11.99400000000000       21.52400000000000        8.07400000000000
C           13.78800000000000       23.13700000000000        1.85300000000000
H           13.03600000000000       22.80300000000000        2.59900000000000
H           14.69600000000000       22.50400000000000        1.94900000000000
H           13.35700000000000       23.03100000000000        0.83400000000000
C           15.34700000000000       25.23699999999999       -0.09900000000000
H           16.00200000000000       26.02300000000000       -0.49900000000000
C           15.18100000000000       24.20500000000000       -0.87100000000000
H           14.54200000000000       23.36800000000000       -0.55400000000000
H           15.67800000000000       24.15500000000000       -1.85100000000000
C           16.95400000000000       30.29799999999999        0.12700000000000
H           16.10400000000000       30.06800000000000       -0.55100000000000
H           17.77100000000000       29.56900000000000       -0.05900000000000
H           17.31100000000000       31.32900000000000       -0.08100000000000
C           17.45300000000000       32.35500000000000        2.53500000000000
H           16.77500000000000       33.21900000000000        2.36500000000000
H           18.19600000000000       32.31300000000000        1.71000000000000
H           17.97200000000000       32.49000000000000        3.50800000000000
O           16.52500000000000       27.10600000000000        4.96200000000000
H           16.54400000000000       26.33700000000000        4.39200000000000
H           17.18700000000000       27.39099999999999        5.48200000000000
C            9.49200000000000       29.44000000000000        2.54100000000000
H            9.53300000000000       30.39099999999999        1.96900000000000
H            8.58500000000000       29.44400000000000        3.18300000000000
H            9.44700000000000       28.59100000000000        1.82600000000000
N           11.00700000000000       30.23800000000000        4.34500000000000
H           10.43900000000000       31.02300000000000        4.59100000000000
C           10.71200000000000       29.31800000000000        3.39300000000000
C           12.18100000000000       29.89699999999999        4.87800000000000
H           12.65500000000000       30.46200000000000        5.68100000000000
N           12.67400000000000       28.80900000000000        4.31100000000000
C           11.76200000000000       28.43700000000000        3.33900000000000
H           11.94300000000000       27.58200000000000        2.69900000000000
78
 energy: -115.547042560595 gnorm: 0.109354654273 xtb: 6.7.1 (edcfbbe)
Fe          14.57847423937968       27.96573722092952        4.73041649421046
N           14.93202148343072       29.23007580943475        6.27830537437549
N           13.82655487102746       26.58933318451093        6.05122464202146
N           14.41492614469380       26.58166127984256        3.22842230311461
N           15.50843700138597       29.26425496085648        3.44696369862347
C           15.44249420834269       30.52358112774744        6.18612967674726
C           15.36282450284419       31.16646644185361        7.45159097548249
C           14.81697265192700       30.25474622073837        8.34684096214534
C           14.54132443668551       29.08572535975522        7.58189704740830
C           13.58056666506772       26.78303592422341        7.39024424950229
C           12.94117925430898       25.62886124452534        7.95286922412999
C           12.79102096201063       24.70767841235108        6.95578290390076
C           13.33498028067113       25.33105585704245        5.74327192481717
C           13.94680718385048       25.28617495008681        3.32242899631016
C           14.14549632801333       24.58439565767967        2.11007615628688
C           14.77652028840468       25.46750666836376        1.24218587870258
C           14.93081147013732       26.70211967436956        1.95296906982979
C           15.76069763629222       29.03436022696426        2.13082200401002
C           16.48134017275828       30.18820640379307        1.57592668854520
C           16.65096671432835       31.07001245420356        2.57245390527795
C           16.02345180533721       30.52237997451893        3.75770880875955
C           15.96666006771238       31.08896460662909        5.00132730856423
H           16.37475564647962       32.08918002119209        5.09203090134140
C           13.92052975630203       27.93106001196939        8.08474855514974
H           13.66981617465530       27.94709771198306        9.13844132297906
C           13.40612911953144       24.74917360791994        4.51038306460664
H           13.01466771939044       23.74178146762976        4.43667061868310
C           15.48929857216497       27.87338114398885        1.45169651844066
H           15.75933750149636       27.86073986144464        0.40297689011313
C           14.55726023614808       30.40239588263841        9.81480432991872
H           14.86791984696937       31.39079037937512       10.16509635424777
H           15.11762257287276       29.64810049963069       10.37969205931158
H           13.49019212039969       30.27592274797242       10.03235985977504
C           15.76147387626159       32.58925384173750        7.74664367555053
H           15.61632804111129       33.21953184745222        6.86402882437916
H           16.81600333000101       32.64206866641992        8.04012286958591
H           15.15168451301680       32.99255751645121        8.56109233861656
C           12.50898001858272       25.52700088306040        9.39103837937487
H           12.08738898659979       26.47804770972473        9.73202513594972
H           13.36701974459459       25.28338818792538       10.02791299417489
H           11.74816201143646       24.74943303709465        9.50278560504936
C           12.25262813845021       23.34080433387080        7.01933717972232
H           11.71871242353303       22.95169459638477        6.15428702562697
C           12.40344595149864       22.54971442136982        8.07459544997929
H           12.95188648378094       22.87998939227293        8.94800888985619
H           12.00451371310811       21.54165514622700        8.08097213663087
C           13.78314437474356       23.14923955150306        1.86446471497870
H           13.04603986736384       22.80222251792232        2.59255827417619
H           14.67517228620246       22.51553894094494        1.94312016612880
H           13.35188458970724       23.02850550504309        0.86731868331321
C           15.34562602618359       25.24955290882488       -0.08962024434162
H           15.99141350606464       26.03727609299844       -0.47060199360067
C           15.17920736560230       24.19501460309482       -0.87655611308811
H           14.55771041854970       23.36178047689849       -0.58568576132074
H           15.66728281170555       24.14286241071035       -1.84146774277341
C           16.94477942030713       30.29196290881794        0.13850849188449
H           16.11527077253147       30.06937533646614       -0.53906279473781
H           17.75447476273932       29.58027191392357       -0.05279263757157
H           17.30294231279771       31.30294050424797       -0.07285213462826
C           17.44287552451798       32.35276318316372        2.53993412609312
H           16.78287759258311       33.21018057589402        2.37135145576797
H           18.17859918539470       32.31607708967877        1.73168426689643
H           17.96619890860482       32.49125499823559        3.48940367694890
O           16.56867337909058       27.07221062720916        4.96259464317502
H           16.61299050024450       26.30192074166459        4.39854365445943
H           17.27651623587692       27.36517361434936        5.50513185513515
C            9.48372190661038       29.44134299613788        2.53292011426390
H            9.51780028598954       30.37831411935541        1.96722813255064
H            8.58791231020949       29.44287187016289        3.16275789432774
H            9.43747098469981       28.60430309988116        1.83372128040358
N           10.99178236660200       30.24353576753604        4.34164058135676
H           10.42193420758912       31.03135778068765        4.59194852960724
C           10.70020857318402       29.32983696441604        3.37174556686528
C           12.16901218258039       29.90352609569562        4.87944543290014
H           12.64817505543102       30.45309586524612        5.67363429888398
N           12.64502612648476       28.82623796763185        4.30578667930985
C           11.74509899588473       28.45183211168688        3.34392636198144
H           11.92989229692833       27.59752428381562        2.71766126882508
78
 energy: -115.565149873025 gnorm: 0.029850952790 xtb: 6.7.1 (edcfbbe)
Fe          14.58551255783453       27.95454084598714        4.74355829742832
N           14.92156631850559       29.25361100442447        6.27545119335295
N           13.80467579154377       26.58462470436318        6.05581040945942
N           14.43283167332671       26.56717710220940        3.22296527372310
N           15.50714607471927       29.27070727104843        3.44670054879113
C           15.42773877144909       30.52136772844914        6.18536965530661
C           15.35983007960358       31.17215343040849        7.44830636982374
C           14.81460383639927       30.25183992811515        8.34013782436980
C           14.53992968493280       29.07607861291090        7.57842980650056
C           13.57774690090765       26.78363273133433        7.38248805239794
C           12.94243541534712       25.62393536968976        7.96102373985871
C           12.79433517714705       24.70398900734939        6.94901956186338
C           13.33049245025707       25.33350948095363        5.74634306409372
C           13.95537342775656       25.28910426843720        3.32461397945525
C           14.14297907588822       24.58236773807876        2.11312450124779
C           14.79414171423228       25.47136277807471        1.23202484381886
C           14.92933176832838       26.70414605980888        1.95495517835560
C           15.77117691662698       29.04748201888092        2.13902338031912
C           16.48149865822871       30.18215898053905        1.56637585637547
C           16.66459990720529       31.07429920915166        2.58383592548797
C           16.02703581189519       30.50971191087969        3.76180157091726
C           15.96395700988674       31.08757734847608        5.00197751944621
H           16.38014859069652       32.08027177121095        5.09790946679633
C           13.92056208556997       27.92950506019511        8.08676230680131
H           13.67536419914028       27.94758535628398        9.13745292932528
C           13.39672751170980       24.74439642900355        4.51297706444903
H           13.01215060347876       23.73919118811088        4.43694516577414
C           15.49006205216707       27.87923455058920        1.44398425799401
H           15.76602744360435       27.86602861847701        0.40180990171608
C           14.55997987271375       30.40610816332954        9.79802718011629
H           14.86838416754280       31.38495341112635       10.14913713075818
H           15.11125117972277       29.65588086211661       10.36339204088793
H           13.50207954322180       30.27743925074840       10.02380930776950
C           15.75985988483231       32.57650123285977        7.74043791859210
H           15.61917322361800       33.21088929947156        6.87045778809020
H           16.80669678413284       32.63270337038163        8.03520955345282
H           15.16266429594070       32.97947196045144        8.55355738762449
C           12.51007731249156       25.52640727675901        9.38013091352248
H           12.09275915762626       26.47000915514715        9.72201948085798
H           13.35695111547762       25.28414082860938       10.02066050772061
H           11.75715065749076       24.75367479111125        9.49599542963818
C           12.26196953320388       23.36025548333245        7.01984622488382
H           11.73794298332090       22.98835596353092        6.14935930686338
C           12.40619639103268       22.55748915591131        8.07406237951349
H           12.95317615587858       22.86387809524172        8.94556746358448
H           12.00401062640319       21.56067769258492        8.08179322116692
C           13.77743575101611       23.16057305680343        1.87316007919524
H           13.05551421083036       22.80764345720060        2.60094110926804
H           14.66271855013185       22.52655290115626        1.93489995965525
H           13.34062710798844       23.03428834094411        0.88824186192903
C           15.34049228851138       25.25509277030745       -0.07638883955876
H           15.97354178330716       26.04874300312763       -0.44811797136695
C           15.17933469814769       24.18877267832441       -0.87129911027308
H           14.56793965434171       23.35269679301213       -0.60499040022870
H           15.65922481389426       24.14319179482325       -1.83088343488744
C           16.93383878781003       30.28652902772816        0.15639515199231
H           16.11825308830184       30.06636286336148       -0.52714157733024
H           17.74017891008855       29.58301820623063       -0.04288806083101
H           17.29505428221010       31.28664796555125       -0.05964638234649
C           17.43288998036248       32.34626622002640        2.54588221179076
H           16.77915909937683       33.19938958141928        2.37887328855291
H           18.16395999842037       32.31912508569140        1.74382077588687
H           17.96004989125325       32.49704686485764        3.48235327481616
O           16.65482913226327       27.02136856879464        4.97773713758574
H           16.74428088017394       26.25149689708383        4.41715972741408
H           17.39206593800646       27.30993317902200        5.51371983007201
C            9.46212585840366       29.44820913831596        2.51918447443342
H            9.48675835365669       30.37548063714872        1.95224564076931
H            8.57304895004836       29.44427032543474        3.14350027415345
H            9.42170542755543       28.61277865890774        1.83247302600984
N           10.96279169567408       30.25989223125184        4.33394051342520
H           10.39106314507243       31.04839422745209        4.58747069166090
C           10.67636063582117       29.34957387849508        3.35129818943750
C           12.14198858441768       29.91771088340359        4.88002187285663
H           12.62579334345527       30.45384338427935        5.66991512183487
N           12.61039868134468       28.84565827334871        4.30343484034911
C           11.72066969893384       28.47347890628037        3.34711532777357
H           11.90760238614108       27.61654370406130        2.73293051566805
78
 energy: -115.572713586953 gnorm: 0.026356199447 xtb: 6.7.1 (edcfbbe)
Fe          14.61233349236866       27.93843548395506        4.74990879859836
N           14.91388036636557       29.25951428785319        6.27032251617999
N           13.79532258058900       26.58820543513436        6.05432609513572
N           14.45089231870957       26.55942935824498        3.22596294698044
N           15.51444476554223       29.26722685855617        3.45061725916378
C           15.41791798653049       30.51732793085706        6.18249492429535
C           15.35458191584109       31.17225420057683        7.44494343870162
C           14.81095741075708       30.25094587584730        8.33375411770463
C           14.53322488494337       29.07371767452481        7.57361308348919
C           13.57648730995597       26.78681090153874        7.37717861181747
C           12.94740514817853       25.62541187860213        7.96297933489022
C           12.80113648926096       24.70658526898553        6.94742570724926
C           13.32991919101539       25.33734517379558        5.74524213199628
C           13.96483043110248       25.28892315857318        3.32832147728501
C           14.14103002309992       24.58130656971606        2.11921035416631
C           14.79646364260009       25.47183306977259        1.23083409773822
C           14.93729888423468       26.70286954931260        1.96067466823438
C           15.77681244988319       29.04778675708288        2.14539319088624
C           16.48218985783230       30.17634296422800        1.57247680127095
C           16.66915163818137       31.07204946991112        2.59385624107702
C           16.03243600106350       30.50011858663949        3.76805259858403
C           15.96562279387537       31.08572725738787        5.00405449017126
H           16.38815550188623       32.07401852804629        5.10535392042379
C           13.91915087445836       27.93138173038885        8.08659071680029
H           13.68190704646037       27.94787273826946        9.13830054835012
C           13.39604753476047       24.74208313066895        4.51489315280007
H           13.01084772772494       23.73824763779386        4.43706024392500
C           15.49458399697821       27.87777273630470        1.44442197323154
H           15.77102543333107       27.86800126027868        0.40310760612797
C           14.56042462465464       30.40935410282730        9.78868466151042
H           14.87181698755681       31.38848985915206       10.13501111865074
H           15.11126551971787       29.65868247375046       10.35328980492835
H           13.50311923791040       30.28164543997662       10.01716231557836
C           15.76183890220307       32.57051177561878        7.73744870787724
H           15.62298282999457       33.20908067395106        6.87003285181840
H           16.80976224597036       32.62063578955438        8.03064748238811
H           15.17016428577816       32.97380123937506        8.55455295232412
C           12.51154663531186       25.52620239413517        9.37636878173490
H           12.09335367514586       26.46986277868903        9.71737742115456
H           13.35423334300772       25.28243582570675       10.02255224114682
H           11.75899709835222       24.75206159281586        9.48898784205449
C           12.26685327813085       23.37066529781901        7.01998921571306
H           11.75115045444595       23.00934429659568        6.14039287512208
C           12.40015009477179       22.56323694768599        8.07258394375670
H           12.96125196787790       22.85078403972971        8.94288580669209
H           11.99420653401722       21.56865148448714        8.07510191713078
C           13.76808448161551       23.16466560396255        1.88093486640139
H           13.06288223832478       22.80862915359212        2.62428054405809
H           14.65441011080414       22.52899109312509        1.91943549178220
H           13.30782951711375       23.04127652197706        0.90577352379488
C           15.33135504082581       25.25741044847805       -0.07357029766647
H           15.95440113731441       26.06038681396518       -0.44322215473474
C           15.18019014262910       24.18854407308477       -0.87306990502707
H           14.58451046010989       23.33648128739016       -0.61775138253062
H           15.66302939810206       24.15188909184085       -1.83171248703434
C           16.92932713934801       30.28079514109862        0.16401565339276
H           16.11333166703420       30.06054283377429       -0.52040833156835
H           17.73539551373596       29.57633426750994       -0.03894692341580
H           17.29159946079216       31.28076988759411       -0.05187724399189
C           17.42446951639714       32.34773649939665        2.55353402240091
H           16.76237521802726       33.19593639080449        2.38874170122316
H           18.15256866379342       32.32815903516367        1.74787486838852
H           17.95626075358000       32.50878831603830        3.48688868860716
O           16.74166765937154       26.96209288248561        5.00788503650231
H           16.89030672252280       26.20549483539925        4.43414586404766
H           17.50141566881221       27.25828867996998        5.51713437072344
C            9.43567261702254       29.45709804698015        2.50413843581358
H            9.44543300608806       30.37954304492766        1.92784433283000
H            8.54427410566882       29.44791452719784        3.12541504652567
H            9.40038762279158       28.61628732284093        1.82251335475526
N           10.93293666117151       30.28054082962006        4.32392308664698
H           10.35772181374763       31.06749278465495        4.57777871179928
C           10.65171062149271       29.37017511737040        3.33818825405211
C           12.11102317113214       29.93620312044459        4.87906685620257
H           12.59139659588457       30.46770590197455        5.67261056677259
N           12.58692610219058       28.86309152352918        4.30570006326113
C           11.69820638486512       28.49409617583561        3.34794296764611
H           11.88172537531181       27.63264726325696        2.74035143148484
78
 energy: -115.577713295711 gnorm: 0.024308661657 xtb: 6.7.1 (edcfbbe)
Fe          14.64349419290303       27.92185992331672        4.75369913544642
N           14.91138608003038       29.25668016228316        6.26507574200119
N           13.79542786503070       26.59427365013740        6.05121170188954
N           14.47518321379418       26.55412285681432        3.23621598268796
N           15.53201034247010       29.25463697554897        3.45989112982585
C           15.41426900715396       30.51256068510929        6.17885578763200
C           15.34975932194796       31.17078018137043        7.44140031914599
C           14.80669278478693       30.25203685708948        8.32768174074518
C           14.52689895912330       29.07378848277896        7.56912856641352
C           13.57824761948713       26.79012042341772        7.37409139135880
C           12.95531683285524       25.62833463674144        7.96272486443086
C           12.81040494626134       24.71020833390386        6.94763152194157
C           13.33285883564398       25.34154052460785        5.74342455146306
C           13.97598115279900       25.28749407756182        3.33390303464262
C           14.13981069453164       24.58132035238046        2.12614272876340
C           14.79502487141404       25.47073233125513        1.23391024498822
C           14.95137055024308       26.69977120204186        1.96874521274603
C           15.78813694201748       29.04004903748685        2.15301982393680
C           16.48592394920709       30.17079568706297        1.58290684829827
C           16.67324642269807       31.06677171386209        2.60249146371925
C           16.04341225717700       30.48988784131553        3.77579654932050
C           15.97201721604927       31.08337833930328        5.00680173713892
H           16.39642946856834       32.06959502502648        5.11221387269403
C           13.91812840246913       27.93423809250188        8.08659496012281
H           13.68740295539441       27.94811939246041        9.13993232318887
C           13.40040282128343       24.74099742364523        4.51766671049463
H           13.01284091435754       23.73822467816174        4.43885723054384
C           15.50550676183555       27.87168936486578        1.44889357575022
H           15.77678391219630       27.86872755590168        0.40590674122220
C           14.55865798369178       30.41316084469277        9.78254960644712
H           14.87411784108729       31.39425181177266       10.12333678205623
H           15.11102802299339       29.66239272778666       10.34724381609156
H           13.50050517874662       30.28853002075469       10.01309757323867
C           15.76664363691152       32.56683272381881        7.73460423416802
H           15.62827784780425       33.20899186798952        6.86821754800086
H           16.81757501709001       32.60728084428489        8.02376087934908
H           15.18010823591316       32.97176341799095        8.55621716823275
C           12.51421909293468       25.52582370736792        9.37476248105084
H           12.09338736599420       26.46999613664268        9.71543944922254
H           13.35342006671378       25.27934660718514       10.02653911523711
H           11.76033749256400       24.74955900207307        9.48017107534377
C           12.27635429469997       23.37377537618519        7.01686052086615
H           11.75530396064447       23.02564699824801        6.13420040639616
C           12.40430511833018       22.56103855904439        8.06434680589039
H           12.95696698015395       22.84173890642226        8.94317124759488
H           11.97521614090887       21.57446158951623        8.06774779314485
C           13.75748643188114       23.16793225896298        1.88297951199845
H           13.07355378920064       22.80540208432935        2.64625917848115
H           14.64463666790272       22.52954124705947        1.89057408437182
H           13.26863595482688       23.05595777909863        0.91769859417560
C           15.32151532826811       25.25644377097360       -0.07351941993576
H           15.92754663043537       26.07098474832072       -0.45118541581428
C           15.18339867097965       24.18436152026783       -0.87040391564940
H           14.60171366460279       23.31866719346937       -0.61835303422011
H           15.66034110818851       24.16110691165953       -1.83501673887704
C           16.92705317641339       30.27633472740141        0.16880279470917
H           16.10524564807742       30.05563959698549       -0.51069129427457
H           17.73165535514908       29.56872739391692       -0.03640027957413
H           17.28909839625421       31.27736140963771       -0.04731388854723
C           17.41398596415823       32.35274871713492        2.56096477620648
H           16.73655437547265       33.19241543194155        2.40172113942029
H           18.13811282034673       32.34460270599121        1.74958644736081
H           17.94908018306556       32.52145372745795        3.49291672302625
O           16.82153092810280       26.88482444204301        5.06350938130084
H           17.04994849632906       26.17132223066977        4.44636364557305
H           17.61706619546212       27.20975892364695        5.50781701321747
C            9.40544303884779       29.46578486938370        2.48776764471790