87
 energy: -128.183668761256 gnorm: 0.330083446800 xtb: 6.7.1 (edcfbbe)
Fe          13.71300000000000       28.90700000000000       74.83600000000000
N           15.20200000000000       29.74000000000000       73.83100000000000
N           12.43000000000000       30.00700000000000       73.85700000000000
N           12.20900000000000       28.04700000000000       75.82899999999999
N           14.99300000000000       27.85600000000000       75.83300000000000
C           16.54700000000000       29.43700000000000       73.89700000000001
C           17.35000000000000       30.32900000000000       73.08899999999998
C           16.49500000000000       31.16600000000000       72.50500000000000
C           15.14900000000000       30.78700000000000       72.95300000000000
C           12.70100000000000       31.07900000000000       73.02599999999998
C           11.48300000000000       31.73500000000000       72.59600000000000
C           10.45000000000000       31.02700000000000       73.14000000000000
C           11.04300000000000       29.95100000000000       73.90000000000001
C           10.86200000000000       28.16400000000000       75.59300000000000
C           10.09000000000000       27.33800000000000       76.51900000000001
C           10.98500000000000       26.79200000000000       77.39100000000001
C           12.30400000000000       27.21800000000000       76.91499999999999
C           14.76300000000000       27.02700000000000       76.91599999999998
C           15.99300000000000       26.42700000000000       77.39700000000001
C           16.98700000000000       26.85100000000000       76.58000000000000
C           16.37100000000000       27.74700000000000       75.63600000000000
C           17.08000000000000       28.48600000000000       74.71899999999998
H           18.15100000000000       28.29800000000000       74.64200000000000
C           13.97500000000000       31.41900000000000       72.59099999999998
H           14.05600000000000       32.26000000000000       71.90199999999999
C           10.31900000000000       29.05600000000000       74.67400000000001
H            9.23600000000000       29.05099999999999       74.55200000000001
C           13.49600000000000       26.76500000000000       77.42200000000000
H           13.44300000000000       26.13700000000000       78.31100000000001
C           18.86900000000000       30.35300000000000       72.95099999999999
H           18.97100000000000       29.30000000000000       72.61100000000000
H           19.08400000000000       30.40200000000000       74.04000000000001
H           19.59300000000000       30.98400000000000       72.39200000000000
C           16.86500000000000       32.31300000000000       71.57700000000000
H           16.37200000000000       33.11600000000000       72.16500000000001
H           16.18700000000000       32.00100000000000       70.75400000000000
H           17.81500000000000       32.70600000000000       71.15700000000000
C           18.44900000000000       26.39400000000000       76.61700000000000
H           18.59500000000000       26.70900000000000       77.67200000000000
H           19.40100000000000       26.53900000000000       76.06200000000000
H           18.15800000000000       25.32200000000000       76.59799999999998
C           16.17000000000000       25.48800000000000       78.59000000000000
H           16.23500000000000       24.40900000000000       78.38599999999998
C           17.00400000000000       26.04000000000000       79.73999999999999
H           16.97600000000000       27.11200000000000       79.98599999999999
H           17.64300000000000       25.37300000000000       80.33700000000000
C           10.69000000000000       25.92500000000000       78.60199999999999
H           11.30100000000000       26.53500000000000       79.30100000000000
H           11.27700000000000       25.03400000000000       78.29399999999998
H            9.76000000000000       25.60700000000000       79.12000000000000
C            8.59000000000000       27.07000000000000       76.41199999999999
H            8.26100000000000       26.86100000000000       75.39400000000001
C            7.71000000000000       27.58599999999999       77.53400000000001
H            8.13000000000000       27.76900000000000       78.53400000000001
H            6.64200000000000       27.78300000000000       77.36000000000000
C            8.95900000000000       31.31400000000000       72.99100000000000
H            7.98200000000000       31.05099999999999       73.44900000000000
H            8.93500000000000       31.04700000000000       71.91300000000000
H            9.13000000000000       32.40500000000000       73.10800000000000
C           11.37600000000000       32.95700000000000       71.67400000000001
H           10.68300000000000       33.46900000000000       72.37500000000000
H           10.77900000000000       32.39700000000000       70.92300000000000
H           12.00500000000000       33.72000000000000       71.16700000000000
C           12.92000000000000       32.89700000000000       78.75000000000000
H           13.56300000000000       33.80200000000000       78.77600000000000
H           12.88800000000000       32.44900000000000       79.76599999999999
H           11.89700000000000       33.19100000000000       78.43200000000000
N           14.74400000000000       31.35800000000000       77.88799999999999
H           15.41900000000000       31.59600000000000       78.58700000000000
C           13.48700000000000       31.90900000000000       77.77900000000000
C           14.89300000000000       30.46099999999999       76.90300000000001
H           15.80000000000000       29.87200000000000       76.76500000000000
N           13.81300000000000       30.39800000000000       76.14900000000000
C           12.92200000000000       31.31700000000000       76.69799999999998
H           11.94600000000000       31.46300000000000       76.25200000000000
C           13.70400000000000       23.99700000000000       72.05599999999998
H           14.55100000000000       23.85100000000000       71.35200000000000
H           12.76200000000000       23.68500000000000       71.55599999999998
H           13.87600000000000       23.37600000000000       72.96100000000000
N           13.41800000000000       26.46700000000000       71.53900000000000
H           13.31800000000000       26.35500000000000       70.54999999999998
C           13.61800000000000       25.44200000000000       72.44199999999999
C           13.38400000000000       27.62200000000000       72.22499999999999
H           13.23800000000000       28.59300000000000       71.75200000000000
N           13.54800000000000       27.41200000000000       73.51600000000001
C           13.69700000000000       26.03400000000000       73.65699999999998
H           13.84900000000000       25.60000000000000       74.63800000000001
87
 energy: -128.324424648368 gnorm: 0.184041074293 xtb: 6.7.1 (edcfbbe)
Fe          13.70921407477493       28.90384376585254       74.83426099850092
N           15.21943027910149       29.74659823916613       73.81839367781198
N           12.42542283895792       30.00538864264675       73.85025762193034
N           12.19145531235671       28.04593155344764       75.84194594743654
N           15.00204765400531       27.84042215664028       75.84327406957085
C           16.55480299416011       29.44291532745219       73.89737348558022
C           17.35393653800688       30.33494535601968       73.08263346781075
C           16.49438501434510       31.17504245324752       72.49844186821785
C           15.15433130550350       30.79671309949703       72.95000891935888
C           12.71023174597925       31.06673728870988       73.02778496181034
C           11.50315908990120       31.72280720635481       72.60658948889868
C           10.46463981354007       31.01552682704521       73.15849188250949
C           11.05348246316020       29.94728844847628       73.91517550370934
C           10.85390021764466       28.15516500434796       75.58581857159345
C           10.07023526192036       27.33673455865413       76.51065312840421
C           10.96607531300265       26.79679342335951       77.38012296839058
C           12.29259015780598       27.21427108821566       76.91966104915004
C           14.76041459771521       27.02443574843253       76.92219742101295
C           15.99074967674203       26.43062037363097       77.41314229227416
C           16.97924282869674       26.85711472781336       76.56752701261010
C           16.36261508478281       27.74441845274595       75.63093028959635
C           17.08417045756795       28.47889607119542       74.71467606669262
H           18.15086638325040       28.29610685214700       74.64842992360028
C           13.97722151025360       31.42293727011025       72.59017457918146
H           14.05100001028462       32.26038958986001       71.90414184117340
C           10.31903905464260       29.04713972400063       74.67159149300340
H            9.23977653743390       29.05616503258667       74.55558850464162
C           13.49484677327986       26.76433436319847       77.43406880859467
H           13.44718998961206       26.13175452502599       78.31300540480321
C           18.86186537503856       30.31334587040635       72.97932174710363
H           19.01405837382423       29.28907833737436       72.62018345999573
H           19.12664987220037       30.38872610566074       74.04053410426907
H           19.52323030539792       30.98333250194613       72.39990190371074
C           16.81326176521012       32.32171578887098       71.57513617885692
H           16.36450786196674       33.14957418244881       72.13497897145292
H           16.18145702013786       32.04291161383293       70.72516336549394
H           17.79785735668178       32.65325038416310       71.19764845640422
C           18.42171726590664       26.37799720357297       76.65200432919744
H           18.63151188474725       26.67960147422124       77.68582033240537
H           19.33000577455304       26.56873996357530       76.05057185068478
H           18.20476217327430       25.30264026728331       76.61687055978743
C           16.24763543722911       25.53261546623969       78.59774187214154
H           16.23397742651236       24.44704900935453       78.40648848539517
C           16.97869537056845       26.01902848906223       79.69161165689542
H           16.97205407556097       27.07949713414426       79.95497482073080
H           17.59328303902104       25.37362309628627       80.32492841924778
C           10.73443437300380       25.93103324583873       78.59733156380881
H           11.30809339047029       26.50588420884760       79.33520225123949
H           11.28086803705916       25.01845271403192       78.32769782106497
H            9.77403304167596       25.64201608588276       79.06117588860431
C            8.58610521608330       27.15026247938359       76.45010041287431
H            8.24544060122463       26.87741487172784       75.44345045871056
C            7.74442195130745       27.56916891870616       77.48597026590738
H            8.13649418746901       27.76620644474139       78.48629389695749
H            6.67389475115734       27.74600760053652       77.35026147937292
C            8.99058364602089       31.33934825848819       72.96129020108116
H            8.05630201000699       31.02558908806562       73.46478139945995
H            8.89822984095483       31.07443675043248       71.89890696920369
H            9.07974730538994       32.42640454172773       73.08152921071967
C           11.33244514858735       32.93328918505630       71.69073677426005
H           10.65813948404017       33.50552185476301       72.34153394410721
H           10.75549935584434       32.43724503733392       70.89872225368256
H           12.02318690832679       33.65519689036216       71.21378678957093
C           12.92487720508490       32.89680629444201       78.74656918108397
H           13.55484834261798       33.79601851661152       78.77953716694547
H           12.88607927891723       32.45846776835358       79.75407530027987
H           11.91287345710820       33.18537789383414       78.43801923406814
N           14.74081450620091       31.36411219910728       77.89424034732095
H           15.41953671206430       31.60144014855099       78.59441712450727
C           13.48344727622952       31.90768549243731       77.77946727562799
C           14.89442699962719       30.46670828490671       76.90512695762980
H           15.79187170387934       29.88357646384813       76.76638363837745
N           13.81606731778270       30.39312447343326       76.16093162557313
C           12.92609211304452       31.30548175267717       76.69335033454267
H           11.95595121775970       31.45443037550477       76.25154800254090
C           13.70446548614024       24.00247903347872       72.05412475421423
H           14.54088456383964       23.84843309035521       71.35815550453763
H           12.77473279427530       23.68414307472252       71.56194702871571
H           13.87158478794319       23.38641047896727       72.94618673386996
N           13.41793284461970       26.46028622850969       71.53886680357685
H           13.31735651518616       26.35021330973837       70.54588282496213
C           13.61693309178224       25.44099144968905       72.44302856352864
C           13.38625745097226       27.61941622234206       72.22590965979535
H           13.24071669204068       28.58291562104614       71.76003133574970
N           13.55580709361739       27.41062647393179       73.50984981437469
C           13.69634743583736       26.04495610578393       73.65867373246246
H           13.84717250854818       25.61025701347869       74.63166371344772
87
 energy: -128.394296714751 gnorm: 0.115510659758 xtb: 6.7.1 (edcfbbe)
Fe          13.70204766131913       28.90022334655497       74.83150899331481
N           15.23736213384174       29.75363639464090       73.80765614089698
N           12.41748108869653       30.00709062874811       73.84266712142002
N           12.17458465695718       28.03916271338408       75.85269805599020
N           15.01282223682243       27.82189828704312       75.85424949691011
C           16.56127425944577       29.44861252137118       73.89757557724035
C           17.36079468427927       30.34099526756714       73.07703396971748
C           16.49573822090469       31.18504523760977       72.49185868889842
C           15.16121295596405       30.80451597471465       72.94745477409090
C           12.71413366748005       31.05926649858427       73.02677795793463
C           11.51276513144843       31.71781464819039       72.60909971559953
C           10.46927556583183       31.01093593127726       73.16821838334297
C           11.05862652602914       29.94834028488766       73.92606918190683
C           10.84620260280785       28.14891807374109       75.58637396368890
C           10.05595151242383       27.33314084097840       76.51345746676158
C           10.95580603346585       26.79878771649280       77.37960659037584
C           12.28423645852249       27.20831789674024       76.92275078597559
C           14.75814851329611       27.02364225398144       76.93133756751698
C           15.98753186786039       26.43618753929486       77.43256623949017
C           16.97485978314672       26.85824096555977       76.56567241698789
C           16.35590759484019       27.73660731976326       75.62777707457634
C           17.08721060278555       28.46994183617705       74.70953813278618
H           18.15051084959502       28.29221048467454       74.65566044972120
C           13.98010124644832       31.42683585185097       72.58946757919868
H           14.04578497387418       32.26218124447563       71.90704359334721
C           10.31720745846640       29.03934996640645       74.67087920686680
H            9.24170118010805       29.06162659140128       74.55907299246799
C           13.49279681417640       26.76453363520611       77.44579975830040
H           13.45023021679916       26.12658161480490       78.31624238280043
C           18.85366569854837       30.27527072497684       73.00667542136156
H           19.05911023102732       29.27542923951215       72.63205088348853
H           19.17115980520018       30.37172611640962       74.04293333927195
H           19.44323046003984       30.98720174101006       72.40427684277155
C           16.76173102684355       32.32976846112398       71.57365442537753
H           16.35241304881271       33.18791604385923       72.10033360640340
H           16.17187029800708       32.09074695990709       70.69319157341880
H           17.78271578048631       32.59161636129517       71.24476858248107
C           18.39295541771383       26.36078108605529       76.68888953800797
H           18.66842978355246       26.65105789097694       77.70156554534650
H           19.24525782238915       26.61003740883275       76.03024881710222
H           18.25047440298489       25.28050982838194       76.63902050386507
C           16.31251811224174       25.56755717987925       78.60221153967063
H           16.23902026798328       24.48307157560490       78.41248747637651
C           16.95204778138446       26.00404555948017       79.64208884476928
H           16.98587648649598       27.05878795015740       79.91386423718633
H           17.52694451091143       25.37086101257299       80.32201629962626
C           10.77717454843126       25.93526698010685       78.59291989500379
H           11.31722233355971       26.47634279793042       79.36829709583512
H           11.28825562743099       25.00218644613826       78.35996936571640
H            9.78139504635700       25.68328858639509       78.99333464486286
C            8.58446955203009       27.20747400392863       76.47802821169664
H            8.22913081438390       26.90863924046197       75.48093354789187
C            7.78688444517340       27.56288630264598       77.43986674298921
H            8.14777024638183       27.78233693991929       78.44400282240608
H            6.70704883712756       27.69455814021472       77.34054893489605
C            9.02229537390864       31.36469524009200       72.93106537269954
H            8.14458646768889       30.98870942509098       73.49117595589291
H            8.86528290337535       31.10264773287711       71.88320531188241
H            9.03341589908362       32.44736135513805       73.05395662048237
C           11.28881565563883       32.90846543279943       71.70701248955375
H           10.63298954330630       33.53799037246876       72.30983986526125
H           10.72939938906017       32.47453335814289       70.87642289244499
H           12.05580715773693       33.57758648133414       71.27068810504643
C           12.92812980556435       32.89719223798134       78.74327505931552
H           13.55060508975066       33.79165856785448       78.78066048765633
H           12.88539477491723       32.46490436838094       79.74511214598947
H           11.92335174603543       33.18128017823466       78.44086763106795
N           14.73771665413635       31.37258016360188       77.90161711338325
H           15.41902830444565       31.60860560735608       78.60241110303859
C           13.47956037158729       31.90654263479576       77.77996372786995
C           14.89754963474643       30.47171481178119       76.91130850995519
H           15.78865204142360       29.89515648519146       76.76965322778624
N           13.82121420310280       30.38978463795476       76.17262715215990
C           12.93067428680303       31.29108885538359       76.69070555317482
H           11.96416998572918       31.44368969646821       76.25267955345548
C           13.70447344511352       24.00708122930778       72.05298269287576
H           14.53376877012137       23.84871085299501       71.36195553766534
H           12.78299882606076       23.68451377037483       71.56566721534359
H           13.86823110577605       23.39519615702607       72.93697564054141
N           13.41759936138305       26.45262622843870       71.53776570082573
H           13.31670812651556       26.34453562600182       70.54244904490922
C           13.61581899666800       25.44038560233557       72.44413270191120
C           13.38959016262348       27.61723178669448       72.22339865016957
H           13.24440226978563       28.57530628459997       71.76441710401959
N           13.56081834208151       27.40944154359197       73.50317520083669
C           13.69765737426360       26.05722832073385       73.65935905934205
H           13.84621504843160       25.61954881107288       74.62618057749479
87
 energy: -128.428182271597 gnorm: 0.052299768197 xtb: 6.7.1 (edcfbbe)
Fe          13.69994979170836       28.89800940809701       74.82892735527047
N           15.24318592176090       29.75535409315936       73.80264776945570
N           12.41497601175608       30.00568675242234       73.83770576544292
N           12.17527940311288       28.03747858355259       75.85658637239538
N           15.01560494079889       27.81056569662218       75.85667557045029
C           16.56160790952698       29.44847207562831       73.89739056545125
C           17.36010237496380       30.34063799572385       73.07658569496893
C           16.49016767689232       31.18976948119102       72.48957920452145
C           15.16180711894015       30.80755756534789       72.94804768910947
C           12.71404048716955       31.05585106998536       73.02352574957828
C           11.51002392613795       31.71418534919430       72.60744762220722
C           10.47030668769924       31.01176323998406       73.16698710223163
C           11.05947560605361       29.95033382625934       73.92974380122088
C           10.85229882344981       28.14823519765364       75.58475665165956
C           10.06974907111012       27.33690418866331       76.51284960061079
C           10.96599270023679       26.79798377272859       77.38029443030527
C           12.28786628370569       27.20762818632427       76.92410546948651
C           14.75530910432366       27.02594079086366       76.93754563424771
C           15.98193158227783       26.44048715192255       77.42951108020993
C           16.97172473471057       26.85431977287511       76.57003469920349
C           16.35347930769750       27.72696125212417       75.62365003592049
C           17.08609137767972       28.46147157128973       74.70463387396447
H           18.14996292689751       28.28707284662390       74.66213314655175
C           13.98018094721434       31.42859373337567       72.59008072427980
H           14.04014714249712       32.26574887415901       71.91054906901887
C           10.31941997279913       29.03609663881110       74.67022504551115
H            9.24406312201776       29.06796569294391       74.56556411587653
C           13.49284383473700       26.76656586258074       77.45525619692749
H           13.45303002412145       26.12182736760725       78.32134082788879
C           18.84631582839262       30.24897542165705       73.02405236253561
H           19.10720398853145       29.25872215046665       72.64613943709155
H           19.21888487588259       30.35011634196073       74.04574052497497
H           19.36551556927763       30.99640993370982       72.40131071221217
C           16.72399945891360       32.33558927200721       71.57114520316475
H           16.33547146008909       33.23052299961842       72.05967648652815
H           16.15710365654567       32.14410083585461       70.65847068203945
H           17.77331921487137       32.53205275189133       71.28844318672749
C           18.37436007474089       26.35037961986666       76.71317027792982
H           18.70997369326572       26.61910914423879       77.71855432336390
H           19.16368512349191       26.66097948892996       75.99995799447412
H           18.30179249068317       25.25727040683800       76.66479190713112
C           16.32945259738861       25.56446660008202       78.56091788797708
H           16.24395171450819       24.48921513385580       78.38567549820188
C           16.93099414457016       26.00569836524334       79.66860533561292
H           17.02089607688722       27.06698332744676       79.88658331446591
H           17.45805501919483       25.35876642658378       80.36575376867836
C           10.80648806107013       25.93738241070184       78.58819363423476
H           11.32853004273406       26.44202220129924       79.40533865509505
H           11.29907957203207       24.98250953666405       78.39553346916101
H            9.77783212847984       25.72528966470282       78.92281492285049
C            8.60950788179480       27.25264357791386       76.45358661538749
H            8.22553919795170       26.94986137067885       75.47638300798756
C            7.78018260342734       27.54377541042985       77.45612174455395
H            8.15532973910562       27.82170114363405       78.43526545087177
H            6.70384619255721       27.63169794694947       77.34826739430733
C            9.04313834832999       31.37884446531853       72.91186376052470
H            8.22946010299611       30.94170513089190       73.52585565372644
H            8.82877554368361       31.13391012057421       71.86597099904131
H            8.98129029058526       32.46757070819229       73.02366484810169
C           11.26219548733472       32.89062827242223       71.71676072767798
H           10.60728201138148       33.57217739043880       72.27305051385395
H           10.69957665717319       32.51641692248623       70.85286966415791
H           12.10317299774997       33.50017550803160       71.32624058198897
C           12.92948146770882       32.89840292541049       78.73990212314382
H           13.54996869399225       33.79224775909440       78.77915078107489
H           12.88492170018424       32.47052024852199       79.74133793960662
H           11.92635048048225       33.18046120303357       78.43975602658502
N           14.73755763601542       31.38103979622967       77.90956297033250
H           15.41714992795945       31.62068345874660       78.61153945758284
C           13.47760741057985       31.90491442607930       77.78114985422901
C           14.90484150053442       30.47687709445271       76.92193877036009
H           15.79783138480164       29.90884883227592       76.77709357491963
N           13.82895417468767       30.38218802084407       76.18429127956129
C           12.93476433407665       31.27738343960479       76.69393995686124
H           11.97002972083962       31.42671137587723       76.25379014228166
C           13.70353942372352       24.01056240110652       72.05311824980754
H           14.53055465238699       23.84903333730681       71.36274111900666
H           12.78505370280707       23.68403311583773       71.56714210813942
H           13.86578306977737       23.40031562571766       72.93522327254257
N           13.41699811972057       26.44737992083747       71.53474503840613
H           13.31510524882873       26.33687369384467       70.53946119840062
C           13.61468175246703       25.44130520923321       72.44490161748708
C           13.39353033765511       27.61568510416069       72.21630541436809
H           13.24858267972972       28.57223328226101       71.76038272926141
N           13.56660930520054       27.41247326861599       73.49626018723345
C           13.69922263244678       26.06537009533611       73.65787792089748
H           13.84605998577545       25.62931832627620       74.62423685731274
87
 energy: -128.440759576261 gnorm: 0.049942386685 xtb: 6.7.1 (edcfbbe)
Fe          13.69839919284511       28.89545084149894       74.82762393032299
N           15.24120912058461       29.75336755191494       73.80247003919024
N           12.40948130491532       30.00777199493669       73.83456239339944
N           12.18220919811924       28.03593947393164       75.85444511462958
N           15.01899613024498       27.79825526227148       75.85899839531167
C           16.55638741207492       29.44467498264543       73.89863204179838
C           17.35518588777698       30.33739807966455       73.07884659029710
C           16.48082320968440       31.19209928939091       72.49056920976652
C           15.15778147833906       30.80684512342601       72.95243888168750
C           12.70915300334808       31.05629408501352       73.01822369731715
C           11.50033450986480       31.71148838492250       72.59796429456985
C           10.46418278399217       31.01178934743407       73.15694345573853
C           11.05414164897750       29.95203291730407       73.92873369601729
C           10.86066106549981       28.14839336423375       75.58507300494439
C           10.08168097245139       27.34544072554065       76.52029316270787
C           10.98180601002457       26.80210303310381       77.38627506910015
C           12.29606430256259       27.20879652837433       76.92239808440533
C           14.75526217592176       27.02334320642729       76.94473865791734
C           15.97791960183565       26.43973762368136       77.43768454943367
C           16.97105061368733       26.83982534388995       76.58012649693215
C           16.35512411797568       27.71363446527831       75.62418464368839
C           17.08210271501542       28.45159807108842       74.70233998505437
H           18.14670545593235       28.27987840407094       74.66592351512351
C           13.97685425911691       31.42956851305152       72.59264834461551
H           14.03565902548583       32.27014076411683       71.91722314450821
C           10.32108468360162       29.03508676434959       74.67172071997913
H            9.24526373337197       29.07261845877182       74.57676143297056
C           13.49480161197471       26.76744583195935       77.46346365988535
H           13.45487576063543       26.12182423023306       78.32935721394819
C           18.83803550812823       30.23731137114905       73.03025882827687
H           19.13769201270504       29.25686911492927       72.65023162602814