87
 energy: -128.183668761257 gnorm: 0.330083446800 xtb: 6.7.1 (edcfbbe)
Fe          13.71300000000000       28.90700000000000       74.83600000000000
N           15.20200000000000       29.74000000000000       73.83100000000000
N           12.43000000000000       30.00700000000000       73.85700000000000
N           12.20900000000000       28.04700000000000       75.82899999999999
N           14.99300000000000       27.85600000000000       75.83300000000000
C           16.54700000000000       29.43700000000000       73.89700000000001
C           17.35000000000000       30.32900000000000       73.08899999999998
C           16.49500000000000       31.16600000000000       72.50500000000000
C           15.14900000000000       30.78700000000000       72.95300000000000
C           12.70100000000000       31.07900000000000       73.02599999999998
C           11.48300000000000       31.73500000000000       72.59600000000000
C           10.45000000000000       31.02700000000000       73.14000000000000
C           11.04300000000000       29.95100000000000       73.90000000000001
C           10.86200000000000       28.16400000000000       75.59300000000000
C           10.09000000000000       27.33800000000000       76.51900000000001
C           10.98500000000000       26.79200000000000       77.39100000000001
C           12.30400000000000       27.21800000000000       76.91499999999999
C           14.76300000000000       27.02700000000000       76.91599999999998
C           15.99300000000000       26.42700000000000       77.39700000000001
C           16.98700000000000       26.85100000000000       76.58000000000000
C           16.37100000000000       27.74700000000000       75.63600000000000
C           17.08000000000000       28.48600000000000       74.71899999999998
H           18.15100000000000       28.29800000000000       74.64200000000000
C           13.97500000000000       31.41900000000000       72.59099999999998
H           14.05600000000000       32.26000000000000       71.90199999999999
C           10.31900000000000       29.05600000000000       74.67400000000001
H            9.23600000000000       29.05099999999999       74.55200000000001
C           13.49600000000000       26.76500000000000       77.42200000000000
H           13.44300000000000       26.13700000000000       78.31100000000001
C           18.86900000000000       30.35300000000000       72.95099999999999
H           18.97100000000000       29.30000000000000       72.61100000000000
H           19.08400000000000       30.40200000000000       74.04000000000001
H           19.59300000000000       30.98400000000000       72.39200000000000
C           16.86500000000000       32.31300000000000       71.57700000000000
H           16.37200000000000       33.11600000000000       72.16500000000001
H           16.18700000000000       32.00100000000000       70.75400000000000
H           17.81500000000000       32.70600000000000       71.15700000000000
C           18.44900000000000       26.39400000000000       76.61700000000000
H           18.59500000000000       26.70900000000000       77.67200000000000
H           19.40100000000000       26.53900000000000       76.06200000000000
H           18.15800000000000       25.32200000000000       76.59799999999998
C           16.17000000000000       25.48800000000000       78.59000000000000
H           16.23500000000000       24.40900000000000       78.38599999999998
C           17.00400000000000       26.04000000000000       79.73999999999999
H           16.97600000000000       27.11200000000000       79.98599999999999
H           17.64300000000000       25.37300000000000       80.33700000000000
C           10.69000000000000       25.92500000000000       78.60199999999999
H           11.30100000000000       26.53500000000000       79.30100000000000
H           11.27700000000000       25.03400000000000       78.29399999999998
H            9.76000000000000       25.60700000000000       79.12000000000000
C            8.59000000000000       27.07000000000000       76.41199999999999
H            8.26100000000000       26.86100000000000       75.39400000000001
C            7.71000000000000       27.58599999999999       77.53400000000001
H            8.13000000000000       27.76900000000000       78.53400000000001
H            6.64200000000000       27.78300000000000       77.36000000000000
C            8.95900000000000       31.31400000000000       72.99100000000000
H            7.98200000000000       31.05099999999999       73.44900000000000
H            8.93500000000000       31.04700000000000       71.91300000000000
H            9.13000000000000       32.40500000000000       73.10800000000000
C           11.37600000000000       32.95700000000000       71.67400000000001
H           10.68300000000000       33.46900000000000       72.37500000000000
H           10.77900000000000       32.39700000000000       70.92300000000000
H           12.00500000000000       33.72000000000000       71.16700000000000
C           12.92000000000000       32.89700000000000       78.75000000000000
H           13.56300000000000       33.80200000000000       78.77600000000000
H           12.88800000000000       32.44900000000000       79.76599999999999
H           11.89700000000000       33.19100000000000       78.43200000000000
N           14.74400000000000       31.35800000000000       77.88799999999999
H           15.41900000000000       31.59600000000000       78.58700000000000
C           13.48700000000000       31.90900000000000       77.77900000000000
C           14.89300000000000       30.46099999999999       76.90300000000001
H           15.80000000000000       29.87200000000000       76.76500000000000
N           13.81300000000000       30.39800000000000       76.14900000000000
C           12.92200000000000       31.31700000000000       76.69799999999998
H           11.94600000000000       31.46300000000000       76.25200000000000
C           13.70400000000000       23.99700000000000       72.05599999999998
H           14.55100000000000       23.85100000000000       71.35200000000000
H           12.76200000000000       23.68500000000000       71.55599999999998
H           13.87600000000000       23.37600000000000       72.96100000000000
N           13.41800000000000       26.46700000000000       71.53900000000000
H           13.31800000000000       26.35500000000000       70.54999999999998
C           13.61800000000000       25.44200000000000       72.44199999999999
C           13.38400000000000       27.62200000000000       72.22499999999999
H           13.23800000000000       28.59300000000000       71.75200000000000
N           13.54800000000000       27.41200000000000       73.51600000000001
C           13.69700000000000       26.03400000000000       73.65699999999998
H           13.84900000000000       25.60000000000000       74.63800000000001
87
 energy: -128.324424583630 gnorm: 0.184041189174 xtb: 6.7.1 (edcfbbe)
Fe          13.70921407829615       28.90384376695616       74.83426100092318
N           15.21943026606630       29.74659823208584       73.81839368625916
N           12.42542284560567       30.00538863992168       73.85025763149879
N           12.19145532136526       28.04593155575610       75.84194593543954
N           15.00204764712915       27.84042216990251       75.84327406459568
C           16.55480298882295       29.44291532197391       73.89737348440043
C           17.35393653224264       30.33494535222212       73.08263347089532
C           16.49438501041523       31.17504244881421       72.49844187242238
C           15.15433130003255       30.79671309428659       72.95000892204213
C           12.71023174417017       31.06673729519951       73.02778496198759
C           11.50315907860263       31.72280721107082       72.60658948602918
C           10.46463980805647       31.01552683215904       73.15849187299592
C           11.05348245754217       29.94728844798639       73.91517550029185
C           10.85390021933762       28.15516500800428       75.58581857375771
C           10.07023527528723       27.33673456303560       76.51065313614104
C           10.96607532539496       26.79679341806376       77.38012297491184
C           12.29259016405114       27.21427109142694       76.91966104441458
C           14.76041459828094       27.02443574813771       76.92219741750264
C           15.99074967835659       26.43062037230344       77.41314227998390
C           16.97924283336178       26.85711472138566       76.56752702175288
C           16.36261509065562       27.74441845428556       75.63093029379152
C           17.08417045346982       28.47889607439232       74.71467606927582
H           18.15086638215229       28.29610685423254       74.64842992239596
C           13.97722151025521       31.42293726896485       72.59017458325094
H           14.05100001346730       32.26038959038024       71.90414183964795
C           10.31903904978292       29.04713972763424       74.67159149751197
H            9.23977652861103       29.05616502595967       74.55558850452509
C           13.49484677215480       26.76433436534766       77.43406880110381
H           13.44718998870581       26.13175452792292       78.31300540268924
C           18.86186537733145       30.31334589366847       72.97932172966966
H           19.01405835106842       29.28907834164450       72.62018345642403
H           19.12664985082679       30.38872611196513       74.04053410434867
H           19.52323034336619       30.98333250403654       72.39990189907596
C           16.81326179746209       32.32171578735158       71.57513617810366
H           16.36450786594447       33.14957416542406       72.13497898790379
H           16.18145702284946       32.04291158945978       70.72516337903957
H           17.79785736436666       32.65325041733416       71.19764843025027
C           18.42171728581203       26.37799720961384       76.65200431022480
H           18.63151186563401       26.67960148719747       77.68582032928349
H           19.33000581617391       26.56873995211875       76.05057185153571
H           18.20476214847487       25.30264027431840       76.61687055344036
C           16.24763538725661       25.53261543969879       78.59774186455462
H           16.23397742851950       24.44704898974568       78.40648847561006
C           16.97869538956383       26.01902850590910       79.69161168505842
H           16.97205407760624       27.07949715499777       79.95497483804365
H           17.59328306348981       25.37362309129447       80.32492842305842
C           10.73443434511806       25.93103324260660       78.59733156658443
H           11.30809338539112       26.50588423008403       79.33520222797983
H           11.28086803350715       25.01845272196997       78.32769779788225
H            9.77403302909549       25.64201606353526       79.06117592415480
C            8.58610522068897       27.15026243438987       76.45010038752331
H            8.24544061721343       26.87741486015351       75.44345043202728
C            7.74442192951718       27.56916892943666       77.48597029912247
H            8.13649418498920       27.76620644850378       78.48629392656872
H            6.67389473263777       27.74600761951724       77.35026148266672
C            8.99058362768024       31.33934824441516       72.96129021863428
H            8.05630196767233       31.02558910674584       73.46478138704754
H            8.89822986327885       31.07443672446866       71.89890697335515
H            9.07974733715270       32.42640453230539       73.08152923461280
C           11.33244517277888       32.93328919774408       71.69073676276632
H           10.65813950255797       33.50552184091165       72.34153396333303
H           10.75549937233808       32.43724501691230       70.89872225673376
H           12.02318689352460       33.65519693073013       71.21378676083502
C           12.92487720129105       32.89680629451505       78.74656918416748
H           13.55484834861758       33.79601851999520       78.77953716436120
H           12.88607927866410       32.45846776479632       79.75407531026241
H           11.91287344699022       33.18537789662855       78.43801923058439
N           14.74081450837183       31.36411219579623       77.89424034210144
H           15.41953671207506       31.60144014400747       78.59441712015094
C           13.48344727731100       31.90768549190157       77.77946727396316
C           14.89442700074262       30.46670828301314       76.90512695540846
H           15.79187171083823       29.88357645489329       76.76638363977732
N           13.81606731878409       30.39312447636520       76.16093161607928
C           12.92609211096912       31.30548175925342       76.69335033632261
H           11.95595121055270       31.45443037895553       76.25154800073584
C           13.70446548568237       24.00247902995006       72.05412475511703
H           14.54088456873602       23.84843309181823       71.35815550042574
H           12.77473278726327       23.68414307483645       71.56194702446355
H           13.87158479025472       23.38641047234228       72.94618674136828
N           13.41793284552087       26.46028623282482       71.53886680523871
H           13.31735651454254       26.35021331416610       70.54588282864925
C           13.61693309314716       25.44099145083431       72.44302856442131
C           13.38625745021611       27.61941622368201       72.22590965963659
H           13.24071669089447       28.58291562661418       71.76003132749948
N           13.55580708870584       27.41062647533895       73.50984981929496
C           13.69634743664338       26.04495609904547       73.65867373121303
H           13.84717251062483       25.61025700840511       74.63166371886645
87
 energy: -128.394296707678 gnorm: 0.115510823153 xtb: 6.7.1 (edcfbbe)
Fe          13.70204765443179       28.90022334817782       74.83150899042798
N           15.23736213879372       29.75363639806013       73.80765613733558
N           12.41748108742116       30.00709063145824       73.84266712174177
N           12.17458464738076       28.03916270893405       75.85269805666138
N           15.01282224596837       27.82189828484933       75.85424950163929
C           16.56127426293795       29.44861252669500       73.89757557477706
C           17.36079469185061       30.34099527313303       73.07703396292634
C           16.49573822768321       31.18504524204422       72.49185868425454
C           15.16121296150813       30.80451597659197       72.94745477394493
C           12.71413366913429       31.05926649872977       73.02677795413032
C           11.51276513193249       31.71781465414616       72.60909971093122
C           10.46927556183431       31.01093593548670       73.16821838508589
C           11.05862652869306       29.94834028639045       73.92606918592980
C           10.84620259718677       28.14891807313692       75.58637396507471
C           10.05595150303494       27.33314084189573       76.51345747231792
C           10.95580602648640       26.79878771336788       77.37960659610383
C           12.28423645420053       27.20831789399378       76.92275078497960
C           14.75814851210379       27.02364225100105       76.93133756680074
C           15.98753186858349       26.43618754142228       77.43256624345216
C           16.97485978894266       26.85824096060101       76.56567241805223
C           16.35590759659442       27.73660732147167       75.62777707762648
C           17.08721060438669       28.46994183831999       74.70953813358996
H           18.15051085050021       28.29221048635720       74.65566045013264
C           13.98010125286831       31.42683585462654       72.58946757979868
H           14.04578497486900       32.26218124785378       71.90704359265196
C           10.31720745311577       29.03934996402347       74.67087920782537
H            9.24170117772815       29.06162659257155       74.55907298858723
C           13.49279681066212       26.76453363367061       77.44579975788172
H           13.45023021652915       26.12658161354378       78.31624238298167
C           18.85366569174025       30.27527071636379       73.00667542655080
H           19.05911023344776       29.27542923811606       72.63205088316450
H           19.17115980593163       30.37172611797142       74.04293333860200
H           19.44323044840994       30.98720173775340       72.40427684826508
C           16.76173101722117       32.32976846492839       71.57365442436934
H           16.35241304808231       33.18791604528622       72.10033360495095
H           16.17187030000526       32.09074696248713       70.69319157263730
H           17.78271576996345       32.59161635574034       71.24476858591478
C           18.39295541612036       26.36078107443287       76.68888955183023
H           18.66842979273390       26.65105789068932       77.70156554877215
H           19.24525780905929       26.61003740927839       76.03024882156359
H           18.25047440916059       25.28050982123237       76.63902050016392
C           16.31251814969509       25.56755720508071       78.60221155993906
H           16.23902026193761       24.48307159626251       78.41248749145818
C           16.95204776720528       26.00404554765965       79.64208881009726
H           16.98587647501171       27.05878793396315       79.91386423718421
H           17.52694451324255       25.37086101466767       80.32201627908744
C           10.77717455665443       25.93526698106514       78.59291989481366
H           11.31722232966128       26.47634280096973       79.36829709473506
H           11.28825562056053       25.00218644597875       78.35996936464274
H            9.78139504812088       25.68328858948536       78.99333463808219
C            8.58446953596034       27.20747401266235       76.47802824236030
H            8.22913080693830       26.90863923369109       75.48093357078287
C            7.78688447329509       27.56288629798712       77.43986671076142
H            8.14777023775207       27.78233692981987       78.44400281447594
H            6.70704885252324       27.69455814443881       77.34054892645392
C            9.02229538086626       31.36469524978390       72.93106536465046
H            8.14458647971294       30.98870942808368       73.49117595458580
H            8.86528290976254       31.10264773063092       71.88320531349419
H            9.03341589906385       32.44736135340439       73.05395662163696
C           11.28881564452993       32.90846542489200       71.70701249432453
H           10.63298954323058       33.53799037412232       72.30983986285294
H           10.72939939028289       32.47453335929732       70.87642288959552
H           12.05580715224884       33.57758647140395       71.27068811437258
C           12.92812980558357       32.89719223793447       78.74327506007991
H           13.55060509065528       33.79165856738226       78.78066048935182
H           12.88539477419905       32.46490436779278       79.74511214713711
H           11.92335174698592       33.18128017653282       78.44086763168271
N           14.73771665209145       31.37258016697905       77.90161711416823
H           15.41902830550177       31.60860560363858       78.60241110323257
C           13.47956036889181       31.90654263479535       77.77996372615866
C           14.89754963603350       30.47171481425099       76.91130851060224
H           15.78865203938456       29.89515648442756       76.76965322787490
N           13.82121420616648       30.38978464218157       76.17262715237089
C           12.93067429011610       31.29108885265411       76.69070554865090
H           11.96416998785260       31.44368969848261       76.25267955062469
C           13.70447344727106       24.00708122903073       72.05298269071858
H           14.53376876961498       23.84871084887799       71.36195553440747
H           12.78299882717036       23.68451377466728       71.56566721444997
H           13.86823110561767       23.39519615609079       72.93697563700819
N           13.41759936038981       26.45262622283681       71.53776570325913
H           13.31670812565280       26.34453562654436       70.54244904641475
C           13.61581899746990       25.44038560102445       72.44413270248953
C           13.38959016052212       27.61723178500628       72.22339865101826
H           13.24440227297902       28.57530628213951       71.76441710517797
N           13.56081833895013       27.40944153954613       73.50317520222902
C           13.69765737373496       26.05722832423654       73.65935905995127
H           13.84621504967056       25.61954881076269       74.62618057612623
87
 energy: -128.428182277765 gnorm: 0.052299755228 xtb: 6.7.1 (edcfbbe)
Fe          13.69994978828828       28.89800941544328       74.82892735274143
N           15.24318594462752       29.75535411304188       73.80264776569676
N           12.41497601366689       30.00568676469276       73.83770576092755
N           12.17527938217486       28.03747858357573       75.85658638122774
N           15.01560495482959       27.81056569016258       75.85667558244847
C           16.56160792811424       29.44847209409777       73.89739055947541
C           17.36010239584179       30.34063800780885       73.07658568156153
C           16.49016769111930       31.18976948438596       72.48957919051757
C           15.16180713149707       30.80755757101221       72.94804768080753
C           12.71404048980440       31.05585107699435       73.02352574720894
C           11.51002392875650       31.71418535864485       72.60744762813943
C           10.47030669002375       31.01176324917310       73.16698712039734
C           11.05947561942516       29.95033383922510       73.92974381430854
C           10.85229881182539       28.14823520454391       75.58475666210857
C           10.06974906298852       27.33690417535701       76.51284959706196
C           10.96599269286986       26.79798376774173       77.38029442923717
C           12.28786627761724       27.20762818235418       76.92410546823291
C           14.75530910779940       27.02594078787719       76.93754563793908
C           15.98193157962217       26.44048715389318       77.42951108255794
C           16.97172473335065       26.85431978707301       76.57003469993695
C           16.35347930580396       27.72696126173892       75.62365003306309
C           17.08609138565756       28.46147157904509       74.70463386913934
H           18.14996293300205       28.28707285715822       74.66213314886207
C           13.98018095456895       31.42859373461528       72.59008071921507
H           14.04014714510125       32.26574886928960       71.91054906306756
C           10.31941997974471       29.03609664939811       74.67022505347202
H            9.24406313540303       29.06796571136089       74.56556410907753
C           13.49284383455484       26.76656585739706       77.45525619275101
H           13.45303001992438       26.12182735931562       78.32134082201847
C           18.84631582978690       30.24897539025328       73.02405236994070
H           19.10720400022997       29.25872213563641       72.64613942977005
H           19.21888490036302       30.35011633431429       74.04574051350707
H           19.36551554691738       30.99640991184457       72.40131070639291
C           16.72399943229118       32.33558926640490       71.57114517931129
H           16.33547145541626       33.23052300410252       72.05967645389883
H           16.15710364663575       32.14410083718953       70.65847065586401
H           17.77331920103464       32.53205270805702       71.28844318038843
C           18.37436005860036       26.35037961702285       76.71317031886690
H           18.70997370696703       26.61910913718257       77.71855435021075
H           19.16368509034140       26.66097950503427       75.99995803194297
H           18.30179251398151       25.25727040330614       76.66479192231499
C           16.32945263410487       25.56446660666897       78.56091786992020
H           16.24395170031871       24.48921513910779       78.38567547394048
C           16.93099409452754       26.00569833248201       79.66860533538053
H           17.02089602035495       27.06698328137738       79.88658336869310
H           17.45805499514885       25.35876641135971       80.36575375901987
C           10.80648809314245       25.93738239522310       78.58819361571615
H           11.32853005134663       26.44202216818961       79.40533865711996
H           11.29907958400999       24.98250951475163       78.39553346699238
H            9.77783215991203       25.72528965471748       78.92281488511810
C            8.60950788410387       27.25264358149967       76.45358662328134
H            8.22553919110878       26.94986132726277       75.47638302340650
C            7.78018261919124       27.54377536024963       77.45612172400585
H            8.15532972768386       27.82170105157226       78.43526544962816
H            6.70384620385951       27.63169789435779       77.34826740727087
C            9.04313837351607       31.37884449408381       72.91186374699768
H            8.22946013912471       30.94170516058728       73.52585564921031
H            8.82877554702196       31.13391013969890       71.86597100139538
H            8.98129029159947       32.46757072603052       73.02366483606141
C           11.26219545996517       32.89062825731126       71.71676073366605
H           10.60728199633978       33.57217739790401       72.27305049827838
H           10.69957664836325       32.51641690952511       70.85286966919033
H           12.10317299363573       33.50017547193768       71.32624059003354
C           12.92948147450575       32.89840294169077       78.73990212349199
H           13.54996868908031       33.79224777664899       78.77915078514249
H           12.88492171230666       32.47052026128597       79.74133793265122
H           11.92635048838339       33.18046120625849       78.43975603272249
N           14.73755763657251       31.38103982324112       77.90956296525600
H           15.41714993666103       31.62068348231652       78.61153944661297
C           13.47760741079826       31.90491444730694       77.78114985234230
C           14.90484149974157       30.47687711928122       76.92193876283264
H           15.79783138022830       29.90884885968531       76.77709356063156
N           13.82895416985779       30.38218803622029       76.18429128264458
C           12.93476433895384       31.27738345285661       76.69393995476636
H           11.97002972810759       31.42671139668868       76.25379014410852
C           13.70353941081347       24.01056241475213       72.05311825303737
H           14.53055463208217       23.84903333936825       71.36274112314757
H           12.78505369294366       23.68403313217120       71.56714211522811
H           13.86578305069620       23.40031563753930       72.93522326874250
N           13.41699811366952       26.44737992500420       71.53474504894535
H           13.31510524590401       26.33687370800775       70.53946120736082
C           13.61468174452577       25.44130521768388       72.44490162767815
C           13.39353033626737       27.61568511008173       72.21630542571323
H           13.24858268555571       28.57223328548545       71.76038275068193
N           13.56660930544464       27.41247327237837       73.49626019500636
C           13.69922262714710       26.06537011036038       73.65787793056823
H           13.84605998080490       25.62931833102210       74.62423686075253
87
 energy: -128.440759575385 gnorm: 0.049942406034 xtb: 6.7.1 (edcfbbe)
Fe          13.69839919512648       28.89545085147574       74.82762393182880
N           15.24120913848843       29.75336756335714       73.80247003591225
N           12.40948131169872       30.00777200372690       73.83456239016418
N           12.18220918526613       28.03593948032098       75.85444512653156
N           15.01899613756260       27.79825526288824       75.85899840586478
C           16.55638742962482       29.44467499272956       73.89863203757196
C           17.35518589848663       30.33739808719652       73.07884657835316
C           16.48082321641503       31.19209928450399       72.49056919425125
C           15.15778148432506       30.80684512588500       72.95243887474840
C           12.70915300604320       31.05629409246173       73.01822369949822
C           11.50033451747678       31.71148839418388       72.59796430666285
C           10.46418279216097       31.01178935404013       73.15694346997827
C           11.05414166246509       29.95203292786963       73.92873370506628
C           10.86066105755903       28.14839337059196       75.58507301669235
C           10.08168097187447       27.34544070692509       76.52029315589877
C           10.98180600556720       26.80210302460088       77.38627506554066
C           12.29606430116207       27.20879652668912       76.92239808667416
C           14.75526218340591       27.02334320397309       76.94473866284707
C           15.97791960248366       26.43973761475715       77.43768454831140
C           16.97105061489980       26.83982536038685       76.58012650182610
C           16.35512411975364       27.71363447808838       75.62418464726953
C           17.08210272399181       28.45159807876394       74.70233998400532
H           18.14670546401809       28.27987841361771       74.66592351175488
C           13.97685426312709       31.42956851161256       72.59264834311944
H           14.03565902954549       32.27014075356269       71.91722313556143
C           10.32108469338769       29.03508677864489       74.67172073156311
H            9.24526374436895       29.07261848395271       74.57676143150584
C           13.49480161533655       26.76744582687250       77.46346365563326
H           13.45487575521180       26.12182422395567       78.32935721155980
C           18.83803551286044       30.23731136148449       73.03025881533254
H           19.13769200526920       29.25686910542459       72.65023160975383