78
 energy: -115.974974165766 gnorm: 0.252738668336 xtb: 6.7.1 (edcfbbe)
Fe           9.95500000000000       17.09200000000000       -0.20200000000000
N            8.26100000000000       16.21400000000000        0.59100000000000
N            8.82100000000000       18.74000000000000       -0.67600000000000
N           11.62900000000000       18.27300000000000       -0.25300000000000
N           11.04700000000000       15.70900000000000        0.89500000000000
C            8.17700000000000       14.97600000000000        1.21100000000000
C            6.79700000000000       14.69500000000000        1.50800000000000
C            6.06600000000000       15.72600000000000        1.05600000000000
C            6.96200000000000       16.68300000000000        0.47100000000000
C            7.44900000000000       18.83200000000000       -0.68300000000000
C            7.05400000000000       20.03200000000000       -1.33100000000000
C            8.17500000000000       20.68500000000000       -1.71300000000000
C            9.29200000000000       19.89200000000000       -1.27700000000000
C           11.70100000000000       19.51600000000000       -0.83200000000000
C           13.06400000000000       19.96000000000000       -0.84700000000000
C           13.80000000000000       19.01800000000000       -0.27000000000000
C           12.91800000000000       17.91800000000000        0.08500000000000
C           12.43100000000000       15.62500000000000        0.85100000000000
C           12.84900000000000       14.31300000000000        1.18600000000000
C           11.67200000000000       13.58200000000000        1.54200000000000
C           10.58400000000000       14.48000000000000        1.33000000000000
C            9.24900000000000       14.16100000000000        1.50500000000000
H            9.02500000000000       13.17500000000000        1.91300000000000
C            6.60600000000000       17.87600000000000       -0.13900000000000
H            5.53800000000000       18.08700000000000       -0.19800000000000
C           10.63300000000000       20.22700000000000       -1.33200000000000
H           10.87300000000000       21.16600000000000       -1.83100000000000
C           13.29300000000000       16.68000000000000        0.55300000000000
H           14.35900000000000       16.50800000000000        0.70400000000000
C            4.55300000000000       15.89100000000000        1.15100000000000
H            4.13600000000000       15.10700000000000        1.81800000000000
H            4.10000000000000       15.78500000000000        0.14200000000000
H            4.31000000000000       16.89000000000000        1.57300000000000
C            6.28800000000000       13.44000000000000        2.20700000000000
H            6.26700000000000       13.61000000000000        3.30500000000000
H            6.96500000000000       12.58700000000000        1.98700000000000
H            5.25900000000000       13.20800000000000        1.85900000000000
C            5.60400000000000       20.48600000000000       -1.50500000000000
H            4.99200000000000       20.10600000000000       -0.65900000000000
H            5.19500000000000       20.08100000000000       -2.45500000000000
H            5.55700000000000       21.59600000000000       -1.51400000000000
C            8.19100000000000       21.96800000000000       -2.49000000000000
H            7.21900000000000       22.44000000000000       -2.68700000000000
C            9.21000000000000       22.60600000000000       -2.96800000000000
H           10.20800000000000       22.14300000000000       -2.97100000000000
H            9.09200000000000       23.62000000000000       -3.37700000000000
C           13.50000000000000       21.32200000000000       -1.36900000000000
H           12.76500000000000       22.09300000000000       -1.05300000000000
H           13.54600000000000       21.30100000000000       -2.47900000000000
H           14.49600000000000       21.58200000000000       -0.95200000000000
C           15.28000000000000       19.09000000000000       -0.10600000000000
H           15.85700000000000       19.59800000000000       -0.89100000000000
C           15.96800000000000       18.61400000000000        0.87100000000000
H           15.47100000000000       18.09000000000000        1.70000000000000
H           17.06200000000000       18.72500000000000        0.89000000000000
C           14.24900000000000       13.75200000000000        1.10000000000000
H           14.83500000000000       14.07900000000000        1.98500000000000
H           14.74700000000000       14.12600000000000        0.18000000000000
H           14.20800000000000       12.64200000000000        1.08500000000000
C           11.57700000000000       12.13700000000000        1.93200000000000
H           12.52100000000000       11.82400000000000        2.42700000000000
H           11.42100000000000       11.51300000000000        1.02600000000000
H           10.73400000000000       11.99400000000000        2.64100000000000
O            9.80500000000000       18.14400000000000        2.31400000000000
H            9.12700000000000       17.64400000000000        2.76900000000000
H           10.28200000000000       18.81300000000000        2.65300000000000
C           11.38100000000000       14.11200000000000       -4.86400000000000
H           11.47000000000000       14.64500000000000       -5.83500000000000
H           10.78700000000000       13.18500000000000       -5.01500000000000
H           12.39900000000000       13.85600000000000       -4.49900000000000
N            9.42100000000000       15.48200000000000       -4.06100000000000
H            8.86000000000000       15.31400000000000       -4.87200000000000
C           10.69300000000000       14.99900000000000       -3.86700000000000
C            9.07700000000000       16.20000000000000       -2.99600000000000
H            8.11600000000000       16.70300000000000       -2.89300000000000
N           10.06000000000000       16.20600000000000       -2.10600000000000
C           11.08200000000000       15.44500000000000       -2.63900000000000
H           12.00200000000000       15.29000000000000       -2.08900000000000
78
 energy: -116.023663661698 gnorm: 0.097974177789 xtb: 6.7.1 (edcfbbe)
Fe           9.94969154575470       17.14876144530838       -0.08133637811478
N            8.25150318320058       16.19615851224112        0.55997993101838
N            8.81869647658514       18.73596594418262       -0.70241911292900
N           11.63953119068324       18.25854189902065       -0.28524152673667
N           11.05452475994498       15.69418782096476        0.85822424342670
C            8.17478392900002       14.98239111312104        1.20241208170621
C            6.79415096571578       14.68463995463592        1.50700036083769
C            6.05445103157618       15.72812882881514        1.05664455857359
C            6.96663663319960       16.67318588830785        0.46049770746232
C            7.45326309703320       18.82241663779763       -0.69483287297887
C            7.03934985003164       20.03598201894507       -1.33311487180936
C            8.17105463496593       20.69064141168217       -1.73641460188599
C            9.28583149945953       19.88230946084902       -1.29171416086371
C           11.69901728761254       19.50439401047223       -0.84005535114637
C           13.05977956779946       19.97501826210679       -0.84948716448259
C           13.81670674960761       19.00963036456524       -0.27703443368755
C           12.91817154287308       17.91537864466571        0.07015674605990
C           12.42397782886496       15.61297670149700        0.83783811436755
C           12.84055134865025       14.29357322656477        1.19097343746416
C           11.69053397657181       13.58618150203341        1.52530531189908
C           10.59538420074700       14.48289700698278        1.30563406646532
C            9.25412522330898       14.16990609278475        1.49918623711514
H            9.03182686981863       13.19097570984799        1.91336775157136
C            6.60736415588748       17.86815327076266       -0.14202188081369
H            5.54404079953305       18.08113775555803       -0.19185708828772
C           10.62858617312279       20.21910482279872       -1.33817914375815
H           10.87716023791980       21.16044823013221       -1.80506141801119
C           13.28706021964935       16.67316855142636        0.54722551064198
H           14.34745479249986       16.49926926563998        0.69514603847079
C            4.56157526947983       15.89307040506698        1.15093731127414
H            4.13928505057308       15.12518088202920        1.80603846055128
H            4.10421873852403       15.79409706350355        0.15946346432219
H            4.30975577202978       16.87595472872838        1.56206811820645
C            6.29479925698991       13.44750627217295        2.20350196635107
H            6.26952204649640       13.60381966687696        3.28904514493565
H            6.94872100671338       12.59694903864054        1.99139686346624
H            5.28163773708767       13.20634804557878        1.86666231168657
C            5.61081917053560       20.48168305493041       -1.50161014286437
H            4.99785825303292       20.11462014924011       -0.67292469158329
H            5.19784361098600       20.09101263210858       -2.43912246398084
H            5.55305197501737       21.57418266735899       -1.51752018127904
C            8.18223581676502       21.96081156700166       -2.47655422627292
H            7.20873588229340       22.42330490317627       -2.63977028350465
C            9.21781056055532       22.61380965487747       -2.97757171480956
H           10.20988973420161       22.18632817106745       -2.98305866641928
H            9.09865971175904       23.60205077323330       -3.40520054411374
C           13.49546636837090       21.31818622803771       -1.36482814942596
H           12.77958284661151       22.08739724709924       -1.05835843208285
H           13.54658177067440       21.30585296639577       -2.46023152448806
H           14.47935081670606       21.57936544864580       -0.96442465141717
C           15.27342381259497       19.08035371726688       -0.11843628434681
H           15.82455925452793       19.60397699205991       -0.90004183875396
C           15.97608596024830       18.59775667366021        0.88689303077450
H           15.49370509276463       18.09391911484286        1.71525449010354
H           17.05372664136114       18.71129359150170        0.91366744580673
C           14.23800125910626       13.75574879497732        1.11070782804987
H           14.83298791139976       14.07368865002611        1.97551593473748
H           14.73643485803774       14.11670282303218        0.20284420518949
H           14.21570233984595       12.66219568181869        1.08609653564877
C           11.58593862510249       12.15058403249986        1.93073320871133
H           12.50739660497151       11.82253548004237        2.42237248387706
H           11.42213104346970       11.51907143075002        1.04726059963573
H           10.75260031420625       11.99574069354467        2.62525828318133
O            9.79388589534676       18.11771292591781        2.26302106373604
H            9.13154659035549       17.64190891466629        2.75954044984052
H           10.29130366776503       18.81810549840037        2.64735404683775
C           11.37555395207077       14.12285115038442       -4.85469222672755
H           11.46978971909852       14.63519549543744       -5.82019952262415
H           10.80266081111605       13.20089066472688       -5.01274469970102
H           12.37670151350901       13.86104286149764       -4.50289621360838
N            9.42819378123900       15.48441522584083       -4.05124273976419
H            8.86498094086905       15.31750866637034       -4.86905655737231
C           10.69339416442938       14.99843525454507       -3.85216342906728
C            9.08447650665134       16.20640280995813       -2.96944798686912
H            8.13355203179801       16.70390570645924       -2.87474284831754
N           10.05136340297604       16.21417879106182       -2.06577199370029
C           11.06698804458130       15.45914769203365       -2.61976759019415
H           11.98530409353708       15.30267474719716       -2.08407573520968
78
 energy: -116.038777768455 gnorm: 0.030436416857 xtb: 6.7.1 (edcfbbe)
Fe           9.94734091056176       17.19456862670433        0.02676857436111
N            8.25388290809911       16.20057689191828        0.55687399130503
N            8.82337421904199       18.73037483110885       -0.70899516179884
N           11.63866888193186       18.24783421141890       -0.28989891643791
N           11.05748310268208       15.68966939878601        0.82395812724188
C            8.17785978987796       14.99266968182749        1.18519585763136
C            6.79830663579999       14.68142828674624        1.50044529117853
C            6.05270230370374       15.73085246517274        1.05133877919590
C            6.97762664295992       16.66687576521763        0.44716323350994
C            7.46343071643313       18.80991462014083       -0.70587314168585
C            7.03593711146121       20.03340821196708       -1.33591781368476
C            8.17500321442347       20.69005284462024       -1.75174955771291
C            9.28571255794483       19.86449760746597       -1.30301182055298
C           11.69492655485270       19.48701154693704       -0.84261904599492
C           13.05297895341593       19.97529103136246       -0.85091763582240
C           13.82378945781746       18.99587927900943       -0.28191418166857
C           12.91248682415576       17.90670180601856        0.05109613212526
C           12.41507928642865       15.60637183150711        0.81124519930349
C           12.83280049830603       14.27956814015278        1.18976993540198
C           11.70252237573045       13.59051796825435        1.50516806985647
C           10.59895547319622       14.48897368209468        1.27104668258318
C            9.25966235695266       14.17851881148209        1.47957144012400
H            9.04067327926454       13.21092790987665        1.91248324039526
C            6.61101284870135       17.86005163237321       -0.15214246364668
H            5.55141780142148       18.07645897313485       -0.18890573440942
C           10.62581784800212       20.20749940255795       -1.34379205627330
H           10.88062279536602       21.15814575247819       -1.77513694706992
C           13.28071172595816       16.66034062370664        0.52601240751282
H           14.33654693842531       16.48488472406357        0.67626923982511
C            4.57316657068768       15.89801643630438        1.14662830723559
H            4.14674710620133       15.13899755880552        1.79599840323200
H            4.11036349731908       15.80560382530363        0.16468973796328
H            4.31612972740237       16.87352550027978        1.55178888711051
C            6.30585537936407       13.45606775600252        2.19683367743085
H            6.27944258931123       13.60509021236227        3.27662569631204
H            6.94632904249960       12.60455316279219        1.98993718215108
H            5.29926198768660       13.20967384137632        1.86850991120272
C            5.62077518202365       20.47369671545517       -1.49993254719721
H            5.00506002601922       20.11440926046339       -0.68064547732116
H            5.20155082870683       20.09259196683244       -2.43116927169943
H            5.55437188545651       21.55794270641108       -1.52064783167020
C            8.18205725175260       21.94990850197865       -2.45965187406432
H            7.20409867631887       22.40603976098507       -2.58057016515489
C            9.21279738887532       22.61386918349894       -2.98823998927456
H           10.20985603470373       22.22485293545367       -3.00304638170400
H            9.07960674213519       23.58149207408799       -3.43851061133617
C           13.48915747087148       21.30818848414190       -1.35925422960941
H           12.78765962978578       22.08246699196213       -1.05904899657046
H           13.54291516796621       21.30458464097473       -2.44806956364165
H           14.46848446716673       21.56896331387313       -0.96968475821213
C           15.26120780617640       19.06778325400679       -0.11864636268313
H           15.79126469951159       19.60044370779893       -0.90137111089472
C           15.97090960681989       18.58661630198310        0.89905347200666
H           15.50396911248526       18.08909203947700        1.72751667179211
H           17.04012492437556       18.69830626291598        0.92900813368022
C           14.23104063594365       13.76072708306367        1.12262505827252
H           14.82493747960955       14.07974800440365        1.97824924818022
H           14.72586525291266       14.11812036833020        0.22089176524984
H           14.22305329521635       12.67483912245166        1.09580087763392
C           11.59082678719465       12.16213573726579        1.92759762959609
H           12.50192705029706       11.83060473109084        2.41794779303955
H           11.42118570136732       11.52394005916700        1.05828997773005
H           10.76272482840647       12.01159353430242        2.61591571141165
O            9.77516055551381       18.10216836560275        2.17633858878602
H            9.15077041884735       17.64069459982642        2.74271957001799
H           10.29559420392574       18.78579720884017        2.60696977822161
C           11.37193831965055       14.13766768748873       -4.83526457181229
H           11.46395384594721       14.64474767163948       -5.79519842264949
H           10.80721765596751       13.21988944386317       -4.99793962492962
H           12.36472363801811       13.87170304893698       -4.49164046912339
N            9.43052005316250       15.49305318713771       -4.03074311648971
H            8.86610331048694       15.33030162292543       -4.85145772130243
C           10.69359596023575       15.00253209745936       -3.82852865477611
C            9.08821153068686       16.21285305363756       -2.93802662780024
H            8.14455417895755       16.70914550560716       -2.84464671869605
N           10.04833007622584       16.22099249432098       -2.04013618191537
C           11.05652001219030       15.46765848975943       -2.59332758271462
H           11.97574839469739       15.31144392924844       -2.06806893980665
78
 energy: -116.042394572641 gnorm: 0.028251987964 xtb: 6.7.1 (edcfbbe)
Fe           9.94891789408766       17.20262962174435        0.05126981783676
N            8.26104269177823       16.20610015355082        0.55098478474812
N            8.82917076159391       18.72316276836725       -0.70402064400330
N           11.63278439633392       18.24041998865462       -0.28557762675835
N           11.05635805607429       15.69026396524939        0.79990787610334
C            8.18355364859362       15.00038268541276        1.17615800153784
C            6.80531629999252       14.68315482847950        1.48874893842722
C            6.05878023693205       15.73175860477757        1.03987643541738
C            6.98594684250162       16.66857634201405        0.44129500804726
C            7.47093087556876       18.80221487379577       -0.70821983694596
C            7.04187234407627       20.02391203243896       -1.33966443968642
C            8.18187328999359       20.68272479093201       -1.75170921377450
C            9.28984794684697       19.85410939920915       -1.29982019930062
C           11.69102992612872       19.47912369510972       -0.83606967002097
C           13.04792456972345       19.96536829479700       -0.85135930327364
C           13.82002331980090       18.98202180481751       -0.28584341376888
C           12.90660744469916       17.89785641311179        0.04291686968939
C           12.41204231163744       15.60386539539689        0.78674348807572
C           12.83183505844710       14.27615785000710        1.17589428348544
C           11.70040455775259       13.58907513472477        1.48442089356008
C           10.59629853981474       14.49181625929043        1.24637737559326
C            9.26283354048413       14.18310117977718        1.46657529955703
H            9.04607678983713       13.21989341456575        1.90611677467310
C            6.61351065166992       17.85809672528548       -0.15712105158387
H            5.55485138342838       18.07214756647015       -0.19448986506564
C           10.62563307904850       20.20523136081911       -1.33665182918975
H           10.88085483354840       21.16293511825333       -1.75114627287500
C           13.28034556058182       16.64877081469577        0.50450857003284
H           14.33618837961769       16.46648289207485        0.64043342482165
C            4.58162810968059       15.90683742287791        1.13636782591229
H            4.15158732980751       15.14908492073002        1.78573455581675
H            4.11571290908582       15.82055926245628        0.15454487109732
H            4.32923830629774       16.88409658344527        1.54292054096745
C            6.31852546920172       13.45945051058663        2.18887103360204
H            6.29716473215029       13.61141833046543        3.26900343607492
H            6.95827650776606       12.60639436708038        1.98187782219335
H            5.31003604979103       13.21142528497814        1.86558923345523
C            5.62698840687429       20.46187597490002       -1.50272974425201
H            5.01066256705166       20.10383736531691       -0.68224791620297
H            5.20500361098212       20.08109904823077       -2.43378141928453
H            5.55810513915822       21.54688604281996       -1.52505216129012
C            8.18263064310045       21.94539200307246       -2.44704056206596
H            7.19790612776066       22.40047583410908       -2.52562770128124
C            9.19538146446268       22.61668756163891       -3.00375039720702
H           10.20364404468143       22.25112203537497       -3.04049639058225
H            9.03500666226670       23.57003354681653       -3.48141914214378
C           13.48533799902960       21.29786503212465       -1.35646768536960
H           12.79024715224102       22.07758074590819       -1.05152869444014
H           13.53437804065155       21.29847414143865       -2.44635010854938
H           14.46867686467138       21.55217576915799       -0.97081938729123
C           15.25422900407096       19.04870398395489       -0.11490361759936
H           15.77724401787911       19.59045524095449       -0.89590095017806
C           15.96196329511179       18.56710175823147        0.90477404057699
H           15.49799450883559       18.07636780095306        1.74072874963296
H           17.03091380062019       18.68638221549254        0.94542121807966
C           14.23444760309008       13.76901166240598        1.13324604162135
H           14.81353195612057       14.10013712473153        1.99451369096421
H           14.73366438364644       14.12673583641881        0.23460847722151
H           14.23780793804208       12.68211144764969        1.11396475845387
C           11.58686128342595       12.16682279445992        1.92352574778973
H           12.50025742329464       11.84124143962686        2.41438568578821
H           11.41234632756023       11.51911170743362        1.06231422032023
H           10.76112769083067       12.03079591902071        2.61711028960549
O            9.72501679156487       18.13706040196172        2.10282098540120
H            9.18809837554493       17.62774535359104        2.73787273614887
H           10.32334944648342       18.74453926545364        2.57413051526525
C           11.36912326821173       14.15210123109955       -4.81175422572235
H           11.45851388488370       14.66634957120284       -5.76808102066231
H           10.80526724935059       13.23395250256235       -4.97689694568476
H           12.36248023928162       13.88750279194125       -4.46713726911649
N            9.42604469482804       15.50268196158296       -4.00746224588697
H            8.86216420784779       15.34461671121772       -4.82827118486147
C           10.69014341459815       15.01037390166398       -3.80436268326738
C            9.08569761830063       16.22029651637706       -2.91275702103355
H            8.14446207910186       16.71969578400200       -2.81181438714076
N           10.04677088969846       16.22060602813742       -2.02472622016726
C           11.05359978457306       15.47201094081687       -2.56940984786083
H           11.97288545589675       15.31636234970279       -2.04407202220665
78
 energy: -116.044506110214 gnorm: 0.018290812331 xtb: 6.7.1 (edcfbbe)
Fe           9.95013719275428       17.20098763318257        0.05036399071225
N            8.27114481955493       16.21089451245027        0.54110784105839
N            8.83571201818512       18.71242369984505       -0.70455202051685
N           11.62398398670152       18.23366601376955       -0.28327754076268
N           11.05298620684236       15.69429778667822        0.77768902490821
C            8.19057173918541       15.00536164157587        1.16400125638060
C            6.81408159184808       14.68558168499601        1.47438485883263
C            6.06803085879943       15.73204132919657        1.02537050826970
C            6.99498829448946       16.66938862982845        0.43109750976154
C            7.47836269047104       18.79335731854019       -0.71375183607059
C            7.04945633539396       20.01404538935144       -1.34200745944963
C            8.18866289334124       20.67681563556595       -1.74408988553987
C            9.29451512133405       19.84709286251697       -1.29323251691250
C           11.68673171101043       19.47473066280938       -0.83015023453828
C           13.04330431544216       19.95391792937045       -0.85215310034975
C           13.81340007320146       18.96770612110350       -0.29163337274728
C           12.89977449294461       17.88817697557071        0.03223275115712
C           12.40927519527072       15.60140475035000        0.75905213840550
C           12.83051444477377       14.27439484361044        1.15431962408806
C           11.69598968072223       13.58722160105624        1.46043299582095
C           10.59311149187749       14.49366620101551        1.21981099664842
C            9.26622074441634       14.18416889993150        1.44974969730034
H            9.05194682674466       13.22357254757710        1.89298569809501
C            6.61626391194553       17.85441021254003       -0.16735389180357
H            5.55808160130114       18.06659533938293       -0.20401893956150
C           10.62523490167100       20.20878841663687       -1.32677957901993
H           10.87667271897421       21.17356916061473       -1.72843911888924
C           13.28156590599055       16.63545237705511        0.47549705176227
H           14.33841035183329       16.44510958281321        0.59083787291405
C            4.59160290502635       15.91846921998328        1.12270719654278
H            4.15552239126379       15.16200474590505        1.77196046050814
H            4.12317570101606       15.84007124917908        0.13978388858064
H            4.34930994224983       16.89902713308890        1.53255281712919
C            6.33392393599071       13.46150236683798        2.17926650101259
H            6.32260871290365       13.61734276943879        3.26047850677656
H            6.97412109778193       12.60755449655233        1.96846386853078
H            5.32167096946384       13.21269383461590        1.86388767911425
C            5.63198647387328       20.44698817581447       -1.50596055802731
H            5.01712390192125       20.08742895838155       -0.68293663739130
H            5.21000052175802       20.06376148926668       -2.43760425952965
H            5.55930281172853       21.53343748507490       -1.52887074322521
C            8.18257408169876       21.94338242394085       -2.43360899740427
H            7.19336367616141       22.39788105197125       -2.47076387990205
C            9.17153139370240       22.61315868109946       -3.03068101575917
H           10.18826688399437       22.26475771843665       -3.09842612606825
H            8.98537574870616       23.56097416843950       -3.51257919241806
C           13.48333776299437       21.28723609346397       -1.35408223133848
H           12.79493565493590       22.07127569936461       -1.03891982574911
H           13.52277070411844       21.29237297988635       -2.44586617443820
H           14.47297662861449       21.53230659146555       -0.97392244525726
C           15.24737066985881       19.02927493812853       -0.10723084186106
H           15.77036506927612       19.57114256197573       -0.88834234018343
C           15.94723533725052       18.54735139814895        0.91478987557527
H           15.48332518113867       18.04804738551686        1.74846674627297
H           17.01840383468802       18.66107861158961        0.96321636959767
C           14.23880093152935       13.78002368038868        1.14352763325081
H           14.79497259645057       14.12965746168672        2.01494184068109
H           14.75065197578440       14.13531510898992        0.25014547272151
H           14.25669001304838       12.69132483862180        1.13848559302719
C           11.58077565017535       12.17172289322551        1.91777736184892
H           12.49878104776526       11.85254668273070        2.40746261995451
H           11.39780454980199       11.51124843042700        1.06701820928087
H           10.75918909866916       12.05265374112743        2.62106878815950
O            9.75230480274708       18.12952571848825        2.08690606406352
H            9.20313597126187       17.64626533707703        2.69894313010075
H           10.32509399533309       18.73204812920827        2.57152520282443
C           11.36446994788397       14.17055964171821       -4.78326258184787