72
 energy: -105.853460453938 gnorm: 0.333660731686 xtb: 6.7.1 (edcfbbe)
Fe         -15.84600000000000      -23.03200000000000      -11.29300000000000
N          -15.86200000000000      -21.31700000000000      -12.44700000000000
N          -16.41500000000000      -24.10900000000000      -12.96700000000000
N          -16.06900000000000      -24.68600000000000      -10.09900000000000
N          -15.49500000000000      -21.89100000000000       -9.60500000000000
C          -15.59700000000000      -20.05000000000000      -12.01400000000000
C          -15.54400000000000      -19.18300000000000      -13.12100000000000
C          -15.78000000000000      -19.95600000000000      -14.22300000000000
C          -15.97600000000000      -21.25100000000000      -13.76400000000000
C          -16.47600000000000      -23.65700000000000      -14.23600000000000
C          -16.84200000000000      -24.69900000000000      -15.12900000000000
C          -17.00500000000000      -25.84000000000000      -14.29300000000000
C          -16.72400000000000      -25.38500000000000      -12.97700000000000
C          -16.36300000000000      -25.90300000000000      -10.52900000000000
C          -16.33000000000000      -26.83000000000000       -9.51400000000000
C          -15.98600000000000      -26.12000000000000       -8.34200000000000
C          -15.83300000000000      -24.77700000000000       -8.76800000000000
C          -15.56100000000000      -22.33400000000000       -8.36200000000000
C          -15.43100000000000      -21.28000000000000       -7.47800000000000
C          -15.27900000000000      -20.14100000000000       -8.21300000000000
C          -15.32900000000000      -20.56300000000000       -9.56300000000000
C          -15.56000000000000      -19.72100000000000      -10.64600000000000
H          -15.73500000000000      -18.67299999999999      -10.40400000000000
C          -16.45200000000000      -22.29600000000000      -14.51500000000000
H          -16.87600000000000      -22.01600000000000      -15.47800000000000
C          -16.81400000000000      -26.14800000000000      -11.82000000000000
H          -17.32500000000000      -27.10100000000000      -11.94600000000000
C          -15.55200000000000      -23.64300000000000       -7.99800000000000
H          -15.28900000000000      -23.83700000000000       -6.95900000000000
C          -15.81100000000000      -19.47100000000000      -15.74600000000000
H          -15.12300000000000      -18.60800000000000      -15.87500000000000
H          -16.84000000000000      -19.15400000000000      -16.01800000000000
H          -15.48000000000000      -20.29800000000000      -16.41000000000000
C          -15.26800000000000      -17.67800000000000      -13.14200000000000
H          -15.10100000000000      -17.31700000000000      -12.10500000000000
H          -16.14000000000000      -17.14200000000000      -13.57400000000000
H          -14.35900000000000      -17.47200000000000      -13.74600000000000
C          -17.00400000000000      -24.55900000000000      -16.63400000000000
H          -16.32000000000000      -23.76800000000000      -17.00900000000000
H          -18.05100000000000      -24.27400000000000      -16.87400000000000
H          -16.74900000000000      -25.52000000000000      -17.13000000000000
C          -17.36700000000000      -27.17800000000000      -14.63400000000000
H          -17.84600000000000      -27.75900000000000      -13.83600000000000
C          -17.20500000000000      -27.92600000000000      -15.89600000000000
H          -16.73800000000000      -27.45000000000000      -16.77100000000000
H          -17.55000000000000      -28.96700000000000      -15.97600000000000
C          -16.61800000000000      -28.36700000000000       -9.65400000000000
H          -16.01900000000000      -28.78200000000000      -10.49200000000000
H          -17.69600000000000      -28.52900000000000       -9.86700000000000
H          -16.33400000000000      -28.88900000000000       -8.71500000000000
C          -15.80600000000000      -26.51900000000000       -7.02900000000000
H          -16.28400000000000      -25.89900000000000       -6.25900000000000
C          -15.08600000000000      -27.62500000000000       -6.52600000000000
H          -14.56800000000000      -28.31200000000000       -7.21100000000000
H          -15.03500000000000      -27.81200000000000       -5.44300000000000
C          -15.44700000000000      -21.34500000000000       -5.93700000000000
H          -14.45100000000000      -21.67100000000000       -5.56900000000000
H          -16.21300000000000      -22.07600000000000       -5.60000000000000
H          -15.67300000000000      -20.34000000000000       -5.52100000000000
C          -15.09200000000000      -18.71500000000000       -7.64900000000000
H          -14.42000000000000      -18.75100000000000       -6.76500000000000
H          -16.07500000000000      -18.30300000000000       -7.33700000000000
H          -14.63500000000000      -18.06200000000000       -8.42300000000000
O          -17.89600000000000      -22.80200000000000      -11.16600000000000
H          -18.25100000000000      -23.14400000000000      -11.98600000000000
H          -18.36400000000000      -22.45700000000000      -10.49300000000000
C          -12.77300000000000      -22.20600000000000      -12.38200000000000
H          -11.74300000000000      -22.46500000000000      -12.70900000000000
H          -12.70200000000000      -21.37400000000000      -11.65000000000000
H          -13.33800000000000      -21.85800000000000      -13.27300000000000
S          -13.59000000000000      -23.60900000000000      -11.64300000000000
H          -13.71100000000000      -24.28300000000000      -12.77700000000000
72
 energy: -105.930184562524 gnorm: 0.139334426964 xtb: 6.7.1 (edcfbbe)
Fe         -15.84229546605181      -23.03127875721704      -11.29746525382529
N          -15.82845772551433      -21.32516530458869      -12.43650375114622
N          -16.38638152879601      -24.10794876025535      -12.96145229403364
N          -16.05631250797125      -24.67096805569474      -10.11251410684735
N          -15.50327045170990      -21.89680233835643       -9.63001550457220
C          -15.60375267296414      -20.04765292033361      -12.00836787649536
C          -15.55022221202020      -19.16504193665890      -13.13297976518867
C          -15.78559693008467      -19.93068703281008      -14.24543625043138
C          -15.99002008183283      -21.25296219974140      -13.77274824468816
C          -16.49767195768591      -23.65281076462590      -14.23689465895878
C          -16.84400613241645      -24.71363619353788      -15.12944314305274
C          -17.00593599845895      -25.85152483046493      -14.32551936433642
C          -16.73159097049938      -25.40066589996257      -12.97878240279111
C          -16.38335094361970      -25.90299873572771      -10.54225407731005
C          -16.32645547790674      -26.85203013716065       -9.49877520980942
C          -15.97352759387929      -26.14118917972613       -8.35266297248303
C          -15.83046106576476      -24.77402066953121       -8.77842025511673
C          -15.53376187720189      -22.34453235966105       -8.36267251105549
C          -15.41765295921708      -21.26145994258027       -7.45274118330621
C          -15.28558278681358      -20.12567818335196       -8.19963074534495
C          -15.37045244922645      -20.55131967766849       -9.57111925557040
C          -15.55071694376207      -19.70371064066273      -10.65527858442569
H          -15.70185977883749      -18.65887547329063      -10.41308440188599
C          -16.45170206391255      -22.30119301422362      -14.54624994804294
H          -16.85260608024117      -22.02206007668691      -15.51103374520064
C          -16.82184059135426      -26.17581532209972      -11.83319012616267
H          -17.30934701934437      -27.13168107447596      -11.95518635203272
C          -15.54785964499740      -23.66852904214932       -7.98592623873017
H          -15.31246089545519      -23.85576485894018       -6.94544309165128
C          -15.80833699563279      -19.47650244301858      -15.71746202615089
H          -15.13492425426999      -18.62432090661160      -15.86164103588164
H          -16.82040104822708      -19.16394266498707      -16.00367618738817
H          -15.48828928267411      -20.28523119759420      -16.38555622641263
C          -15.26941623688679      -17.68517873615971      -13.13517711552058
H          -15.10159364669561      -17.31938575059401      -12.11732777373043
H          -16.12237971990724      -17.14860541126956      -13.56837990565960
H          -14.37631207663899      -17.47289448541187      -13.73606809482666
C          -17.00053316059625      -24.56155065831581      -16.61789022011964
H          -16.33173939356433      -23.77970104118404      -16.99884605962844
H          -18.03313971632982      -24.28249634981645      -16.86945355300792
H          -16.75716922052515      -25.49851979456010      -17.12550977371180
C          -17.36882502484825      -27.19760426488237      -14.67469529937636
H          -17.82991406084452      -27.76405997456870      -13.86257562309006
C          -17.21392792936479      -27.89075063661179      -15.85528431948582
H          -16.74629489678311      -27.45410531291196      -16.73240691929700
H          -17.54336517279767      -28.92297554578479      -15.94876170129977
C          -16.61214087063100      -28.34513398011694       -9.64595030109399
H          -16.02796014345812      -28.76529234710503      -10.47500023210380
H          -17.67534234130749      -28.51907922622292       -9.85881494462416
H          -16.34270820502867      -28.87379621310670       -8.72687829496436
C          -15.79766154212205      -26.55127786943480       -7.00444421712368
H          -16.26372850038426      -25.90726540715961       -6.25463049557074
C          -15.10643919072529      -27.61464555177158       -6.53489502535035
H          -14.57926864789174      -28.29061003292950       -7.20134340442311
H          -15.03872755529422      -27.80440208346649       -5.46872565119828
C          -15.44440923997179      -21.34419381342732       -5.94354679762354
H          -14.46427656373167      -21.66689077067130       -5.57125343865309
H          -16.20007666748325      -22.06303280268133       -5.60583663751209
H          -15.67201571365999      -20.35907827295845       -5.52489788045255
C          -15.09238164698106      -18.72539954352702       -7.65795038624678
H          -14.43026170692619      -18.75102659499029       -6.78408612979697
H          -16.05803787585786      -18.30796078766717       -7.34495362861593
H          -14.64527764822146      -18.07159882882534       -8.41381778034431
O          -17.89370420337783      -22.80015778917783      -11.17203834741264
H          -18.27360804428612      -23.14034896240831      -11.98197533568938
H          -18.40285056242358      -22.44302206180480      -10.46984836887771
C          -12.76448754213336      -22.19450064433168      -12.39417230318366
H          -11.74829562325150      -22.46485218589015      -12.70519043045525
H          -12.70781669812486      -21.38622881659045      -11.65776190229621
H          -13.33369115335428      -21.85234681777422      -13.26406616283924
S          -13.58844176229926      -23.60276579585898      -11.63633633305432
H          -13.71267570694669      -24.28426424363496      -12.77408242141068
72
 energy: -105.952451921375 gnorm: 0.051985565452 xtb: 6.7.1 (edcfbbe)
Fe         -15.85011037307701      -23.02832388488228      -11.29936658052012
N          -15.80493677819067      -21.33810879635557      -12.43208824864721
N          -16.36744288655424      -24.10897980294771      -12.95242301088223
N          -16.04766445233595      -24.66133426085709      -10.13288826251659
N          -15.51909120466317      -21.90561826881767       -9.64945390727752
C          -15.60681464374687      -20.05661493701725      -12.00610496040910
C          -15.56012681972861      -19.15990034492820      -13.14014812501791
C          -15.79533572782083      -19.91866889759370      -14.25472535471311
C          -15.99964235724937      -21.26228345372163      -13.77798349745852
C          -16.51236683708965      -23.64941600571315      -14.23063733909517
C          -16.85130072945472      -24.72344236725017      -15.12341375349424
C          -17.00825184857521      -25.84984094432752      -14.34303993754625
C          -16.73193362062189      -25.41404811512054      -12.97728244213904
C          -16.39997036468549      -25.90138991549765      -10.55877706281715
C          -16.32606958797505      -26.85902432957786       -9.48708399500687
C          -15.96242134157931      -26.14857269255327       -8.36953084172662
C          -15.82035237949487      -24.76760772475809       -8.79849719814909
C          -15.50558261726887      -22.35729384521990       -8.36842276964167
C          -15.40153783012376      -21.25472006143971       -7.44368089337291
C          -15.30080160494368      -20.12214823145026       -8.19757396998829
C          -15.41689123531158      -20.54862515107795       -9.58067065332395
C          -15.53464601259570      -19.69210468554178      -10.66678917559404
H          -15.63228239616473      -18.63988171341351      -10.43049241689996
C          -16.43478438579084      -22.30862788079443      -14.57698192745172
H          -16.79501544153977      -22.03385802754342      -15.55749125465205
C          -16.81757358591186      -26.20907243102207      -11.84731815935387
H          -17.26855480120537      -27.18067605505787      -11.97132031846944
C          -15.54124630950466      -23.68821423636482       -7.98027286648694
H          -15.34975400513286      -23.87506286015461       -6.93243631432410
C          -15.81079498259888      -19.48157261708360      -15.68153545527908
H          -15.14417140534377      -18.63492930206197      -15.83521267933137
H          -16.81244038009816      -19.17157986914981      -15.98464006094191
H          -15.49436367699152      -20.28207071717026      -16.34889303989742
C          -15.27458520215056      -17.69560421952205      -13.12766977748257
H          -15.10276288754761      -17.32706512771563      -12.12148167930779
H          -16.11183542914658      -17.14900930701910      -13.56154579898996
H          -14.39002822237487      -17.47717858087347      -13.72710153947757
C          -17.00071928395289      -24.56350597150998      -16.60142505746728
H          -16.33844282229335      -23.78610781685714      -16.97939778303161
H          -18.02491119775586      -24.28646564462852      -16.85886330612835
H          -16.76492162249107      -25.48625417015322      -17.11869574206869
C          -17.36776066530010      -27.20949086677471      -14.69369365303589
H          -17.82292931242034      -27.75885135876330      -13.87191792153150
C          -17.21360025699010      -27.85873120042620      -15.82079078661040
H          -16.75246595944442      -27.44684930537383      -16.70347177678969
H          -17.53969850643161      -28.88323510529804      -15.92748088831650
C          -16.60673915076090      -28.31803279390280       -9.63466756524318
H          -16.02925030664397      -28.74094452087194      -10.45801982851357
H          -17.66170873859729      -28.49746032447603       -9.85108074577776
H          -16.35101571381000      -28.85402329308906       -8.72600482751426
C          -15.78795070006868      -26.56313787667681       -6.99291974126482
H          -16.25751954000373      -25.90647461357417       -6.26326509477102
C          -15.11324913994250      -27.60436542273002       -6.54642827056410
H          -14.59153243091346      -28.28285028700336       -7.20031728115877
H          -15.04314068971636      -27.81031664139289       -5.49105858297169
C          -15.43375253060239      -21.34611455862097       -5.95573707779599
H          -14.46697839479735      -21.66857278407975       -5.56920177520792
H          -16.18676341890641      -22.05685541714985       -5.62110215382648
H          -15.66748075505836      -20.37465644687020       -5.52803776501524
C          -15.10099364735526      -18.73775062099877       -7.67390623566670
H          -14.44110330427660      -18.75684296726505       -6.80706106307960
H          -16.05188832913822      -18.30661536640074       -7.35611099312475
H          -14.65747822328156      -18.08383319824611       -8.41908501885794
O          -17.90946399458519      -22.77775534967308      -11.16907304378296
H          -18.32809326497374      -23.12868790437435      -11.95844502664368
H          -18.45124279642027      -22.43678367112595      -10.45990293942449
C          -12.75499527425271      -22.17992716947314      -12.40526362505644
H          -11.75003783559593      -22.46575540595587      -12.70392687871689
H          -12.71032509653209      -21.39051252189229      -11.66210264330488
H          -13.33081514606290      -21.84374600790496      -13.25957579222607
S          -13.58861884180078      -23.59357051556885      -11.62748638053616
H          -13.71692874423487      -24.28745321930225      -12.76450746729125
72
 energy: -105.960424598903 gnorm: 0.027088111150 xtb: 6.7.1 (edcfbbe)
Fe         -15.87806642600608      -23.02352249256735      -11.29967296552616
N          -15.80541267906824      -21.34671640106083      -12.43055574648427
N          -16.36976090741513      -24.10948577312639      -12.94542378888010
N          -16.04791411950054      -24.65845596435965      -10.14878363532573
N          -15.53799423992489      -21.91036007073050       -9.65831871700524
C          -15.60512315813890      -20.06749438709669      -12.00489773987013
C          -15.56605780722682      -19.16415534671515      -13.13665856656286
C          -15.80110626263070      -19.92031514311278      -14.24793200928310
C          -15.99722360015849      -21.27245470739203      -13.77792118977623
C          -16.51023488071494      -23.65041723083430      -14.22388582768080
C          -16.85454653459339      -24.72564069223492      -15.11594782679798
C          -17.01139380198360      -25.84506701585610      -14.33885017619395
C          -16.72591503676691      -25.42059385054490      -12.97372799772133
C          -16.39812825509156      -25.90202814933002      -10.57067013001094
C          -16.32323496791355      -26.85453176875219       -9.48493257276810
C          -15.95556581810616      -26.14224553074541       -8.37949002666845
C          -15.81450360482756      -24.76170332306341       -8.81543692671892
C          -15.49825573210548      -22.36375210061244       -8.37541522089661
C          -15.39010241011181      -21.25710260526821       -7.44886778223976
C          -15.31412260818854      -20.12595080633418       -8.20552425042825
C          -15.43914632005953      -20.55271924804269       -9.58811124471470
C          -15.51325623497303      -19.69069485598142      -10.67391615371124
H          -15.53421640061485      -18.62536185889745      -10.44911730069047
C          -16.40369908524343      -22.31778273210081      -14.59416791666915
H          -16.70058276385194      -22.05416301356193      -15.60519942986862
C          -16.79729125926786      -26.23348433173341      -11.85685644283754
H          -17.19536088040260      -27.23238735219860      -11.99169985228888
C          -15.54280252065045      -23.69427225020668       -7.98396256571802
H          -15.38943424995327      -23.88949530926683       -6.92962548599264
C          -15.81650320968053      -19.48182699477458      -15.66537538647654
H          -15.15105011256369      -18.63373671069755      -15.80991219127043
H          -16.81769277779580      -19.17475827354207      -15.97068021853951
H          -15.49590874808762      -20.28346742540189      -16.32707424918088
C          -15.27923995857473      -17.70241593317238      -13.11815644663420
H          -15.10370908037861      -17.33619609058794      -12.11279742686017
H          -16.11144854453499      -17.14799902805954      -13.55061917582580
H          -14.39600850325638      -17.48381019182295      -13.71851514949750
C          -17.00590239449301      -24.56073587599546      -16.58995982803237
H          -16.34191939798961      -23.78381625322156      -16.96109784432929
H          -18.02885759092585      -24.28181155108243      -16.84461092064587
H          -16.77374971505497      -25.47941602736629      -17.11407798418102
C          -17.37934833954183      -27.20556677976568      -14.67998481902399
H          -17.82854076659235      -27.75160179418421      -13.85606918817797
C          -17.21663307152398      -27.85394524216258      -15.82728975046253
H          -16.74317059908258      -27.44159908192834      -16.70004363324102
H          -17.53473648262271      -28.87839801875360      -15.93317380508088
C          -16.60815491552567      -28.30538933561105       -9.62374562982693
H          -16.02450797646673      -28.72836156079042      -10.44089741837818
H          -17.66189381737803      -28.47698292043663       -9.84683419854349
H          -16.36358107600009      -28.83661365992053       -8.71002979402492
C          -15.78534658847159      -26.55678492579730       -6.99459854716954
H          -16.25070066588397      -25.89561299570065       -6.26960116509354
C          -15.11827055253036      -27.61191470621236       -6.55702086461888
H          -14.59315987091624      -28.28234747117022       -7.21401997307560
H          -15.04230177549769      -27.82686774251097       -5.50444049728850
C          -15.41737762033040      -21.35272341179830       -5.96382146190563
H          -14.45492115789244      -21.67769640780683       -5.56992825931971
H          -16.17306343171149      -22.06283989486934       -5.63602447281805
H          -15.65517010891694      -20.38496980958137       -5.53034554244064
C          -15.11396564907693      -18.74110077870128       -7.69357686962258
H          -14.45012555423005      -18.75920514609792       -6.83079520472860
H          -16.05974023893193      -18.30125059209450       -7.37429967561997
H          -14.67162178797060      -18.09342293004660       -8.44360343301594
O          -17.95306299589999      -22.72758146626967      -11.16203638852404
H          -18.40789662664969      -23.11941511367195      -11.91746630438588
H          -18.50932035570146      -22.43131538708975      -10.43575459643100
C          -12.75139745762723      -22.16745695520687      -12.40992458870477
H          -11.75024060987807      -22.46689988354385      -12.70396592946425
H          -12.70633251728919      -21.38219815658686      -11.66488192111661
H          -13.32883382786817      -21.83073684718062      -13.26136033157858
S          -13.59754060042700      -23.57496884174235      -11.61647109076179
H          -13.72460036273812      -24.28688747531502      -12.74454833475212
72
 energy: -105.965721718508 gnorm: 0.036976001658 xtb: 6.7.1 (edcfbbe)
Fe         -15.89783705535335      -23.01825643573590      -11.30169551242653
N          -15.81144336952823      -21.35716471189195      -12.42653321779969
N          -16.38652412257852      -24.10751240819965      -12.93461553832674
N          -16.06154622474624      -24.65255532848321      -10.16498147731177
N          -15.56228013317349      -21.91352521326042       -9.66529881316326
C          -15.59994578883276      -20.08243426784743      -12.00155914417382
C          -15.56928354243227      -19.17273688136265      -13.12888482449819
C          -15.80473868029956      -19.92696031138593      -14.23581834427804
C          -15.99126128225575      -21.28570615330992      -13.77397231601882
C          -16.50453413421248      -23.65194054895423      -14.21364747587240
C          -16.85376074885639      -24.72542077340043      -15.10882003340444
C          -17.00907369808151      -25.84315523214783      -14.33304494518946
C          -16.72335863302455      -25.42556751092412      -12.96928763751919
C          -16.39278300073009      -25.90194555883378      -10.58309017728991
C          -16.31791626518786      -26.84660916108191       -9.48497357059027
C          -15.94977916487128      -26.12884911413439       -8.38827313472587
C          -15.82131958677524      -24.75015574546399       -8.83298047986210
C          -15.50398296742185      -22.36579661472844       -8.38350084153411
C          -15.38050375878053      -21.25945068308315       -7.45805022534436
C          -15.32514065085482      -20.13091778828198       -8.21642218753366
C          -15.45396577566350      -20.55892733084681       -9.59507263307191
C          -15.47788549235350      -19.69526785622152      -10.67959385200913
H          -15.43175572741668      -18.62794639897635      -10.46780818791591
C          -16.35701237910888      -22.33018165900006      -14.60728693361751
H          -16.58561624265968      -22.08139368899444      -15.64284262719287
C          -16.76441726975884      -26.26010927325418      -11.86728644016692
H          -17.10011457899837      -27.28380143596335      -12.01262396034064
C          -15.55883226572915      -23.69264404081465       -7.98964865668339
H          -15.42423442722987      -23.90050334962207       -6.93795451643079
C          -15.82363356616752      -19.48051428792370      -15.65468097165002
H          -15.16199298209494      -18.62682056543100      -15.78913200158006
H          -16.82666612613607      -19.17757418406601      -15.95907787698428
H          -15.49577022274616      -20.27850509821635      -16.31742366741697
C          -15.28415039041474      -17.71054768987191      -13.10621602017141
H          -15.10557481313255      -17.34773413228879      -12.09934335538429
H          -16.11582498049757      -17.15071148553583      -13.53454823285768
H          -14.40030429299885      -17.49186344741083      -13.70777595942311
C          -17.01342588999208      -24.55458899234900      -16.58024023191003
H          -16.34625121163116      -23.77870672530553      -16.94770441577408
H          -18.03732488607723      -24.27106564650433      -16.82719393751670
H          -16.78680313838927      -25.47240565461902      -17.11006288097943
C          -17.38056049262763      -27.20282664556023      -14.66661015690635
H          -17.84469163624115      -27.74700652890769      -13.85534170620629
C          -17.20841190769559      -27.84942196400283      -15.81741868508889
H          -16.74220004852164      -27.42041741921588      -16.68313619567987
H          -17.54047162831000      -28.86759600150970      -15.92581998263984
C          -16.61163232042794      -28.29755490321639       -9.61314028472605
H          -16.01728503699384      -28.73154432546299      -10.41705335136647
H          -17.66478446964437      -28.45913147854015       -9.84854987727902
H          -16.38504857732125      -28.81877785284782       -8.68768633210331
C          -15.77891417862760      -26.54293717082605       -7.00011029275705
H          -16.24496782985566      -25.88707101600320       -6.27478588658781
C          -15.11545728302252      -27.61100930906342       -6.57430073268231
H          -14.60474350851925      -28.28176326311823       -7.24223098863741
H          -15.04862546890783      -27.84711177035885       -5.52456526980028
C          -15.39699661596921      -21.36210182212213       -5.97243716604258
H          -14.43588023905650      -21.69430717640097       -5.57997725661904
H          -16.15676307762996      -22.07230804687548       -5.64971051169681
H          -15.63159080247773      -20.39525356759588       -5.53226000062195
C          -15.12909912177490      -18.74062354631713       -7.71708907917729
H          -14.46335900831753      -18.75272731412180       -6.85498458334111
H          -16.07437749755297      -18.29494041649743       -7.40346666258428
H          -14.68676928782551      -18.10228616033985       -8.47663312775125
O          -17.99990318328207      -22.63686831221107      -11.17072721719637
H          -18.50176793029662      -23.13216264276000      -11.85439702100895
H          -18.57683702410036      -22.45814369910514      -10.40111257966929
C          -12.74900662678104      -22.15382245194605      -12.41197422557433
H          -11.75242357018363      -22.46652577550842      -12.70626632926319
H          -12.69742379463235      -21.36843753770482      -11.66716547327383
H          -13.32830342905250      -21.81756594939704      -13.26303902162475
S          -13.60053216652193      -23.55836300584638      -11.60289094549075
H          -13.73060277063490      -24.28591954088935      -12.72115180066321
72
 energy: -105.968219760081 gnorm: 0.021913085648 xtb: 6.7.1 (edcfbbe)
Fe         -15.92749223307091      -23.01298874373804      -11.29879794741759
N          -15.81079713927203      -21.36551863978239      -12.42496295903416
N          -16.39248645760313      -24.10924441243341      -12.92919909415458
N          -16.07743183878058      -24.65091881526838      -10.17183978804544
N          -15.57762995011110      -21.91429232514906       -9.66682860231274
C          -15.59089012261797      -20.09356986529065      -12.00041572142035
C          -15.56412132499471      -19.18162285514246      -13.12381421900935
C          -15.79932019163273      -19.93560590522625      -14.22893558193432
C          -15.97814425045070      -21.29579766433725      -13.77175497121804
C          -16.49154632496026      -23.65611072780759      -14.20844630306153
C          -16.84619555868835      -24.72550338812706      -15.10656903074922
C          -17.00435856325886      -25.84473268563702      -14.32961820481698
C          -16.71485312190980      -25.43009484612757      -12.96901647338025
C          -16.38321143592455      -25.90578063593134      -10.58962110643994
C          -16.31056810086953      -26.84378983135153       -9.48809759786353
C          -15.95076695106779      -26.12019629791238       -8.39133265156525
C          -15.83429265690178      -24.74385595821381       -8.84054702914306
C          -15.51590883220221      -22.36413734276540       -8.38763802888726
C          -15.37702550019045      -21.26085818253618       -7.46559828925108