78
 energy: -116.004701531295 gnorm: 0.190834797002 xtb: 6.7.1 (edcfbbe)
Fe          15.45200000000000       33.04800000000000       13.59300000000000
N           17.29600000000000       33.48800000000000       14.26700000000000
N           14.96300000000000       32.33400000000000       15.47000000000000
N           13.51000000000000       32.73800000000000       13.03500000000000
N           15.85100000000000       33.83900000000000       11.84600000000000
C           18.30000000000000       34.07200000000000       13.51000000000000
C           19.43100000000000       34.34000000000000       14.35500000000000
C           19.10000000000000       33.90700000000000       15.59000000000000
C           17.79100000000000       33.36200000000000       15.51400000000000
C           15.79500000000000       32.33600000000000       16.53000000000000
C           15.11100000000000       31.79800000000000       17.66300000000000
C           13.84800000000000       31.42400000000000       17.23800000000000
C           13.77100000000000       31.81800000000000       15.82400000000000
C           12.49600000000000       32.18100000000000       13.76800000000000
C           11.31600000000000       32.14300000000000       12.99300000000000
C           11.58800000000000       32.78000000000000       11.81100000000000
C           12.98700000000000       33.11900000000000       11.82200000000000
C           14.99400000000000       34.00599999999999       10.78700000000000
C           15.69500000000000       34.62300000000000        9.65200000000000
C           16.95500000000000       34.82000000000000       10.04300000000000
C           17.05900000000000       34.30300000000000       11.42400000000000
C           18.23700000000000       34.39700000000000       12.17900000000000
H           19.14400000000000       34.74399999999999       11.68500000000000
C           17.10800000000000       32.84100000000000       16.58100000000000
H           17.62000000000000       32.81600000000000       17.54300000000000
C           12.62400000000000       31.68300000000000       15.06700000000000
H           11.77400000000000       31.16100000000000       15.50600000000000
C           13.63600000000000       33.71400000000000       10.76700000000000
H           13.06100000000000       33.96800000000000        9.87700000000000
C           19.93600000000000       34.01700000000000       16.83400000000000
H           20.89699999999999       34.52000000000000       16.59200000000000
H           20.15100000000000       33.00300000000000       17.23300000000000
H           19.39700000000000       34.61799999999999       17.59700000000000
C           20.72600000000000       34.99200000000000       13.93300000000000
H           20.56600000000000       35.55799999999999       12.99000000000000
H           21.49900000000000       34.21300000000000       13.75900000000000
H           21.06600000000000       35.69600000000000       14.72200000000000
C           15.67100000000000       31.66600000000000       19.06000000000000
H           16.41000000000000       32.47600000000000       19.24100000000000
H           16.17900000000000       30.68400000000000       19.17000000000000
H           14.85000000000000       31.75400000000000       19.80300000000000
C           12.75100000000000       30.75100000000000       17.96900000000000
H           11.70400000000000       30.95499999999999       17.70200000000000
C           12.98800000000000       29.90000000000000       18.94700000000000
H           14.02100000000000       29.66700000000000       19.24700000000000
H           12.15600000000000       29.41200000000000       19.47600000000000
C           10.03500000000000       31.51500000000000       13.43700000000000
H            9.49600000000000       32.21100000000000       14.11500000000000
H           10.24900000000000       30.57200000000000       13.98400000000000
H            9.39400000000000       31.30400000000000       12.55400000000000
C           10.66800000000000       33.13400000000000       10.70700000000000
H           10.97900000000000       32.98300000000000        9.66300000000000
C            9.45000000000000       33.64000000000000       10.93300000000000
H            9.09700000000000       33.80800000000000       11.96100000000000
H            8.78600000000000       33.89400000000000       10.09300000000000
C           15.08400000000000       35.03200000000000        8.34000000000000
H           14.57100000000000       36.01000000000000        8.45900000000000
H           14.34000000000000       34.27199999999999        8.01900000000000
H           15.87900000000000       35.13399999999999        7.57100000000000
C           17.90500000000000       35.78200000000000        9.38600000000000
H           17.33299999999999       36.63200000000000        8.95600000000000
H           18.45500000000000       35.26800000000000        8.56900000000000
H           18.62200000000000       36.17400000000000       10.13800000000000
O           14.81100000000000       34.98200000000000       14.27300000000000
H           13.93100000000000       35.10800000000000       13.91900000000000
H           15.26100000000000       35.55700000000000       14.78000000000000
C           15.53100000000000       27.77200000000000       11.17000000000000
H           16.04600000000000       26.92899999999999       11.67800000000000
H           15.84600000000000       27.79700000000000       10.10500000000000
H           14.43300000000000       27.61700000000000       11.23800000000000
N           17.20000000000000       29.51400000000000       11.92000000000000
H           17.99500000000000       29.00800000000000       11.58600000000000
C           15.90500000000000       29.06900000000000       11.84200000000000
C           17.22000000000000       30.71300000000000       12.50500000000000
H           18.12500000000000       31.28600000000000       12.70400000000000
N           15.96700000000000       31.06800000000000       12.79200000000000
C           15.13100000000000       30.08700000000000       12.33000000000000
H           14.05500000000000       30.19700000000000       12.38800000000000
78
 energy: -116.035356552326 gnorm: 0.066839407697 xtb: 6.7.1 (edcfbbe)
Fe          15.44964677666863       33.03219787944305       13.58637649180663
N           17.29725471997088       33.48247473987956       14.24637590141470
N           14.97117378363656       32.33647659117115       15.45191786847229
N           13.51807292476090       32.75251798581120       13.03261213525229
N           15.85846131247469       33.82700571747907       11.82716777240503
C           18.29844869312050       34.06327242066939       13.50807684367150
C           19.43769282766367       34.33678799448960       14.35049023429880
C           19.10679715690841       33.90830405463940       15.59538274576872
C           17.77805683031005       33.36849275329141       15.51011104205534
C           15.78455158606443       32.34085187383718       16.53357526478896
C           15.09929630070694       31.78427746145540       17.66866552488005
C           13.84531639504718       31.42252854078553       17.23741100515164
C           13.78300676582766       31.81219479945961       15.82724200819834
C           12.51644126745045       32.16418283786322       13.75231708442521
C           11.30662054277780       32.14876950342018       12.99075539577696
C           11.57607887503403       32.77679233399600       11.80332446894341
C           12.97961569783008       33.11484350295864       11.83078798259385
C           14.99674812327042       33.99914685163952       10.77954520465765
C           15.67989064180986       34.63331633633034        9.66183564910521
C           16.94976590569924       34.85583015912687       10.06492026244869
C           17.05857055680990       34.31488579748149       11.41712344579319
C           18.22220447140587       34.39077621933541       12.17161379494864
H           19.11922820478500       34.75380290770300       11.68577143393301
C           17.08786907598846       32.83708602723510       16.58006583217034
H           17.60261203900862       32.80439358832627       17.53275500924284
C           12.64670769820693       31.67716943088566       15.05189098600267
H           11.78890766905256       31.18650951311216       15.49664729424178
C           13.64511770127324       33.70588034142131       10.77450088769362
H           13.07328336890265       33.95650808494158        9.89021210740866
C           19.93518959904711       34.01298099514525       16.83475573593904
H           20.88472520258999       34.50581550306949       16.60862321817649
H           20.14889551146672       33.01946358864964       17.24113289495631
H           19.41087575913862       34.60073053123980       17.59574051859062
C           20.71816697746687       34.98976253598397       13.92805440432684
H           20.57889875441559       35.55424315935684       13.00271293512228
H           21.49320830216399       34.23338858495733       13.76063094113236
H           21.06695651888074       35.68130776034973       14.70091917719082
C           15.66501123802418       31.66724958980291       19.05154254518472
H           16.39463010261017       32.46085433332760       19.24268278818497
H           16.17283595937228       30.70403406452713       19.17742281016140
H           14.86539616136443       31.74602308006334       19.79354592141511
C           12.76843240898322       30.76435283600825       17.97175477343308
H           11.73883861927045       30.96911294465214       17.68187791691256
C           12.98986083632663       29.90265790163593       18.95710942153608
H           13.99722991695412       29.64405308441805       19.25330022637377
H           12.17257835372985       29.41385339524010       19.47477777040153
C           10.03011870753115       31.52192935026558       13.43645049356460
H            9.48917308608941       32.19383118546347       14.11267454056200
H           10.23189913280918       30.58777044998100       13.97085478629702
H            9.39339788563204       31.30892926225325       12.57284987454154
C           10.65811883579636       33.11941193925419       10.71756191364285
H           10.99324002051179       32.98444924864663        9.69010543124125
C            9.44835397001168       33.62669658503582       10.93326508639662
H            9.09328488351783       33.81181785293354       11.93921168453228
H            8.79298815884534       33.89204928285935       10.11180771837043
C           15.07585325982851       35.02812018401586        8.35215392487772
H           14.56615230803295       35.99381154443527        8.44986262520045
H           14.34847053838264       34.28472790664070        8.01495639893402
H           15.85501680943117       35.12925707811183        7.59028539161309
C           17.91921757684997       35.77169106989506        9.38653173187001
H           17.36230551229168       36.61207784938508        8.95798714189026
H           18.46527256735010       35.27432044070868        8.57786383848450
H           18.63098426691173       36.17034877799937       10.11214487941040
O           14.79915604305894       34.97816773507849       14.25935388017647
H           13.91599521881531       35.13728049302243       13.92893717849438
H           15.26261578849388       35.59365364340123       14.79937444835254
C           15.53575731825694       27.78122656158009       11.17193890756058
H           16.03729832524944       26.94192207340116       11.66687435170565
H           15.83429787264852       27.78839719174837       10.11852505603333
H           14.45699571374895       27.62611798117984       11.23499972240778
N           17.19929565000880       29.50266944874578       11.92146700789972
H           18.00080174683711       28.99240671580591       11.59190739865472
C           15.90212095189677       29.07763768145784       11.81835047748469
C           17.20619145767209       30.71232315753217       12.50847203001214
H           18.09781352539733       31.27992807548738       12.71011276237663
N           15.97210830840712       31.08921787524653       12.78002165350596
C           15.14719897157705       30.09244842468327       12.34220529647170
H           14.08033745383767       30.19220279712886       12.41483669084660
78
 energy: -116.042999240558 gnorm: 0.022720626932 xtb: 6.7.1 (edcfbbe)
Fe          15.44408732419828       33.02138517882194       13.58408387819875
N           17.29946576442736       33.47395983928197       14.22938337592462
N           14.98070283360407       32.32857947679952       15.43277752743620
N           13.53062169811553       32.74080836139341       13.02033007219781
N           15.86315556710096       33.81718465062340       11.81207814826776
C           18.29759975549734       34.05154747974456       13.50569952333049
C           19.44152613257226       34.32884771385473       14.34553384797066
C           19.10820995373919       33.90622348984279       15.59638252451851
C           17.76961839077983       33.36725574609941       15.50300851255543
C           15.78308760479898       32.33657134091613       16.52959860926869
C           15.09820803832948       31.77061162340678       17.66707996196569
C           13.85182780683143       31.41064790167782       17.22850549814863
C           13.79472877690199       31.80131665406763       15.82559613063348
C           12.53521092943135       32.15013709163733       13.74072413200080
C           11.30360829437985       32.14994365591281       12.99300974324940
C           11.57111601181368       32.77428827487203       11.80322607519647
C           12.97974747495453       33.10070842834945       11.83229610716217
C           15.00102918286016       33.99425171780700       10.77195921647197
C           15.66850356427768       34.64731977981737        9.66932085493131
C           16.94226567910083       34.89026305386795       10.08041092724121
C           17.05462253540928       34.33409529608839       11.41158906117830
C           18.20888617901714       34.39317815716741       12.16839799086994
H           19.09663142087958       34.78124285012120       11.69131189581782
C           17.07742681747994       32.82877575742578       16.57276451944927
H           17.59401899185770       32.79456858593814       17.52002494975153
C           12.66501571657258       31.67421350287352       15.03864653484249
H           11.79875639809846       31.20921370898264       15.48622984114399
C           13.65451780507985       33.69121160269106       10.77745854179742
H           13.08297258052909       33.93867460507634        9.89668687719425
C           19.92890820476381       34.00493031952876       16.83670773827961
H           20.87518592939414       34.49187161310016       16.62129590158106
H           20.13867776769471       33.01906873704966       17.24606791703835
H           19.40948822953130       34.58429574341646       17.59819490444771
C           20.71319400306819       34.98391562624402       13.92179112615992
H           20.58011853385785       35.54820012897347       13.00499697543643
H           21.49162471355787       34.23952428256550       13.75565181649009
H           21.06403016274746       35.66865393475934       14.69051983613902
C           15.66136225368591       31.66749634612361       19.04347547136437
H           16.37952620927317       32.46073837740996       19.23483484720564
H           16.17369719600548       30.71490398213477       19.17943725731054
H           14.86634009424275       31.73599449225821       19.78161789335664
C           12.78872729403918       30.76129535548272       17.96169577753624
H           11.77269440971578       30.98703190401557       17.66201031864408
C           12.98909254433748       29.89795218207526       18.95565456617663
H           13.97874856702060       29.62088713157099       19.26447709650313
H           12.17311237056348       29.43129676450333       19.47810575949045
C           10.02643161571868       31.52799526966524       13.44013084782407
H            9.48605385875741       32.18834456405944       14.11751360580586
H           10.21973489038935       30.59441298339572       13.96408140839701
H            9.39082028124953       31.32313991067771       12.58309132993680
C           10.65787943118799       33.11839443177369       10.73079540403917
H           11.01146043944799       32.97809709533076        9.71631121981285
C            9.44684163467045       33.62184076847044       10.93472884817010
H            9.07655553746030       33.80234218752646       11.92744546750662
H            8.79085710809940       33.87636465779244       10.12143130466224
C           15.06484472245520       35.02994024079810        8.36152866546837
H           14.54983818376208       35.98749745922736        8.44487428417448
H           14.34917840894464       34.28681053918073        8.02292788161916
H           15.84034727092910       35.12778793208890        7.60607905978436
C           17.93431961124313       35.76385295052851        9.38427065351413
H           17.40125176900360       36.60347548982100        8.94002942876098
H           18.47060817134778       35.24787729178625        8.59051156795309
H           18.65517739529559       36.16037244225460       10.09117470797182
O           14.79596320532287       34.99737151994222       14.23874654608664
H           13.89875497346342       35.19784801610442       13.96095153385526
H           15.24530740643253       35.62004988333596       14.81066305061313
C           15.53573955653886       27.79682704948249       11.17597254897062
H           16.03470930598941       26.96484165479334       11.67039397415676
H           15.82661354061502       27.78898973783301       10.12664373485815
H           14.46503843375208       27.64321974055606       11.23834436899047
N           17.20133470402267       29.50366528598731       11.92356176516898
H           18.00606445734949       28.99083261577013       11.59883863748127
C           15.90031371705232       29.09260484746764       11.80597315737989
C           17.19936718112329       30.71790287628323       12.51673050077044
H           18.08359752518294       31.28238504082962       12.72288027405861
N           15.97922155894694       31.10055766152926       12.79460092893498
C           15.15881357435163       30.10433460448827       12.35298793143970
H           14.09626281775708       30.18894080484891       12.44513527995901
78
 energy: -116.045842373195 gnorm: 0.022347810325 xtb: 6.7.1 (edcfbbe)
Fe          15.44007463824769       33.01877509522596       13.58355099982968
N           17.30023373955000       33.46983149224455       14.22088633452943
N           14.98665238052037       32.32114514293353       15.41964566523198
N           13.53992974973997       32.72757944037635       13.01158765028451
N           15.86453889532560       33.81425043094621       11.80370571061649
C           18.29681575949546       34.04667893974879       13.50281845357964
C           19.44361203542215       34.32069162540562       14.34066531476555
C           19.10836478816003       33.90022059172621       15.59262654116250
C           17.76817090558510       33.36164449122447       15.49568272554416
C           15.78799372165392       32.32740840753358       16.52074026955238
C           15.10642795316091       31.75633238699122       17.65818538189106
C           13.86268873206919       31.39368146929012       17.21699534528560
C           13.80469472848927       31.78473676194116       15.81895536387437
C           12.54714993811701       32.14028046604568       13.73591435150893
C           11.30552925872834       32.14888689032784       12.99830280427504
C           11.57094668321256       32.77082760208003       11.80740516220450
C           12.98336674780076       33.08731457234385       11.82920590451298
C           15.00288594058029       33.99371882206754       10.76667510799194
C           15.66076725613865       34.66455782822205        9.67303081141928
C           16.93479090979094       34.91661398875094       10.08683203370978
C           17.05015135339353       34.35210492805136       11.40912688096486
C           18.20102244212044       34.40509703305802       12.16876736657065
H           19.08223005626355       34.81696455834306       11.69921696866864
C           17.07845110398342       32.81940122306614       16.56415361652254
H           17.59679102301913       32.78383765449967       17.50965074994944
C           12.67597189757337       31.66599042858324       15.03034919980023
H           11.80276204274404       31.21754413931521       15.47945753097755
C           13.65940191474686       33.67643099022771       10.77450188178811
H           13.08652154856633       33.91997855003214        9.89394653134309
C           19.92154974429857       33.99234921933751       16.83783655107898
H           20.87096101680557       34.47727352640153       16.63238031666717
H           20.12534280607251       33.00471339467943       17.24652792564450
H           19.39920278917751       34.56814257746995       17.60017104305811
C           20.71310152383637       34.97628365902155       13.91545777007603
H           20.57897478909327       35.54416298342090       13.00128789676895
H           21.49336003105926       34.23481436022029       13.74482278924345
H           21.06547469340263       35.65774414271301       14.68645348256328
C           15.66285897984466       31.66488328999352       19.03563528784669
H           16.36795222427973       32.46883014948030       19.22786216932282
H           16.18622333106655       30.71947294597072       19.18040735742399
H           14.86188597666136       31.72343906196168       19.76867159097868
C           12.79936736228841       30.75941544830881       17.95611167347773
H           11.79045323380761       30.99511236016751       17.64204116050196
C           12.98066536092241       29.90305691118638       18.96028049654099
H           13.96253652548395       29.59191302936032       19.26745929733505
H           12.15584776100632       29.44765444340898       19.47773903626436
C           10.02511577339660       31.53456373895090       13.44732510439101
H            9.48920360795886       32.19189433987732       14.13094387066131
H           10.21110724112014       30.59483295502788       13.96230387847812
H            9.38561928149236       31.34249204973950       12.58992497134438
C           10.65717489329638       33.10923169958861       10.73803649355683
H           11.02924266677102       32.98022835532424        9.72891778599313
C            9.43807112300619       33.59759953473571       10.93265644973700
H            9.06192100465015       33.79253921046030       11.92081418373793
H            8.78987975024192       33.86218262263477       10.11681266408718
C           15.05277243279068       35.03625329370137        8.36514732464440
H           14.52719289325671       35.98852850097403        8.44016804992397
H           14.34444313104679       34.28377832633777        8.03152285520876
H           15.82793206931386       35.13500866685707        7.61037803071070
C           17.94943810838223       35.75301799494000        9.37556972162679
H           17.44504779145296       36.59799617295609        8.90700634742183
H           18.47387957327879       35.19923936227828        8.59758995796600
H           18.68397665648179       36.14590649167247       10.07131021741297
O           14.80238738037637       35.03822115078663       14.19866856388688
H           13.87432980700049       35.25106506982540       14.01376888571199
H           15.21622579949513       35.63606863355166       14.83686789236580
C           15.53367618348610       27.81600542060062       11.18279777197601
H           16.03372336876932       26.98731079628753       11.68053696836805
H           15.82012783031932       27.79919848170764       10.13202561815604
H           14.46297113129748       27.66456840693760       11.24859036576072
N           17.20555393606549       29.51674196277229       11.92682903873721
H           18.01027171552276       29.00307030072271       11.60350436466678
C           15.90163746148211       29.11066406987700       11.80873569027697
C           17.20265785942915       30.72742876324484       12.53197230516374
H           18.08648996150334       31.28949096436367       12.74402527573027
N           15.98600964961904       31.11248429306024       12.81199896558876
C           15.16504233424293       30.11634027705343       12.37091590429094
H           14.10318129014870       30.18826063944692       12.47860597926992
78
 energy: -116.047287120054 gnorm: 0.038184927269 xtb: 6.7.1 (edcfbbe)
Fe          15.43850580091240       33.01946069441420       13.58209187468359
N           17.29944369890083       33.47133101832533       14.21593402547450
N           14.98929205441982       32.32052954250877       15.40992041201041
N           13.54864042766283       32.71628489460728       13.00457092013746
N           15.86645579918599       33.81400210098268       11.79588587588564
C           18.29522981981476       34.04887231789819       13.49933386856685
C           19.44559708465344       34.31377263160050       14.33534185545002
C           19.10963124352473       33.89155962724777       15.58604724259384
C           17.76953919013809       33.35615987039544       15.48819233272000
C           15.79468372854332       32.31765214402565       16.51022922027137
C           15.11865782102781       31.73873477106062       17.64511970824240
C           13.87580624391756       31.37111217062202       17.20257921779005
C           13.81250857166964       31.77043043451762       15.81096741123890
C           12.55563086176819       32.13555128500435       13.73341937790281
C           11.30959378255612       32.14959691100770       13.00327716932430
C           11.57428159007164       32.76797476187535       11.81080627125013
C           12.99021768698714       33.07407674059341       11.82276488116352
C           15.00470130398416       33.99664545808456       10.76157893592556
C           15.65543196261654       34.68243548923645        9.67333518047278
C           16.92809393228359       34.93985242556639       10.08790409736017
C           17.04658184800018       34.36975402569824       11.40661121381261
C           18.19480919175354       34.42498359873301       12.17054183631264
H           19.07027818532108       34.85866548332934       11.70918593682963
C           17.08446049754153       32.80950456038271       16.55514123160198
H           17.60526337797814       32.76814010727863       17.49939791095707
C           12.68252532807214       31.65880383389046       15.02442222443827
H           11.80602146717873       31.21666634789189       15.47147677974578
C           13.66405089587226       33.66229705673944       10.76800916350634
H           13.08955529336428       33.90076645734150        9.88625118098181
C           19.91490625135166       33.97327529061758       16.83759014716676
H           20.86942631001200       34.45646205417280       16.64442659047641
H           20.11047425967794       32.98063316098307       17.24262186657984
H           19.38700169245585       34.54638364929868       17.60029023417719
C           20.71624938012702       34.96666837473489       13.90865237481738
H           20.57931522089535       35.54141027075801       12.99730484656558
H           21.49470816960010       34.22381219305533       13.72871110034215
H           21.07348514603379       35.64307471727076       14.68377800997296
C           15.66674812114824       31.65744808648078       19.02606539022701
H           16.35398452888704       32.47799283933878       19.22233044330595
H           16.20760923665362       30.72167365443028       19.17877007263732
H           14.85596159623047       31.70145280671645       19.75211000327631
C           12.80758112713015       30.74590950684278       17.94308164481145
H           11.80360864508344       31.00460039881395       17.62819210519223
C           12.96948252964259       29.89364375954677       18.95244467177643
H           13.94281004110434       29.57240682976914       19.27925147937084
H           12.13082487387152       29.47341504384856       19.48308053939381
C           10.02527284854333       31.54544132514899       13.45598111654297
H            9.49866842232396       32.20192419841715       14.14984135384152
H           10.20246178213524       30.59671188080913       13.96053868895065
H            9.37804137350844       31.37011704248883       12.59836338892664
C           10.66122910483263       33.10837203669576       10.74191182450339
H           11.04280995000022       32.98067853390661        9.73618703140206
C            9.43523448605237       33.58430636613571       10.92785920455795
H            9.03858623102465       33.75697100448787       11.91384530580495
H            8.78328171244732       33.82714994120892       10.10652880483166
C           15.03917368676196       35.04494574446817        8.36623484839785
H           14.49938025377251       35.99061847622793        8.43737285754900
H           14.33833422390968       34.27980499871063        8.03960666248081
H           15.81158659869512       35.14987701227378        7.60815324080239
C           17.96560701163034       35.73580712498566        9.36165718467920
H           17.49439366650908       36.58469805387962        8.86213002451940
H           18.47604788907718       35.13546991601748        8.60341713241662
H           18.71413634177368       36.12499569401819       10.04731929373503
O           14.80979030458798       35.09125468868487       14.14972255755094
H           13.85303131746175       35.29226703435254       14.07253070618124
H           15.16210668364366       35.64592185474363       14.88271755323172
C           15.53086585078159       27.84081142977823       11.19454083983715