78
 energy: -116.058026754998 gnorm: 0.000071681359 xtb: 6.7.1 (edcfbbe)
Fe          15.40612196630450       33.24419789106936       13.58613443311069
N           17.27359518489433       33.58882717054163       14.18236406677476
N           14.97287805344892       32.45396696733440       15.38396716233687
N           13.50239616037035       32.92719062065517       12.99783555417092
N           15.80089344354695       34.09866968290056       11.82708477224488
C           18.26309138084880       34.18198536446398       13.46760725347034
C           19.49274604545861       34.22573323296307       14.23001990110834
C           19.22000063270138       33.63999762448443       15.42539275286586
C           17.82607911570736       33.25136852547509       15.37753486437121
C           15.83338330693955       32.27388696392122       16.42352269156632
C           15.16810302293361       31.65235950044871       17.53848995567632
C           13.86987183242214       31.44856490973194       17.14931542503571
C           13.77470339108242       31.95880580553708       15.79578610748611
C           12.51104986466728       32.33034632866886       13.71920440285067
C           11.30511658565283       32.22308081909850       12.94090596328192
C           11.58728998222932       32.77136709984794       11.71666207061274
C           12.97163883526968       33.19439055747812       11.77654992011598
C           14.94753580013951       34.25395409928944       10.78066773929435
C           15.60391276923503       34.92585903170339        9.67967700001283
C           16.87812382869052       35.16781176159371       10.08659765692892
C           16.98160148573168       34.64048194880414       11.42992386245498
C           18.13825338486498       34.68173633726617       12.18476682670430
H           19.00820330680162       35.14142805578878       11.74076693838624
C           17.16950738977027       32.63559878637280       16.42320401123966
H           17.74269136909817       32.42160049956942       17.31221074348959
C           12.62738423982499       31.89206202919226       15.02778822044986
H           11.75380680032793       31.44707563815024       15.47895771139845
C           13.63284285305662       33.83120194797003       10.74258345342590
H           13.07922010315528       34.01509913138703        9.83473057073132
C           20.11642931265881       33.41621658236470       16.59473532980503
H           21.12194577555453       33.77289341710139       16.38536658458585
H           20.17204141891942       32.35501042939887       16.83850800411837
H           19.74124825079924       33.94521398801661       17.47109991900444
C           20.76769433353374       34.81911159873984       13.73616337794011
H           20.63203646304854       35.87575639700515       13.50523333299472
H           21.10181361431745       34.31528065874840       12.82859574476805
H           21.55119851675921       34.73068134133722       14.48471749315683
C           15.78960919538139       31.37614000986034       18.86281772012167
H           16.47815159931354       32.17321614004485       19.13898866768399
H           16.34865697254845       30.43916682513510       18.84251211209900
H           15.01968125571580       31.29995912700903       19.62808547910322
C           12.76900567611478       30.87828867198012       17.89352386713587
H           11.79154590466537       31.29442836178984       17.67690133844095
C           12.86721938972133       29.90363351919401       18.79192925003627
H           13.80273453252366       29.42029280742801       19.01290871712570
H           12.00350137764986       29.53651358705072       19.32115754711106
C           10.04629521781515       31.56977210468729       13.39448924528428
H            9.44526940589741       32.25432273753935       13.99578309171455
H           10.26375688916977       30.69153737329434       14.00077165548370
H            9.45601878287410       31.26109197656094       12.53413659846589
C           10.73531645021514       32.90463036515541       10.55579427575124
H           11.23514370817097       32.82133808404379        9.59763937118340
C            9.42487546242403       33.12488882897188       10.58142545311934
H            8.88443635450217       33.26376514298347       11.50148713411438
H            8.84858511338654       33.20046344331519        9.67422808537814
C           14.94655640985057       35.25654525131697        8.38374719868765
H           14.08295271454821       35.90173786483527        8.54597468301496
H           14.60182095968561       34.34980842128500        7.88574932617587
H           15.63727664129516       35.77007923723351        7.71947003622270
C           17.99275698639049       35.83709825269082        9.35789532203006
H           17.67155417925071       36.15819940529856        8.37010719660784
H           18.83842191145399       35.15876831859414        9.23956992135504
H           18.33689600063946       36.71266183967067        9.90839738385757
O           14.65436591491929       35.24578477536100       14.42141264831827
H           13.87015332472310       35.37458027348395       13.87714763792508
H           14.35278263018122       34.96496692304432       15.29219829330806
C           15.68073882832817       27.82489428814266       12.30717331573923
H           16.50540482131438       27.24267907028810       12.71819230641050
H           15.54886461000272       27.53944363450512       11.26359382094249
H           14.77516595233064       27.57846943345412       12.85249123495492
N           17.03190868141382       29.87986778913746       11.83367557531294
H           17.73010593150636       29.41588765282532       11.27612099116117
C           15.95158143902200       29.27986108953566       12.42583217105502
C           16.98509851771802       31.19738303090100       12.13432675277774
H           17.70675862461381       31.91592604513128       11.80374704865106
N           15.94133811927461       31.46746737919230       12.88033952644287
C           15.28902217813039       30.28483696287016       13.07022821560153
H           14.39322151457287       30.23479121071202       13.65335796618057
