87
 energy: -124.720512459421 gnorm: 0.000043574080 xtb: 6.7.1 (edcfbbe)
Fe         -20.29630511574921       21.61487922308116      -51.17939343369724
N          -21.16808332482557       22.04566573423994      -52.92352661189364
N          -19.39151111385867       23.40176528414389      -51.19201918314732
N          -19.41944892396547       21.18966583966587      -49.42252867111485
N          -21.26182329805336       19.85864607912459      -51.12321155768524
C          -22.02447513071155       21.25710081550179      -53.62268278239091
C          -22.40801133528314       21.89376361854537      -54.86478740946136
C          -21.76193701248297       23.08863842760092      -54.89540115469374
C          -20.99466706717085       23.16519135443637      -53.67083358219200
C          -19.49208340157481       24.36194805389990      -52.14825432065278
C          -18.71501846457200       25.52697065975768      -51.78709490909880
C          -18.14242309230968       25.24564208473164      -50.58584699026150
C          -18.57782830116890       23.91316675065842      -50.23163680499217
C          -18.58428063235202       21.98815961270119      -48.71092385556912
C          -18.14420939594584       21.32124141621786      -47.50116683808290
C          -18.77261350780238       20.10388629233071      -47.49137211703805
C          -19.56877846341835       20.05094265549460      -48.69026604766952
C          -21.18871387097377       18.91656583359556      -50.14797597844483
C          -22.04175378595504       17.78672169716836      -50.46221310028314
C          -22.64331884421896       18.09078058507427      -51.65471575142759
C          -22.13978500644179       19.38270010600624      -52.04482272841241
C          -22.49137654726881       20.02328041990744      -53.22030532487251
H          -23.17919410134332       19.51399622184346      -53.87769600095994
C          -20.22159386613297       24.25507859987128      -53.31799713244454
H          -20.18850326863116       25.08795805896509      -54.00384901562256
C          -18.18466962102048       23.25964553659927      -49.07952280361079
H          -17.51208743746691       23.78384533701960      -48.41816470707493
C          -20.38639689857207       18.98457959194835      -49.02528009920159
H          -20.39981796739228       18.14090594494654      -48.35225059332588
C          -23.33446245662187       21.29417182579025      -55.86611185680442
H          -24.31205183493659       21.10668546717367      -55.42088503913386
H          -22.94096170555515       20.34493358210787      -56.22981623625770
H          -23.46763566238170       21.95808601768165      -56.71679713785516
C          -21.78689490001481       24.15166321450505      -55.93981424343553
H          -20.78301895105079       24.33228297346960      -56.32429478387708
H          -22.16469696563796       25.08842853603406      -55.52842979760620
H          -22.42483967326516       23.86201027526358      -56.77114229935323
C          -23.66903572709155       17.30977249732196      -52.39925256512815
H          -23.21423108663535       16.75233670181733      -53.21994054881319
H          -24.42545257189995       17.97078034126150      -52.81967112049453
H          -24.15638139246144       16.60171609756811      -51.73192151376855
C          -22.20194665693897       16.61685631600409      -49.62757554221672
H          -22.12796516086584       16.78860684637081      -48.55967021570419
C          -22.41800553842261       15.38077495161766      -50.06580222563527
H          -22.45293842069773       15.14282873738801      -51.11457708116733
H          -22.54195252546900       14.55507926330921      -49.38484273526283
C          -18.73456301759014       19.05144433901945      -46.43879483408163
H          -18.05827703396735       18.24192346626998      -46.71940210809921
H          -19.72416773732171       18.62342669874300      -46.28449096961958
H          -18.38979065033003       19.47691191545043      -45.49856566405412
C          -17.24277752741828       21.89213355391530      -46.52522144424492
H          -17.31184168048489       22.96605953741343      -46.39513454937253
C          -16.35527381903294       21.21274836410423      -45.80602164844090
H          -16.20911416786584       20.15350310687006      -45.92737585408808
H          -15.72175550189449       21.70177036853361      -45.08464405277063
C          -17.23730025321580       26.08487062742586      -49.75116719800385
H          -16.27620672784471       25.58922762259569      -49.61124521201265
H          -17.67387310033214       26.25878777450529      -48.76732099773161
H          -17.05932237958781       27.04860364213834      -50.22207822217515
C          -18.60365866419525       26.75559998680887      -52.62347896359541
H          -17.96968084313740       27.49544827642683      -52.14106107004943
H          -19.58560268884204       27.20029738880374      -52.78810508686308
H          -18.17349431709811       26.51831433741548      -53.59693881402136
C          -24.43922689816113       22.79373960859688      -47.63010924565224
H          -25.45918936668150       22.79048829297697      -48.01442261061772
H          -24.32183227934704       23.66249749946904      -46.98231012399935
H          -24.28724720840025       21.89612009949644      -47.03899965016799
N          -23.41713155187094       23.84569817287822      -49.66021593346145
H          -24.02700331655049       24.64656977026265      -49.67738274647431
C          -23.45655884115842       22.82856189565192      -48.74262199105330
C          -22.41710784687369       23.57559286046963      -50.52872107422225
H          -22.15431376214351       24.20124158139707      -51.35640571831465
N          -21.82158875629928       22.45070616370310      -50.21701966425253
C          -22.45645504566261       21.97414036479270      -49.10867390670678
H          -22.15470919809118       21.05520378393302      -48.65115466961173
C          -16.48819897169375       22.46578689200939      -52.79720176381175
H          -15.54779484251489       22.89424241245215      -52.45612815917697
H          -17.24674222652565       23.24274585304466      -52.79140109358941
H          -16.36473560685127       22.11214220667549      -53.81808223282069
C          -16.89787779749285       21.32305157133396      -51.88861375876850
H          -17.01617955046084       21.65909895623750      -50.85987871965348
H          -16.16774260512077       20.51489607803406      -51.93262912561181
S          -18.50343951892310       20.61563343344349      -52.44213840077428
C          -18.27278469644375       18.93392608993275      -51.78811150758061
H          -18.12414570428599       18.97365249640244      -50.71375496994686
H          -17.42185091940820       18.47435657246061      -52.28417889899259
H          -19.17726335231764       18.37949085819550      -52.01251289766894
