87
 energy: -124.492615129770 gnorm: 0.274098428508 xtb: 6.7.1 (edcfbbe)
Fe         -20.32700000000000       21.67500000000000      -51.12800000000000
N          -21.18600000000000       22.09300000000000      -52.88300000000000
N          -19.43300000000000       23.37800000000000      -51.14500000000000
N          -19.43200000000000       21.24100000000000      -49.31700000000000
N          -21.29300000000000       19.85100000000000      -51.12000000000000
C          -22.14800000000000       21.35700000000000      -53.52500000000000
C          -22.50300000000000       21.99600000000000      -54.73100000000000
C          -21.72800000000000       23.11000000000000      -54.82999999999999
C          -20.87400000000000       23.13600000000000      -53.68800000000000
C          -19.37200000000000       24.26000000000000      -52.17999999999999
C          -18.57700000000000       25.45700000000000      -51.86799999999999
C          -18.17899999999999       25.27100000000000      -50.60099999999999
C          -18.73800000000000       23.97600000000000      -50.16199999999999
C          -18.70300000000000       22.13800000000000      -48.60400000000000
C          -18.23500000000000       21.46099999999999      -47.44799999999999
C          -18.72900000000000       20.14700000000000      -47.51700000000000
C          -19.43900000000000       20.03500000000000      -48.71200000000000
C          -21.03600000000000       18.90100000000000      -50.21800000000000
C          -21.93500000000000       17.78400000000000      -50.52700000000000
C          -22.64500000000000       18.15400000000000      -51.63099999999999
C          -22.23300000000000       19.46900000000000      -51.95999999999999
C          -22.72200000000000       20.19200000000000      -53.05300000000000
H          -23.60800000000000       19.81400000000000      -53.56300000000000
C          -19.97900000000000       24.13900000000000      -53.40499999999999
H          -19.74200000000000       24.86500000000000      -54.18200000000000
C          -18.43500000000000       23.45000000000000      -48.92399999999999
H          -17.97000000000000       24.09200000000000      -48.17700000000000
C          -20.13400000000000       18.92000000000000      -49.15699999999999
H          -19.96000000000000       17.98000000000000      -48.63300000000000
C          -23.53900000000000       21.48100000000000      -55.69600000000000
H          -24.37400000000000       21.43300000000000      -54.96500000000000
H          -23.10500000000000       20.46500000000000      -55.81399999999999
H          -23.93300000000000       21.84100000000000      -56.67000000000000
C          -21.72500000000000       24.14500000000000      -55.94100000000000
H          -20.64000000000000       24.07100000000000      -56.16700000000000
H          -21.89800000000000       25.02700000000000      -55.28800000000000
H          -22.28400000000000       24.26300000000000      -56.89400000000000
C          -23.70200000000000       17.35200000000000      -52.33600000000000
H          -23.01900000000000       16.49000000000000      -52.49200000000000
H          -24.41400000000000       17.40700000000000      -53.18699999999999
H          -24.25800000000000       17.20400000000000      -51.38499999999999
C          -21.78600000000000       16.48200000000000      -49.87000000000000
H          -22.31700000000000       16.34600000000000      -48.93000000000000
C          -21.83900000000000       15.35300000000000      -50.57900000000000
H          -21.35800000000000       15.29000000000000      -51.56600000000000
H          -22.36500000000000       14.47100000000000      -50.18500000000000
C          -18.50400000000000       19.02500000000000      -46.51800000000000
H          -18.09100000000000       18.30000000000000      -47.25200000000000
H          -19.58000000000000       18.80100000000000      -46.35700000000000
H          -17.94900000000000       18.92500000000000      -45.56100000000000
C          -17.29100000000000       22.09500000000000      -46.46700000000000
H          -17.36900000000000       23.16700000000000      -46.59000000000000
C          -16.41500000000000       21.40500000000000      -45.72300000000000
H          -16.45200000000000       20.30600000000000      -45.69200000000000
H          -15.64800000000000       21.92900000000000      -45.13400000000000
C          -17.31200000000000       26.24400000000000      -49.82300000000000
H          -16.52700000000000       26.30400000000000      -50.60700000000000
H          -16.83100000000000       26.32700000000000      -48.82500000000000
H          -18.03100000000000       27.07800000000000      -49.96800000000000
C          -18.23800000000000       26.68200000000000      -52.72000000000000
H          -17.15300000000000       26.56800000000000      -52.51199999999999
H          -18.66500000000000       27.41900000000000      -52.00700000000000
H          -18.36900000000000       27.04200000000000      -53.76299999999999
C          -24.75700000000000       22.61700000000000      -47.79800000000000
H          -25.74000000000000       22.80800000000000      -48.27999999999999
H          -24.59800000000000       23.36700000000000      -46.99399999999999
H          -24.76000000000000       21.59300000000000      -47.36700000000000
N          -23.43500000000000       23.89200000000000      -49.52700000000000
H          -23.96000000000000       24.73700000000000      -49.42800000000000
C          -23.67300000000000       22.73200000000000      -48.81499999999999
C          -22.41800000000000       23.69900000000000      -50.34400000000000
H          -22.03400000000000       24.44100000000000      -51.04300000000000
N          -21.96900000000000       22.47100000000000      -50.15700000000000
C          -22.73500000000000       21.84500000000000      -49.21300000000000
H          -22.54000000000000       20.82300000000000      -48.91200000000000
C          -16.32500000000000       22.26300000000000      -51.90199999999999
H          -15.34800000000000       22.30500000000000      -51.37500000000000
H          -16.93900000000000       23.13200000000000      -51.58100000000000
H          -16.14000000000000       22.31900000000000      -52.99600000000000
C          -17.04100000000000       20.97600000000000      -51.56700000000000
H          -17.20900000000000       20.93600000000000      -50.47000000000000
H          -16.39100000000000       20.12200000000000      -51.85099999999999
S          -18.60800000000000       20.84900000000000      -52.42100000000000
C          -18.68600000000000       19.06200000000000      -52.60200000000000
H          -18.67200000000000       18.55500000000000      -51.61300000000000
H          -17.81500000000000       18.69700000000000      -53.18699999999999
H          -19.62200000000000       18.77000000000000      -53.12400000000000
87
 energy: -124.602499162153 gnorm: 0.150234615159 xtb: 6.7.1 (edcfbbe)
Fe         -20.32254256839319       21.67534692111646      -51.13972225692486
N          -21.18595625205191       22.08917719932044      -52.88704443789089
N          -19.43719015449456       23.39443791921768      -51.14967448684118
N          -19.43660051303001       21.25168243432360      -49.34152478796128
N          -21.26945298547760       19.89036636709250      -51.11302057640805
C          -22.15725454914003       21.36771237449080      -53.51980535808152
C          -22.51190813256761       22.00658356424622      -54.74916058713826
C          -21.73739015203631       23.10501064940049      -54.85760790271870
C          -20.89173193362005       23.13443235166621      -53.69731166160469
C          -19.37211785902376       24.26201906289101      -52.19445706136665
C          -18.58640570874645       25.43643619732557      -51.87102626427439
C          -18.18768846125705       25.25552737779989      -50.58654504881557
C          -18.73470064033634       23.97956670578257      -50.15455546171287
C          -18.71698912331091       22.12927870877764      -48.59387737981101
C          -18.22573441117241       21.45729893047859      -47.42608656432638
C          -18.69605711517562       20.16201493936238      -47.49825353058202
C          -19.44155232377777       20.05138456504929      -48.70740763472372
C          -21.02945204704353       18.90961481271360      -50.22115803044520
C          -21.89974871600110       17.78557885311180      -50.54470423001877
C          -22.63531525435826       18.16823316889809      -51.63519912434588
C          -22.22955201223575       19.49276328733439      -51.95672262194971
C          -22.72171876120042       20.20150831794600      -53.04628809395359
H          -23.58962861260324       19.80486972722447      -53.56301471548852
C          -19.98411844527399       24.13487749295525      -53.41555282525972
H          -19.75378287256935       24.86766784021581      -54.17793710565864
C          -18.44332721435937       23.44475109438865      -48.92061438528054
H          -17.96283105116082       24.08319256111050      -48.18964522946631
C          -20.13541583019424       18.92755050867723      -49.15773849908530
H          -19.97472296616111       17.99086387242456      -48.63067100264916
C          -23.55050400570188       21.44888040806008      -55.66972207833592
H          -24.41084736575897       21.40119669790287      -54.99152986300839
H          -23.14750733212433       20.44222145420488      -55.83576238032619
H          -23.88442484993909       21.86632109137667      -56.63112844989046
C          -21.69041662289554       24.16460157786467      -55.92123756941943
H          -20.63046321900855       24.11681584750925      -56.19551909396824
H          -21.88354308140401       25.06325584430628      -55.32200389784898
H          -22.28886167432499       24.21387990847074      -56.84392918545174
C          -23.68732271143340       17.31808798857124      -52.29628965685012
H          -23.06578852718768       16.43926542096388      -52.50105926624872
H          -24.36046557459421       17.46612390039972      -53.15792371335363
H          -24.29774245337631       17.14428183272662      -51.40077726612029
C          -21.86419651683597       16.47728730698940      -49.89102919607942
H          -22.31215511105803       16.36884419058955      -48.90414250271886
C          -21.84647599458752       15.33911361833578      -50.58771336849552
H          -21.37507966227290       15.28345487594200      -51.56484150495092
H          -22.31443392736693       14.44739117922182      -50.18375760545462
C          -18.52697149551673       19.00335821983684      -46.54833832252509
H          -18.09668650286638       18.25476306415002      -47.22593205181875
H          -19.57512756958753       18.75548149574865      -46.33804360943105
H          -17.96538497577981       18.97540930898095      -45.60318552327960
C          -17.29220744532517       22.08145945860546      -46.47841142809456
H          -17.35021781678441       23.15888477875025      -46.56783749259912
C          -16.42142573555294       21.41178237821620      -45.72754744030313
H          -16.43830621334788       20.32847809323406      -45.69584720778573
H          -15.66686203026398       21.92366081345665      -45.13476737028679
C          -17.32413313787423       26.25961462604944      -49.86068404516233
H          -16.50432189628618       26.35148000659305      -50.58769208808789
H          -16.87787615299507       26.26672069370803      -48.85341649960301
H          -17.99145367939506       27.12764508979377      -49.95288890644220
C          -18.22054421917299       26.67323170751358      -52.67544367791908
H          -17.13262263025727       26.62607001102776      -52.52831374825955
H          -18.63915002204259       27.45620673188042      -52.02623466108834
H          -18.40020485171282       26.96726706023107      -53.72411659857736
C          -24.75976640475271       22.62034908594086      -47.79874984231656
H          -25.73451276884594       22.80622794863949      -48.26846306627552
H          -24.60689251575164       23.35542824875449      -46.99814821040028
H          -24.75996176312602       21.61146086983459      -47.37182802044013
N          -23.44793879997657       23.89064524680078      -49.52008972955179
H          -23.97320848786526       24.74098983930607      -49.42402016748017
C          -23.67519880082526       22.73680955133710      -48.80840978666164
C          -22.41016134989050       23.68648315428123      -50.33979308263530
H          -22.03159496153252       24.42256347810393      -51.03244706022136
N          -21.94953791622761       22.46571462278537      -50.16944857402312
C          -22.72468213760148       21.85529004832082      -49.22308133398089
H          -22.53704338162700       20.83927539830256      -48.92137977311193
C          -16.32060842690192       22.26572979881070      -51.90364622516750
H          -15.35701081116141       22.30907858306858      -51.38204701207509
H          -16.92465304234161       23.12313330106246      -51.59080500373821
H          -16.14174022962611       22.32469218242737      -52.98389579211362
C          -17.02853044541364       20.97215708493457      -51.55706692465512
H          -17.20895287268066       20.92970606676762      -50.47450266182715
H          -16.39799461545278       20.12116475617486      -51.84838706053088
S          -18.60443494534437       20.84326636004975      -52.43089530602841
C          -18.68329167589107       19.04783318907517      -52.59885184906023
H          -18.67443459940021       18.55996278666052      -51.61742700883674
H          -17.82372594951150       18.70066350193357      -53.18555641836324
H          -19.61051142684804       18.78009041007414      -53.11766595593654
87
 energy: -124.663267227438 gnorm: 0.063081590511 xtb: 6.7.1 (edcfbbe)
Fe         -20.33123086478631       21.67211491793170      -51.14055841042786
N          -21.18899030081879       22.08951647626492      -52.88721255152480
N          -19.43715998728603       23.41145596488089      -51.15598912665707
N          -19.44510916858581       21.25982699609311      -49.36024416959319
N          -21.25024135981949       19.92158216297708      -51.10702217151162
C          -22.16513524114641       21.37954465944564      -53.51315944335789
C          -22.52449858028912       22.01562571730808      -54.76460951831599
C          -21.74458516620907       23.10382156134561      -54.88279142219554
C          -20.90556725140383       23.13410321304593      -53.70354185738022
C          -19.36736390764456       24.27189723991489      -52.20646702715496
C          -18.58788821165213       25.42781277043549      -51.87436985911329
C          -18.19224581721186       25.25168196778537      -50.57382374622533
C          -18.72893157897668       23.98969321905667      -50.15014261721323
C          -18.73078146162995       22.12016738280579      -48.58886987857583
C          -18.22082202287183       21.44860405532422      -47.41145969990124
C          -18.67469180662233       20.16449545130734      -47.48725616849161
C          -19.44718021175481       20.06279064215812      -48.70765798197803
C          -21.02181947026313       18.91207589081899      -50.22676580312483
C          -21.86285149350303       17.78385154143686      -50.56040276021966
C          -22.62889313435924       18.17564019273307      -51.63498509098081
C          -22.22713584231805       19.50743107232534      -51.95297530457155
C          -22.71941761120359       20.20877350104937      -53.04104726969131
H          -23.56878970374797       19.79308412973187      -53.56554961609279
C          -19.99077673847834       24.13109317495862      -53.42507854567690
H          -19.76929986400421       24.87184870024999      -54.17580533476210
C          -18.45154348523140       23.43599678481706      -48.91866673275352
H          -17.95199975990404       24.06957990268107      -48.20119763911436
C          -20.13436158142770       18.93503099198218      -49.15934288332507
H          -19.99151671583781       18.00386890296080      -48.62427940370134
C          -23.56284685032729       21.41757735541995      -55.64444237355386
H          -24.45132234097439       21.36602318107391      -55.01878972609199
H          -23.19262866522478       20.41628583010085      -55.85789528511415
H          -23.83135641883519       21.90063322035297      -56.59236960924605
C          -21.65724093394175       24.18204918121760      -55.90375627255916
H          -20.61887809674226       24.16601823635820      -56.22598971417294
H          -21.86754213243017       25.09990497389078      -55.35619320695719
H          -22.29838180940847       24.15551442162725      -56.79457654958786
C          -23.66981097669974       17.28833902760479      -52.25391893700244
H          -23.11023569230588       16.39201098478312      -52.50809703161221
H          -24.29529516731165       17.54577785817998      -53.12776536482090
H          -24.33429018587454       17.08768668847310      -51.41335242116094
C          -21.93200829704174       16.47404882667774      -49.91300692723692
H          -22.31263986175800       16.40361339614519      -48.89308459708555
C          -21.84767769082395       15.33093642226609      -50.58933842519227
H          -21.40221280661520       15.28254938919903      -51.56876246657554
H          -22.25585778343396       14.42450920134521      -50.17218186487239
C          -18.55051773204111       18.98164322696501      -46.58134122969963
H          -18.10446886257241       18.20693454909139      -47.20372855021478
H          -19.57421573500603       18.71176520990285      -46.32579466730712
H          -17.97826687545393       19.03867564176943      -45.64735900118036
C          -17.29928164518488       22.07057640655676      -46.49130001425331
H          -17.32580142361530       23.15428829950440      -46.54282859610264
C          -16.42722806248441       21.41925116904129      -45.72895708119371
H          -16.41875744219204       20.34447583468522      -45.69970097266615
H          -15.68563385223327       21.92408014230263      -45.13081935575244
C          -17.33654701044762       26.27598868505116      -49.89569755613977
H          -16.48396556396772       26.39435458321203      -50.56895360155048
H          -16.93435735858468       26.18844757795013      -48.87511774984903
H          -17.95395986495986       27.17619062063723      -49.93800589648232
C          -18.20297257126711       26.66654127905564      -52.63351771928706
H          -17.11381949853947       26.67826842671412      -52.54402658870105
H          -18.61608322740870       27.48920350232996      -52.04232315169855
H          -18.44187268263786       26.87348196388001      -53.69045939704262
C          -24.76013041050181       22.62110531893228      -47.79957070933393
H          -25.72957086747351       22.80533112341644      -48.26174044999466
H          -24.61327730134409       23.34752811646209      -47.00047584905312
H          -24.75920760971120       21.62211325847385      -47.37444502978946
N          -23.45707191080085       23.88985142917725      -49.51692164343009
H          -23.98103814876024       24.74400957463394      -49.42462209882031
C          -23.67425851801135       22.73967876435794      -48.80479242245810
C          -22.40400361948146       23.67754499468269      -50.33625871853692
H          -22.02836323580615       24.40940051911815      -51.02355406133816
N          -21.93494386586040       22.46506478948476      -50.17679005279177
C          -22.71529724748715       21.86491538321982      -49.23116651148981
H          -22.53527586914980       20.85311637546084      -48.92608119458115
C          -16.31361239560274       22.26832939409075      -51.90373618060057
H          -15.35817233235228       22.31360309365564      -51.38651226832895
H          -16.91552746382123       23.11611788581138      -51.59730463962666
H          -16.14291212636165       22.32579056356908      -52.97592155359714
C          -17.01398353461138       20.96926143833444      -51.54832474347369
H          -17.20992963374595       20.92517927574937      -50.47826742604103
H          -16.40176731754871       20.11894997972318      -51.84742920580680
S          -18.60277535689848       20.84262099214651      -52.43943642964217
C          -18.68115417396083       19.03517260783805      -52.59638220148244
H          -18.67616650192224       18.56497297269997      -51.61852220057975
H          -17.82965998801849       18.70165174047255      -53.18464166678433
H          -19.60409711343506       18.78903591129791      -53.11237880682336
87
 energy: -124.688588081973 gnorm: 0.043922340944 xtb: 6.7.1 (edcfbbe)
Fe         -20.33745391189606       21.67182607158558      -51.13918669064257
N          -21.19746082988636       22.09539308970356      -52.88155750326196
N          -19.43762209964126       23.42747515828973      -51.15869859184544
N          -19.45685259849476       21.26486808108386      -49.36789282041559
N          -21.24383324104701       19.93248439687881      -51.10328836597623
C          -22.17303861387980       21.38817924538223      -53.50359903788006
C          -22.53634516590242       22.01751956662604      -54.76443543131121
C          -21.74567356920332       23.10414632445471      -54.88990497892991
C          -20.91263327714183       23.13640692608517      -53.70135463124418
C          -19.36400995596680       24.28571434589302      -52.21143960449334
C          -18.58236948007051       25.43449175497695      -51.87298858820637
C          -18.19352285403936       25.26227812682307      -50.56838047643829
C          -18.72767202885270       24.00218899327917      -50.14760619627484
C          -18.74172252323081       22.11713423428468      -48.59091376900903
C          -18.22340833201386       21.43990680139729      -47.41196575233386
C          -18.67562979087990       20.15305948186214      -47.49483566517465
C          -19.45545935147702       20.06693593258091      -48.71684157482894
C          -21.01539920496454       18.91039307223919      -50.23211427899756
C          -21.84226946582532       17.78038356190394      -50.56675338060148
C          -22.62140405590479       18.17138508872130      -51.63054691874421
C          -22.22547456285598       19.50875182503202      -51.94847494354192
C          -22.71723476636061       20.21137112937269      -53.03581424743175
H          -23.54667970488250       19.77603767374996      -53.57415247165705
C          -19.99854802498246       24.13234472740218      -53.42815985296505
H          -19.79078438076925       24.88014600033245      -54.17606153182989
C          -18.45695406662258       23.42971288663220      -48.91934522875359
H          -17.93397403208636       24.05284403719604      -48.20946886198841
C          -20.13509913132101       18.94012678289093      -49.16139610584312
H          -20.01159438342247       18.01606719876664      -48.61189477774030
C          -23.57260733006580       21.40371559716712      -55.63222223334876
H          -24.49382424547744       21.33454054775435      -55.05186519111664
H          -23.23868268209200       20.39574461022847      -55.88297246527590
H          -23.78663907120425       21.93910404597251      -56.56527861254371
C          -21.64109162225561       24.18745697092939      -55.89913630037856
H          -20.61276448099497       24.21089715797988      -56.26140933125308
H          -21.85502905308543       25.13241522181643      -55.39585293352896
H          -22.31240329929835       24.09858960670895      -56.76172463268122
C          -23.65838317435984       17.27934060645059      -52.22974229626877
H          -23.15844360464511       16.35417569007899      -52.52141779771295
H          -24.23786127149919       17.63091086035444      -53.10305873485209
H          -24.36643812009071       17.04047040304681      -51.43056532691519
C          -21.96691633463857       16.47541311779936      -49.92262180716974
H          -22.31775260543206       16.44066435333100      -48.89282567010735
C          -21.84954939168179       15.32883627129811      -50.58186122167054
H          -21.43639118574758       15.28477533221809      -51.57619778323306
H          -22.17590188705374       14.39257535442482      -50.13866951098052
C          -18.56664783287035       18.96623186465334      -46.60392379488693
H          -18.11073764237944       18.15791458185723      -47.17943280153447
H          -19.57538928035354       18.66710568635208      -46.31771191228142
H          -17.98799000538560       19.09872304664471      -45.68208809372729
C          -17.30187440256229       22.06391172240917      -46.49654544630413
H          -17.30796991620740       23.14925520374437      -46.51762221912882
C          -16.42580651422820       21.42342355183651      -45.72808720586966
H          -16.38904846576440       20.34874880941585      -45.70626612617633
H          -15.70520110195968       21.93582519398456      -45.11433438326377
C          -17.34383369951641       26.28508609134347      -49.90388791224489
H          -16.46167697605813       26.43275977135386      -50.53574665852030
H          -16.98861154660085       26.10752841627625      -48.87624330332057
H          -17.91349600879182       27.22122829461253      -49.91221861203616
C          -18.19431500078410       26.66335890967947      -52.61791458900259
H          -17.10095551119146       26.72856082335974      -52.57155729224762
H          -18.59539545105875       27.52204679547938      -52.06806589795601
H          -18.48847361708839       26.77855937151147      -53.67612771188571
C          -24.75734547717497       22.62073007838707      -47.80127979687413
H          -25.72772927573564       22.80449860971614      -48.26072976006582
H          -24.61671972195370       23.34452294007560      -46.99903494357100
H          -24.75640727493766       21.62323972129067      -47.37521848346996
N          -23.45812796505937       23.89008109529631      -49.51912302571040
H          -23.98387727349870       24.74417337334950      -49.43057694594380
C          -23.66912562784529       22.74054321271956      -48.80494342174316
C          -22.39871154715589       23.67632188343099      -50.33531102028650
H          -22.02109119772048       24.40664493693158      -51.02011270174979
N          -21.92533445116139       22.46718137876990      -50.17809102998094
C          -22.70632791274870       21.87010716876178      -49.23285366881436
H          -22.53002694282432       20.86001049326861      -48.92519792237378
C          -16.30440644554426       22.26663096235198      -51.90268385487176
H          -15.34851843855841       22.31939770074358      -51.38848143648494
H          -16.90902679494333       23.11313594684950      -51.60013138838632
H          -16.13909606799436       22.32357501414451      -52.97491418355180
C          -17.00176789779730       20.96676655102959      -51.54401769443174
H          -17.20990081963236       20.92019196127104      -50.47787874902285
H          -16.39971633851316       20.11251605894970      -51.84681397130610
S          -18.59664792970811       20.84237095357465      -52.44473229202031
C          -18.67921048619432       19.02853630023085      -52.59500356890211
H          -18.67719724212171       18.56831132701891      -51.61350781065222
H          -17.83113888237440       18.69621583947079      -53.18604574864474
H          -19.60532225275726       18.79583009486746      -53.10904849335662
87
 energy: -124.699076312363 gnorm: 0.037097236335 xtb: 6.7.1 (edcfbbe)
Fe         -20.34084206488049       21.67599845778329      -51.13814553697085
N          -21.20771014383686       22.10250903784095      -52.87315485750622
N          -19.43757692600387       23.44445708258313      -51.15828031059178
N          -19.46423887669814       21.26749937261600      -49.37516100227391
N          -21.24439167919146       19.93017941615541      -51.10462926418598
C          -22.18078332392491       21.39428220020243      -53.49471675453880
C          -22.54681918588772       22.01820819306403      -54.75750944858535
C          -21.74781753480214       23.10563465443532      -54.88726951888968
C          -20.92159579476104       23.14260858643062      -53.69332538183057
C          -19.36478278279987       24.30298112435657      -52.21132421324862
C          -18.57720372280361       25.44901663701509      -51.86810546391386
C          -18.19332541453014       25.27878236779608      -50.56395373188404
C          -18.72577167040480       24.01438422765569      -50.14472880076065
C          -18.74411636196494       22.11364472545820      -48.59735300637154
C          -18.22350062444235       21.42727775498333      -47.42103836430892
C          -18.68239167174682       20.13925467585448      -47.51046854319626
C          -19.46536722259398       20.06937602107823      -48.72781389404435
C          -21.01522466240542       18.90609452099059      -50.23615233976783
C          -21.83449899445440       17.77242963871125      -50.57059235655400
C          -22.61694916379982       18.15923038907206      -51.62957572388525
C          -22.22431343808430       19.50117015674944      -51.94968403935270
C          -22.71349168914002       20.20833839610616      -53.03537956367799
H          -23.52326885758723       19.75736520553077      -53.59009277802517
C          -20.01096969991726       24.14158621134594      -53.42392941398459
H          -19.81935332889422       24.89255815414417      -54.17418467918618
C          -18.45314409142326       23.42424221828239      -48.92295104211738
H          -17.90819244285960       24.03227025406762      -48.21599994252546
C          -20.14379700669883       18.94312097502924      -49.16068502779450
H          -20.03628869373306       18.02726860724271      -48.59547231236390
C          -23.58028221709802       21.40787235381512      -55.63288843228949
H          -24.52540586203073       21.32538399173745      -55.08839140285683