78
 energy: -115.987039483203 gnorm: 0.244840921339 xtb: 6.7.1 (edcfbbe)
Fe         -21.62200000000000      -14.37200000000000       -1.55700000000000
N          -23.33200000000000      -15.27200000000000       -0.87400000000000
N          -22.72700000000000      -12.73000000000000       -2.13500000000000
N          -19.92700000000000      -13.22700000000000       -1.67300000000000
N          -20.53600000000000      -15.79800000000000       -0.53100000000000
C          -23.43200000000000      -16.50400000000000       -0.27400000000000
C          -24.82400000000000      -16.77000000000000        0.00700000000000
C          -25.52800000000000      -15.71800000000000       -0.41300000000000
C          -24.61900000000000      -14.77700000000000       -0.99100000000000
C          -24.10300000000000      -12.65000000000000       -2.14600000000000
C          -24.48000000000000      -11.42500000000000       -2.79200000000000
C          -23.35800000000000      -10.78900000000000       -3.15200000000000
C          -22.24000000000000      -11.57800000000000       -2.70800000000000
C          -19.84200000000000      -11.97500000000000       -2.25100000000000
C          -18.48400000000000      -11.54400000000000       -2.22100000000000
C          -17.76700000000000      -12.50000000000000       -1.63000000000000
C          -18.65200000000000      -13.59400000000000       -1.29800000000000
C          -19.15800000000000      -15.87000000000000       -0.55500000000000
C          -18.74500000000000      -17.19100000000000       -0.20900000000000
C          -19.94200000000000      -17.92700000000000        0.08700000000000
C          -21.02199999999999      -17.02800000000000       -0.13200000000000
C          -22.36100000000000      -17.33299999999999        0.03500000000000
H          -22.59700000000000      -18.31400000000000        0.44700000000000
C          -24.96100000000000      -13.58100000000000       -1.58700000000000
H          -26.02400000000000      -13.34300000000000       -1.62200000000000
C          -20.90000000000000      -11.26700000000000       -2.77600000000000
H          -20.64699999999999      -10.35100000000000       -3.30900000000000
C          -18.31800000000000      -14.82100000000000       -0.83600000000000
H          -17.25600000000000      -14.99800000000000       -0.66700000000000
C          -27.03700000000000      -15.53200000000000       -0.33500000000000
H          -27.47700000000000      -16.33400000000000        0.29500000000000
H          -27.47600000000000      -15.59200000000000       -1.35400000000000
H          -27.27100000000000      -14.54600000000000        0.12100000000000
C          -25.34100000000000      -18.03100000000000        0.69600000000000
H          -25.36800000000000      -17.86900000000000        1.79500000000000
H          -24.66500000000000      -18.88400000000000        0.47400000000000
H          -26.36800000000000      -18.25900000000000        0.34000000000000
C          -25.91900000000000      -10.97400000000000       -2.99600000000000
H          -26.30500000000000      -10.52800000000000       -2.05400000000000
H          -26.55100000000000      -11.84700000000000       -3.26700000000000
H          -25.96200000000000      -10.20900000000000       -3.80100000000000
C          -23.30800000000000       -9.47000000000000       -3.90400000000000
H          -24.15400000000000       -8.77900000000000       -3.78400000000000
C          -22.32999999999999       -9.05500000000000       -4.70800000000000
H          -21.44600000000000       -9.68600000000000       -4.88400000000000
H          -22.39399999999999       -8.07600000000000       -5.20600000000000
C          -18.02000000000000      -10.18000000000000       -2.71900000000000
H          -18.75800000000000       -9.40500000000000       -2.42000000000000
H          -17.94000000000000      -10.19200000000000       -3.82700000000000
H          -17.03500000000000       -9.93200000000000       -2.27000000000000
C          -16.26500000000000      -12.43700000000000       -1.44200000000000
H          -15.66300000000000      -11.92200000000000       -2.20500000000000
C          -15.61000000000000      -12.95100000000000       -0.43400000000000
H          -16.14500000000000      -13.48100000000000        0.36700000000000
H          -14.51500000000000      -12.86000000000000       -0.37500000000000
C          -17.33800000000000      -17.73600000000000       -0.20400000000000
H          -16.82000000000000      -17.41700000000000        0.72500000000000
H          -16.78000000000000      -17.34300000000000       -1.08100000000000
H          -17.36500000000000      -18.84600000000000       -0.23800000000000
C          -20.05200000000000      -19.37300000000000        0.49200000000000
H          -19.07300000000000      -19.72400000000000        0.88400000000000
H          -20.32900000000000      -19.99000000000000       -0.39000000000000
H          -20.81900000000000      -19.48200000000000        1.28800000000000
O          -22.00800000000000      -13.27600000000000        0.79200000000000
H          -22.70500000000000      -13.78300000000000        1.20800000000000
H          -21.58500000000000      -12.57700000000000        1.14200000000000
C          -20.19300000000000      -17.34800000000000       -6.23100000000000
H          -20.08900000000000      -16.79200000000000       -7.18700000000000
H          -20.78900000000000      -18.26800000000000       -6.41200000000000
H          -19.18100000000000      -17.61800000000000       -5.86000000000000
N          -22.15500000000000      -15.98500000000000       -5.41300000000000
H          -22.71000000000000      -16.14600000000000       -6.22900000000000
C          -20.89100000000000      -16.48000000000000       -5.21900000000000
C          -22.51000000000000      -15.26900000000000       -4.35400000000000
H          -23.46800000000000      -14.76100000000000       -4.25100000000000
N          -21.52400000000000      -15.28200000000000       -3.47500000000000
C          -20.49100000000000      -16.01800000000000       -4.00600000000000
H          -19.56000000000000      -16.14500000000000       -3.46700000000000
78
 energy: -116.031661068080 gnorm: 0.095612475424 xtb: 6.7.1 (edcfbbe)
Fe         -21.62880716983148      -14.31597462344081       -1.45760284668878
N          -23.33424414389367      -15.28213823141657       -0.89948297374072
N          -22.72911873242872      -12.73523200107339       -2.15098510516639
N          -19.92438215205509      -13.23324035847327       -1.69472848650044
N          -20.53934019639124      -15.80620222470251       -0.56858434249108
C          -23.42996639426264      -16.49914545780469       -0.27954570206679
C          -24.82028693347669      -16.78367617651109        0.01210757720536
C          -25.53826374128072      -15.71942307003821       -0.41667652940240
C          -24.61092419682468      -14.78393000518815       -1.00072711936061
C          -24.09492208609270      -12.64763149492032       -2.15436476796505
C          -24.49155983373711      -11.41818127382196       -2.79443604632939
C          -23.35399008129117      -10.76969275857493       -3.16831158575088
C          -22.24630225870663      -11.59289938922945       -2.72945802990754
C          -19.84334531297313      -11.98665361602189       -2.25619514117456
C          -18.48154541044857      -11.52940394098649       -2.22619192851565
C          -17.74301783775207      -12.50278991807121       -1.63796497628432
C          -18.65379432046175      -13.58822330909822       -1.31595550914599
C          -19.17227794435247      -15.88752170758162       -0.56262390047105
C          -18.76063537325337      -17.21193699793487       -0.20215001353619
C          -19.92334429073961      -17.92185415395624        0.08056163961867
C          -21.01290345922525      -17.02195341752267       -0.15189699035431
C          -22.35784882336452      -17.32455659599847        0.02685768048317
H          -22.59116005098362      -18.29958842393760        0.44297687556346
C          -24.95572912436246      -13.58189523012468       -1.59380733225503
H          -26.01463290045819      -13.34435475583476       -1.62196520694457
C          -20.90264132063139      -11.27209709203268       -2.78351358906944
H          -20.64590976772908      -10.34337651834761       -3.27709597673261
C          -18.31464690997243      -14.83072206859518       -0.83840005712591
H          -17.25739381606273      -15.01043252677222       -0.67443362270992
C          -27.02871520770954      -15.53112757850006       -0.33519057941324
H          -27.47357642548004      -16.31573121587807        0.28397459449251
H          -27.47299507448684      -15.58425168164472       -1.33590651587770
H          -27.27115130135623      -14.56018792225618        0.10902372287683
C          -25.33365484734425      -18.02446746630041        0.69313048573719
H          -25.36602793405098      -17.87549018146980        1.77918752947029
H          -24.68110167264476      -18.87478981154370        0.47862719184480
H          -26.34518101267707      -18.25964696499558        0.34718162799018
C          -25.91369726794392      -10.97647989770717       -2.99462564320157
H          -26.30381854082354      -10.53607870849351       -2.06902904228145
H          -26.54535380536642      -11.82823972567830       -3.26591381599626
H          -25.96861646267316      -10.22521968526214       -3.78766641328543
C          -23.29759012471806       -9.47672030392005       -3.88991342794821
H          -24.15232033136441       -8.81166708662844       -3.76627524641190
C          -22.33178208432394       -9.06170948498748       -4.70321802416646
H          -21.46310165670406       -9.67304954772164       -4.91125509551114
H          -22.39138108079801       -8.09739981501841       -5.19693509132351
C          -18.02317403698938      -10.18399664034736       -2.71614310506574
H          -18.74380934542162       -9.41292769882121       -2.42558825531009
H          -17.93929161690330      -10.18724001856877       -3.80913588226253
H          -17.05058807312059       -9.93376506984976       -2.28327312709264
C          -16.27751316407259      -12.44754095591849       -1.44615954486187
H          -15.70173132990959      -11.92030648122546       -2.20726443468519
C          -15.61176231306574      -12.96202140609990       -0.42597804277965
H          -16.12596110995778      -13.47290763483328        0.37818479445593
H          -14.53248199382896      -12.87009455385041       -0.36135278012090
C          -17.35403225611546      -17.73225566340911       -0.19656010628042
H          -16.82437666253585      -17.42173158192741        0.71285331084854
H          -16.79429922633718      -17.35282926138504       -1.06012266860908
H          -17.35774506687541      -18.82555494453381       -0.23733053522250
C          -20.04275190914278      -19.35776002350902        0.49011009323436
H          -19.08870975069011      -19.72457873315346        0.88117825416440
H          -20.32587872106012      -19.98021167945149       -0.36922033186581
H          -20.80279794085282      -19.48036346070613        1.27010518236545
O          -22.00516497982806      -13.30787242776183        0.75075427082854
H          -22.70060653507190      -13.78265500825584        1.20110740777467
H          -21.57508572026574      -12.56767255508052        1.14094886599395
C          -20.19843682289091      -17.33701105809957       -6.22395923150994
H          -20.08853768123398      -16.80282352853115       -7.17512037264016
H          -20.77408027591631      -18.25173195823955       -6.40916166186336
H          -19.20404913381807      -17.61210166013888       -5.86371659129231
N          -22.15026061749471      -15.98789604790927       -5.40971519410216
H          -22.70933842906703      -16.14891923871313       -6.23098718977576
C          -20.88725660546874      -16.47564858354512       -5.21301019925648
C          -22.49901151058924      -15.26625696286673       -4.33049301925103
H          -23.44758148428763      -14.76524196608909       -4.23342458528857
N          -21.52506770879142      -15.26081963131879       -3.43864673450591
C          -20.50691526454786      -16.00727944748958       -3.98670478093599
H          -19.58070330034058      -16.13999970235327       -3.45877605526374
78
 energy: -116.043296818440 gnorm: 0.027029907233 xtb: 6.7.1 (edcfbbe)
Fe         -21.63155150844515      -14.28244522875277       -1.39057186784406
N          -23.32895153407555      -15.27326441964145       -0.90229172705151
N          -22.72417158361512      -12.74370181875579       -2.15135595700080
N          -19.93075849395287      -13.23687001026679       -1.69321784126728
N          -20.54341572032283      -15.80403718988561       -0.59838589465284
C          -23.42451877061981      -16.48798080916024       -0.29017604117929
C          -24.81148679966709      -16.78673326908656        0.00999192039687
C          -25.53908705341698      -15.71889651490888       -0.42550927230833
C          -24.59899375085088      -14.78722803048892       -1.01167620878209
C          -24.08207289101013      -12.65109584439527       -2.15956714028621
C          -24.49291788797769      -11.42103052848230       -2.79436151255601
C          -23.34664824759889      -10.76969383667017       -3.18284785568153
C          -22.24675267003321      -11.61321625822875       -2.74132920809985
C          -19.84850792246902      -12.00043094889734       -2.25312309603375
C          -18.48548454509981      -11.52767577423768       -2.23017061907745
C          -17.73434374666576      -12.51279509075821       -1.64474486168824
C          -18.66336756618239      -13.59016284568491       -1.33212113739254
C          -19.18554310532971      -15.89340205300174       -0.58316324105507
C          -18.77426907320301      -17.22234017638210       -0.20082204724301
C          -19.91256767293725      -17.91451603745678        0.07034280520806
C          -21.01084223924589      -17.01145877607501       -0.17938732272625
C          -22.35414744065574      -17.31560279434051        0.00805051363025
H          -22.58350173558486      -18.28319584472379        0.43471471950005
C          -24.94958188383959      -13.58486851188011       -1.60441016558518
H          -26.00484093878357      -13.34679353328544       -1.62713276685431
C          -20.90498886830380      -11.27573661118931       -2.78215431923194
H          -20.64802196527111      -10.32972702884583       -3.23496390234361
C          -18.31487061456676      -14.84164477350285       -0.85427573788632
H          -17.26166791241449      -15.02514539062598       -0.69426271466756
C          -27.01703941896050      -15.52804691447257       -0.34015142999425
H          -27.46529463439493      -16.30296545172837        0.27474451629724
H          -27.46826587617399      -15.57400626470055       -1.33068799073217
H          -27.26205091357287      -14.56344465256023        0.09821317964386
C          -25.32099838387673      -18.01542378919460        0.68699300648007
H          -25.35660120209666      -17.87572702645914        1.76775111615113
H          -24.68337749505309      -18.86844957987912        0.47787525896272
H          -26.32612318864431      -18.25285816592081        0.34731804690328
C          -25.90476152036733      -10.98193981577171       -2.99189388129195
H          -26.30103196584068      -10.54490416964551       -2.07503113348479
H          -26.53866227227161      -11.82153222641671       -3.26458462398889
H          -25.96888456164872      -10.23666051750193       -3.77878956071591
C          -23.29168239752962       -9.50169385330183       -3.88273431922107
H          -24.14809065443735       -8.85186802569072       -3.73298057662470
C          -22.33692858105520       -9.07712056233500       -4.70566134043455
H          -21.47382434227242       -9.67006587202420       -4.94457511487935
H          -22.39485576507920       -8.11348853754523       -5.18277610385519
C          -18.02854086775795      -10.19308166613495       -2.71397802813144
H          -18.73589849243613       -9.41869056920929       -2.42798888460977
H          -17.94271017278956      -10.18695563234595       -3.80038668142655
H          -17.06012569961540       -9.94245158857774       -2.29182615072776
C          -16.29953290828529      -12.46191798113813       -1.44417534535283
H          -15.74555662460930      -11.92467415411387       -2.20700581670031
C          -15.62391292844935      -12.97027918249932       -0.41782114947323
H          -16.11790417493605      -13.47346488837043        0.39214078860235
H          -14.55306273077381      -12.87971616506919       -0.35383779069659
C          -17.36757313533883      -17.72535658799688       -0.18827144465993
H          -16.83784460639544      -17.41341834490987        0.71208162148812
H          -16.81382359737232      -17.34907087030640       -1.04677543655052
H          -17.35596807028531      -18.81115221047083       -0.23013101296670
C          -20.04021290152530      -19.34294990968375        0.48778609806786
H          -19.09761161898828      -19.71583467192151        0.87814747806842
H          -20.32777690052374      -19.96692876861415       -0.36018500999455
H          -20.79683965627533      -19.46432582902797        1.26011983957777
O          -21.97143870575718      -13.35137338314409        0.70172027660496
H          -22.68703388364496      -13.76801792879320        1.18762069149697
H          -21.57504139323459      -12.58016603275276        1.11210025013811
C          -20.20093839906610      -17.32357052844560       -6.20853063548534
H          -20.09209517198715      -16.79804238405483       -7.15643468851314
H          -20.77035803400012      -18.23362419559308       -6.39430720774271
H          -19.21529435846100      -17.60172950116655       -5.85394682206933
N          -22.14987199986309      -15.98386404101653       -5.39851284619753
H          -22.71275193388646      -16.14401349969885       -6.21999222418280
C          -20.88410410304856      -16.46764884389415       -5.20014247826610
C          -22.49176174215458      -15.26115762469029       -4.30802996761205
H          -23.43464729362412      -14.76494396710099       -4.20796343858128
N          -21.52542496485420      -15.24997395533967       -3.41903479111069
C          -20.51621780728778      -15.99768657935931       -3.96807099886016
H          -19.59377780735840      -16.13903313980029       -3.44447474358899
78
 energy: -116.046303017180 gnorm: 0.027213484731 xtb: 6.7.1 (edcfbbe)
Fe         -21.63086350808273      -14.27873954042715       -1.37879561867405
N          -23.32377137454079      -15.26786624703320       -0.90937960968592
N          -22.71940258895868      -12.75314381609559       -2.14664824479245
N          -19.93801635430674      -13.24180043174630       -1.69161245980529
N          -20.54553171340963      -15.80299746711292       -0.62246458929925
C          -23.42007651522249      -16.48101569431179       -0.29946108418528
C          -24.80424909692606      -16.78496485126084        0.00017860838638
C          -25.53456703337872      -15.71904568117194       -0.43686656341277
C          -24.59255215806732      -14.78694578204664       -1.01864307131176
C          -24.07570067023202      -12.65798979763243       -2.16024580715393
C          -24.48889907396470      -11.43259512544126       -2.79685735128001
C          -23.34061182915285      -10.78473417538743       -3.18979241579491
C          -22.24374912686320      -11.62704281538765       -2.74087137521000
C          -19.85453695498532      -12.00439619007560       -2.24450441732162
C          -18.49216601208404      -11.53260842026411       -2.23047253808590
C          -17.74082939218035      -12.52272653203004       -1.64851658351133
C          -18.67255150166247      -13.59612540278552       -1.33990378137439
C          -19.18988746258306      -15.89326411691559       -0.60490581067306
C          -18.77783579156858      -17.22248223435412       -0.21101920510809
C          -19.91611715941530      -17.91289024721037        0.05700475021364
C          -21.01455352451912      -17.00635848307268       -0.20044470471583
C          -22.35258294143845      -17.31164931278707       -0.00614308968302
H          -22.57964916978795      -18.27735672985545        0.42204054623631
C          -24.94830022515736      -13.58721833909998       -1.60961223685959
H          -26.00236440153359      -13.35082297416143       -1.63661768248971
C          -20.90735876869966      -11.27275211820927       -2.76934643220940
H          -20.65379314037857      -10.31240322301101       -3.19283276188121
C          -18.31507553299376      -14.84982713704066       -0.87321851882881
H          -17.26186297180689      -15.03865683185554       -0.72578778420345
C          -27.00937921341008      -15.52169470422711       -0.34899873305103
H          -27.46026528421531      -16.29488390452115        0.26650274071710
H          -27.46505625684990      -15.56192228260163       -1.33831343306330
H          -27.24874185010125      -14.55549987999925        0.09060269673889
C          -25.30886801871747      -18.01185145947141        0.68001963197027
H          -25.34035652570449      -17.87180763118845        1.76135144669313
H          -24.67371332581333      -18.86740129331009        0.47025542318326
H          -26.31569812268129      -18.24824711906349        0.34376930400011
C          -25.89930771615985      -10.99139293447504       -2.99112136929646
H          -26.29587704482081      -10.55660374016537       -2.07259708476672
H          -26.53600397613047      -11.82884275615375       -3.26615488667678
H          -25.96492162064039      -10.24354723475271       -3.77611325397274
C          -23.28523008670164       -9.51667830902737       -3.87604327796545
H          -24.14231588622716       -8.87336886718342       -3.70414353902852
C          -22.34243898272725       -9.08465732180174       -4.71039448137045
H          -21.49433139313422       -9.68403648970578       -4.99697415910548
H          -22.40852163629064       -8.11630592627973       -5.17616484354730
C          -18.03266763734097      -10.20036265760025       -2.71429294141250
H          -18.73363023393701       -9.42053807639243       -2.42485326890332
H          -17.95094184771289      -10.19125759033066       -3.80170466902029
H          -17.06024300738115       -9.95496076302530       -2.29693673347319
C          -16.31200138537868      -12.47737779684174       -1.44072199239078
H          -15.76466194051429      -11.93270033450224       -2.20257352619639
C          -15.63587929801290      -12.98467358114458       -0.41342738369017
H          -16.12497371508514      -13.48003687104609        0.40556272597252
H          -14.56616968306193      -12.88679971790104       -0.34428144438099
C          -17.36981843143879      -17.71549489992597       -0.18252864880824
H          -16.85113324302518      -17.39331553272129        0.72007689587402
H          -16.81742376601976      -17.33814920020560       -1.04040998108980
H          -17.34982435403414      -18.80176382507288       -0.21807498039134
C          -20.04812226641970      -19.33577527247548        0.48599174841597
H          -19.10506668788701      -19.70784556183551        0.87654842057510
H          -20.34006736533325      -19.96249996407820       -0.35786203271285
H          -20.80325899304717      -19.44539010426515        1.26066252797443
O          -21.88675817894245      -13.41395998638520        0.70551491905967
H          -22.68429390886864      -13.73098855368028        1.16830772001550
H          -21.58099046527758      -12.56867186077693        1.07956493692971
C          -20.20264139760131      -17.31023426168870       -6.19075498908424
H          -20.09454998201182      -16.78345711731753       -7.13806998697198
H          -20.77234826396028      -18.22021563185438       -6.37614087725923
H          -19.21718124233062      -17.58801327320353       -5.83485839034909
N          -22.15361684419151      -15.97469983187133       -5.38211599436967
H          -22.71794681810955      -16.13407620252123       -6.20210749294287
C          -20.88571444470686      -16.45778174863786       -5.18310971177728
C          -22.49282927842240      -15.25373121984376       -4.28890092029397
H          -23.43506581860971      -14.75859740469480       -4.18098614408178
N          -21.52629523826022      -15.24544684636734       -3.40719696655338
C          -20.51891291743475      -15.99069718363448       -3.95076587773293
H          -19.59848841141621      -16.13832555644672       -3.42529728967462
78
 energy: -116.048294364216 gnorm: 0.026692495632 xtb: 6.7.1 (edcfbbe)
Fe         -21.62790459655713      -14.28251992372235       -1.38115399861808
N          -23.31667040999994      -15.26152194080581       -0.91664734694827
N          -22.71442041109156      -12.76173173492282       -2.13337646948595
N          -19.94751524096551      -13.24689016396843       -1.69506968804501
N          -20.54813729251370      -15.80289818476917       -0.65606668556026
C          -23.41475872477372      -16.47552591563809       -0.31198734796057
C          -24.79596749695340      -16.78273656113766       -0.01337518863277
C          -25.52807295458047      -15.72033086352678       -0.45022029754338
C          -24.58708447049572      -14.78696353072629       -1.02636863674742
C          -24.07152722059304      -12.66688747375130       -2.15902896579196
C          -24.48488290180249      -11.44851804547888       -2.80012489391505
C          -23.33664880718468      -10.80564620105814       -3.19507827367458
C          -22.24127858569999      -11.63972319691654       -2.73625927807988
C          -19.86216846062568      -12.00437842904700       -2.23861307433507
C          -18.50067519251875      -11.53786365106667       -2.23119281628148
C          -17.75259204387980      -12.53282169063792       -1.65461760283646
C          -18.68352330905669      -13.60382988248252       -1.35203203309013
C          -19.19334258934004      -15.89266533309375       -0.63444255700252
C          -18.78061272068841      -17.22030651033126       -0.22804029289168
C          -19.92213883294103      -17.91079545307174        0.03962797445493
C          -21.01884935485429      -17.00229910491812       -0.22767941857515
C          -22.35025843170279      -17.31045254037803       -0.02568675141502
H          -22.57486032329311      -18.27511670940125        0.40320613774054
C          -24.94981714741267      -13.59133370094842       -1.61552685641533
H          -26.00317444677098      -13.35770404133119       -1.65053382735556
C          -20.91227666317761      -11.26531744811428       -2.75604967985266
H          -20.66917360483456      -10.29660802506227       -3.16314680448468
C          -18.31536928037616      -14.85927087198400       -0.90169092263570
H          -17.26150974779836      -15.05251560284358       -0.76821856005693
C          -27.00151279427655      -15.51345894453490       -0.36141845337676
H          -27.45740451782732      -16.28538656673819        0.25429032008456
H          -27.46029530238620      -15.54644392855390       -1.35118571022273
H          -27.23152098285707      -14.54426678346062        0.08135264062167
C          -25.29427719967445      -18.01018430069849        0.67084289914920
H          -25.31584228518008      -17.86781535689777        1.75351889363546
H          -24.65969712245550      -18.86718578207192        0.45675075451629
H          -26.30515946337085      -18.24521960672037        0.34148514587609
C          -25.89552154763935      -11.00616466723636       -2.99347648679648
H          -26.29147181264279      -10.57540123572530       -2.07089334413069
H          -26.53393701477471      -11.84299752806947       -3.27290560316894
H          -25.96031171271634      -10.25321657196001       -3.77580971873731
C          -23.28114676533312       -9.53597326483638       -3.87726858744573
H          -24.12615158669263       -8.88560153202147       -3.66913055136012
C          -22.35258469228789       -9.10694154942175       -4.72882055456301
H          -21.50655451160464       -9.70297315339649       -5.02530560659314
H          -22.41523185633907       -8.12458399488498       -5.16979222231026
C          -18.03678832969296      -10.20699410576670       -2.71598262246019
H          -18.73061245745494       -9.42107313071389       -2.41949419638007
H          -17.96367687767087      -10.19678194448147       -3.80559920014789
H          -17.05780226993018       -9.96991843133456       -2.30478771072443
C          -16.32441980247428      -12.49137814824220       -1.43436338782809
H          -15.77629931447231      -11.94783486666887       -2.19660544147158
C          -15.65442157504569      -12.99663763619249       -0.40358100569365
H          -16.14259403723453      -13.49776932768909        0.41457542523360
H          -14.58330519270850      -12.90194435014461       -0.33146762649042
C          -17.37011389508654      -17.70176685163111       -0.17522415502090
H          -16.86931117171217      -17.36227637696788        0.73247872582902
H          -16.81279941758314      -17.32598259800614       -1.03128054061911
H          -17.33889171907061      -18.78964040572910       -0.19737608878420
C          -20.05958243477733      -19.32707242552198        0.48515573570501
H          -19.11466393127607      -19.69856158688317        0.87558181399324
H          -20.35956152251515      -19.96070197378456       -0.35168534526892
H          -20.81188970444601      -19.41974472555775        1.26600574744539
O          -21.82227715721110      -13.43701693110453        0.70170636135270
H          -22.63950110180233      -13.71478359255001        1.14220841546512
H          -21.58039835334630      -12.56225361787095        1.06380876536878
C          -20.20492330331745      -17.29322680085680       -6.16474708241418