78
 energy: -116.057529197163 gnorm: 0.000055519782 xtb: 6.7.1 (edcfbbe)
Fe          55.86694132762373       94.12396326412215       16.41006577443615
N           56.81989450674357       95.57212357212477       17.43233451051412
N           54.73116185334212       95.52603235682739       15.50891003008097
N           54.97405991371707       92.70500011883379       15.33538519044683
N           57.02027804867951       92.75665251729598       17.28263323503622
C           57.78988657084667       95.40501615447886       18.37056872003172
C           58.20942370609974       96.68050440068160       18.90467137185782
C           57.46567114885125       97.62622861347845       18.26899587454739
C           56.59626117767129       96.91456541468358       17.35968891698152
C           54.77714103678793       96.87444430428840       15.70712943642311
C           53.76149801741419       97.54031570688382       14.93559650456738
C           53.07612458317995       96.55680051384509       14.26995268935016
C           53.71034736369806       95.30735485330301       14.63840177982431
C           53.93726427782656       92.86927966481274       14.47042784040626
C           53.55701460731466       91.60937022005777       13.88440444803348
C           54.41513124881095       90.67273429777678       14.39218541883143
C           55.27359708507026       91.38232380327301       15.32203730878555
C           56.98828622018601       91.41561448536746       17.07294378709605
C           57.92893114888444       90.73796233567127       17.94001058740553
C           58.53309871173784       91.70703054308855       18.67648623021367
C           57.95052194642550       92.96214766592995       18.25069450006119
C           58.31819875837754       94.19024122367223       18.76560452694068
H           59.07852857804905       94.20397698185852       19.53134324107730
C           55.65691846761436       97.52936657983514       16.55437637864409
H           55.58221249923381       98.60444939809915       16.61418656747992
C           53.32396346483284       94.07008567444797       14.16151496860479
H           52.48662682280229       94.03560014042968       13.48157904128518
C           56.18610168219940       90.76401247204927       16.15639017127159
H           56.26290454041919       89.68946325527176       16.09836715063814
C           57.48574058678994       99.10831288284591       18.42748844464519
H           58.23339317673475       99.40859064769194       19.15737296133341
H           56.51427863986163       99.47328269168510       18.76265070157992
H           57.71890488353356       99.59324165847782       17.47910724788029
C           59.26244749163839       96.85031664267923       19.94528850122723
H           60.21292187054274       96.44428272487893       19.59842956856828
H           58.98506538634683       96.32519136219865       20.85954410723555
H           59.40586389139069       97.90134043258435       20.18404031451808
C           53.57541172786078       99.01566267927541       14.85343124145173
H           54.53643499621687       99.52781661528047       14.87055990692726
H           52.98276755284327       99.38309870218725       15.69318368316064
H           53.05951256937173       99.27504373827152       13.93113810121968
C           51.96849295034373       96.67893597985659       13.34881197802197
H           51.93808171350506       95.94295782712172       12.55382099229959
C           51.00868501449088       97.59635296998239       13.41147841279186
H           50.95907969181819       98.32231723032417       14.20417125585156
H           50.21872656014541       97.63519583934743       12.67986531204075
C           52.47593598129279       91.42538339043818       12.87629616239590
H           52.72015395037145       91.94959393546658       11.95160331294132
H           51.53090779092238       91.82155416996579       13.24889166268498
H           52.34518147309561       90.37150333923606       12.64375041645232
C           54.46086929116141       89.26344556309597       14.06053149667786
H           53.49617780200938       88.79313927068785       13.90053741117975
C           55.56481278682851       88.54254681746868       13.90053028869879
H           56.54634397238499       88.97548779092591       13.99188340970133
H           55.52339707705571       87.49665063248845       13.64449078280364
C           58.14386086158966       89.26354257238854       17.95596164611379
H           58.48817891281311       88.91743956964638       16.98132114733128
H           57.21523439302916       88.74226946171821       18.18944151081737
H           58.88816727979687       88.98852065619565       18.69928403437626
C           59.58824367248749       91.58110982556892       19.72146346068402
H           59.85557757298078       90.53885892600316       19.87716952673311
H           59.24034849409259       91.99191589087962       20.66958929054273
H           60.48620284423004       92.12465211708830       19.42663324089301
O           57.40680071903117       94.48951500060953       14.74904588918114
H           58.01043605673764       95.07393841381958       15.22049354998645
H           56.88182821356240       95.04111335649657       14.15893125782021
C           52.25003578211511       92.21531146142459       20.19640022846036
H           51.19078818444179       92.41273906441468       20.03231195979705
H           52.46994541903961       92.38913182734393       21.24971745455085
H           52.44962791033250       91.17345659468799       19.96655485772592
N           53.04170687659649       94.45208567579408       19.39561580049604
H           52.45535418718772       94.99292571922851       20.00980630742516
C           53.08829201645220       93.08403860254676       19.33195816796938
C           53.91820290106743       94.93447842086080       18.48626390245694
H           54.09308518637540       95.97646104342299       18.31533481744971
N           54.51648394940300       93.95603006680795       17.85162829708407
C           54.01098594939722       92.79845859551699       18.36674244233750
H           54.34303447423220       91.84510107058460       18.01054733460661
