78
 energy: -115.966820850202 gnorm: 0.271467347730 xtb: 6.7.1 (edcfbbe)
Fe          55.81499999999999       94.16100000000000       16.46000000000000
N           56.75100000000000       95.66600000000000       17.55900000000000
N           54.67099999999999       95.59800000000000       15.56800000000000
N           55.06000000000000       92.65400000000000       15.23400000000000
N           57.03699999999999       92.75400000000000       17.24200000000000
C           57.87200000000000       95.47300000000000       18.34600000000000
C           58.31500000000000       96.77300000000000       18.78800000000000
C           57.57299999999999       97.71500000000000       18.19500000000000
C           56.53400000000000       97.01000000000001       17.47100000000000
C           54.66400000000000       96.94700000000000       15.79400000000000
C           53.71000000000000       97.57500000000000       14.90400000000000
C           53.06400000000000       96.59299999999999       14.26200000000000
C           53.64300000000000       95.33999999999999       14.67600000000000
C           54.03199999999999       92.86399999999999       14.31500000000000
C           53.67500000000000       91.60899999999998       13.71100000000000
C           54.50600000000000       90.67700000000001       14.18300000000000
C           55.35800000000000       91.30100000000000       15.20000000000000
C           57.05000000000000       91.39399999999999       17.00900000000000
C           57.82800000000000       90.75100000000000       18.07400000000000
C           58.42500000000000       91.73899999999999       18.76100000000000
C           57.98800000000000       92.99199999999999       18.23100000000000
C           58.35200000000000       94.24199999999999       18.76200000000000
H           59.07800000000000       94.24199999999999       19.57500000000000
C           55.55400000000000       97.57800000000000       16.64100000000000
H           55.48599999999999       98.66500000000001       16.66900000000000
C           53.39300000000000       94.08599999999998       14.11100000000000
H           52.56900000000000       94.06000000000000       13.39900000000000
C           56.20799999999999       90.70399999999998       16.12500000000000
H           56.22100000000000       89.61499999999999       16.16600000000000
C           57.55300000000000       99.23399999999999       18.48600000000000
H           58.48900000000000       99.52400000000000       19.01000000000000
H           56.68500000000000       99.48000000000000       19.13500000000000
H           57.48600000000000       99.79800000000000       17.53100000000000
C           59.63000000000000       96.96799999999999       19.59300000000000
H           60.36099999999999       96.18299999999999       19.30400000000000
H           59.41999999999999       96.88300000000000       20.68100000000000
H           60.06399999999999       97.96500000000000       19.36700000000000
C           53.51100000000000       99.07599999999999       14.84300000000000
H           54.49600000000000       99.58400000000000       14.91700000000000
H           52.87199999999999       99.40500000000000       15.69000000000000
H           53.03400000000000       99.35299999999998       13.87800000000000
C           51.95800000000000       96.59199999999998       13.15600000000000
H           51.88700000000000       95.84999999999999       12.35100000000000
C           51.09800000000000       97.58700000000000       13.28100000000000
H           51.20000000000000       98.31299999999999       14.10100000000000
H           50.26899999999999       97.70200000000000       12.56700000000000
C           52.50000000000000       91.48900000000000       12.70500000000000
H           52.60299999999999       92.26799999999999       11.92000000000000
H           51.53500000000000       91.63699999999999       13.23500000000000
H           52.51900000000000       90.48800000000000       12.22400000000000
C           54.45099999999999       89.18600000000001       13.82700000000000
H           53.52000000000000       88.60399999999998       13.79500000000000
C           55.58100000000000       88.65300000000001       13.56500000000000
H           56.50300000000000       89.25200000000000       13.60300000000000
H           55.64699999999999       87.58799999999999       13.29800000000000
C           57.84900000000000       89.22899999999998       18.26600000000000
H           58.24299999999999       88.74500000000000       17.34700000000000
H           56.81799999999999       88.86000000000000       18.45300000000000
H           58.50700000000000       88.96800000000000       19.12200000000000
C           59.42500000000000       91.59099999999999       19.92900000000000
H           59.87100000000000       90.57399999999998       19.90900000000000
H           58.89700000000000       91.73299999999999       20.89600000000000
H           60.23699999999999       92.34200000000000       19.82600000000000
O           57.25400000000000       94.71199999999999       14.79400000000000
H           57.79299999999999       95.42600000000000       15.13600000000000
H           57.31500000000000       94.34800000000000       13.98500000000000
C           52.49800000000000       92.03900000000000       20.59800000000000
H           51.40500000000000       91.96800000000000       20.41000000000000
H           52.66200000000000       92.46800000000000       21.60900000000000
H           52.94000000000000       91.02100000000000       20.54100000000000
N           52.75000000000000       94.24099999999999       19.41500000000000
H           52.03999999999999       94.70200000000000       19.94700000000000
C           53.13400000000000       92.93200000000000       19.55400000000000
C           53.51100000000000       94.77000000000000       18.43200000000000
H           53.43800000000000       95.79800000000000       18.07900000000000
N           54.33900000000000       93.82800000000000       17.99200000000000
C           54.12599999999999       92.65200000000000       18.66000000000000
H           54.68400000000000       91.75000000000000       18.44400000000000
78
 energy: -116.022659662409 gnorm: 0.109089565217 xtb: 6.7.1 (edcfbbe)
Fe          55.82283980686275       94.15348934053353       16.44695781868289
N           56.75938531531857       95.65784716171592       17.53319116453669
N           54.65078720342767       95.57748635888868       15.58944610282861
N           55.04604171729008       92.65977267237959       15.23328035813506
N           57.05607672345635       92.76280614350492       17.22965288525160
C           57.84878701343401       95.47274954033654       18.35036506595094
C           58.33774577793581       96.76668715048829       18.78129417657086
C           57.54391706584652       97.71722986715538       18.22092102743893
C           56.53980358316475       97.00046407627092       17.44911576388834
C           54.67486784866625       96.93105815602814       15.78241494868850
C           53.70347742758743       97.56986784644506       14.90889538812149
C           53.06792102534018       96.57117877087802       14.23497918927661
C           53.67369717482106       95.32833891116601       14.65819607027999
C           54.02324247978711       92.86788071863042       14.33759710177286
C           53.65440629369659       91.62167130088648       13.71265740196263
C           54.47155265830216       90.66529003857826       14.21856801459859
C           55.33724221088232       91.31752798607188       15.20581057145357
C           57.00103253335840       91.40179064943966       17.04880736834653
C           57.82742690238233       90.74279797543191       18.06112686981101
C           58.43394999659382       91.73184474774780       18.76562449371114
C           57.96140590550333       92.99094035327360       18.24533652722603
C           58.33426348800176       94.23627556596739       18.75460123421888
H           59.07389048689065       94.24183419691639       19.55017694578249
C           55.55730573091603       97.57651777544199       16.63886668577403
H           55.48708585505165       98.65975753972690       16.67470900440154
C           53.39650491070815       94.08394856510405       14.11126194806130
H           52.57470526299745       94.05863145534136       13.40329789492699
C           56.19843792520886       90.72188685159146       16.12532123988932
H           56.23108784533368       89.63522786260386       16.14897041890100
C           57.55362455128553       99.21319729033833       18.47864644765590
H           58.47114394910966       99.51259895998714       18.99719768092496
H           56.70147758513856       99.47433473657007       19.11736955715722
H           57.48250571799977       99.78371468173873       17.54569885918384
C           59.61485290444676       96.96375024671245       19.58388996858983
H           60.34703070584897       96.19779707222646       19.30803497774150
H           59.42046882277566       96.88472439514496       20.66024143336696
H           60.05035496060716       97.94645406217633       19.37560413283375
C           53.51419829755836       99.06168288161375       14.84153697725520
H           54.47940540606611       99.57550730695083       14.91717059339134
H           52.88202061121668       99.40354882287707       15.67186914965025
H           53.04594077552143       99.35069719626023       13.89459759506709
C           51.98093393944739       96.62150553013379       13.19075073945763
H           51.92316497971929       95.87253794202724       12.40198488269939
C           51.08870168515647       97.59586168925817       13.28309004590396
H           51.16129779424616       98.31366076487825       14.08720983208394
H           50.27336730676315       97.70350992778934       12.57385891300192
C           52.51936726386897       91.49007198076110       12.71253003281086
H           52.60664860064180       92.25292777192183       11.93135413078448
H           51.56020516738092       91.63324316011553       13.22544664992422
H           52.52335981410785       90.50380432891227       12.23792642786981
C           54.45801290448924       89.21489591705209       13.85222860230962
H           53.52373228870354       88.65682178047814       13.80404147211829
C           55.60693913432072       88.64154935514888       13.56676182081110
H           56.52102297415880       89.22071160335909       13.59429816921336
H           55.66690436907871       87.59214410658245       13.29423973175286
C           57.85711547652066       89.24578164702262       18.25778002982187
H           58.23835435812273       88.75035075282544       17.35797255094190
H           56.84384122421007       88.87140421639860       18.45090764483184
H           58.49557285147282       88.97447778091961       19.10485961584492
C           59.41384098317580       91.58875947130322       19.91490234228439
H           59.86283803105589       90.59050079497504       19.90826166862819
H           58.90625777243064       91.73313718699826       20.87643418005680
H           60.21816953278880       92.32702454108833       19.82783627621964
O           57.26258808430934       94.70623502706152       14.82285219777328
H           57.80525990028924       95.43357864692392       15.12178504718422
H           57.32606558898927       94.34512993787621       13.95764679600203
C           52.49450689720556       92.04028302966682       20.59615543046600
H           51.41561342367141       91.96391921557965       20.41873398318139
H           52.65650385258186       92.45418954069578       21.59772958961752
H           52.93221685647428       91.04021925063928       20.54448436978507
N           52.75679521861060       94.22891889909306       19.41379511132932
H           52.04296820726798       94.69725942660224       19.94572931241099
C           53.12823331707273       92.92201594783543       19.56603917864439
C           53.52433086803411       94.75376240580536       18.42862054519193
H           53.45014001712416       95.77154042622026       18.08246775535441
N           54.34910954434752       93.83675988640351       17.96829859898093
C           54.12054921563586       92.67751289326719       18.65951430688481
H           54.67355810018519       91.78018598523944       18.44617096451648
78
 energy: -116.041393507985 gnorm: 0.029299655014 xtb: 6.7.1 (edcfbbe)
Fe          55.82235554843245       94.15328968453993       16.43771484996948
N           56.76414944702206       95.64538934713796       17.50965772676420
N           54.65454820933296       95.56332397164992       15.58300261463526
N           55.02445484619162       92.67190173400316       15.24716651358341
N           57.03780219438126       92.76713456695546       17.24617594204008
C           57.83376776819347       95.46968867807797       18.33574023125416
C           58.34408157015933       96.75592316588838       18.77208081541193
C           57.51858902700804       97.70713243875929       18.23372523739175
C           56.53959695932870       96.98589950792945       17.43174916910132
C           54.68488631408739       96.91360263350474       15.77613862808214
C           53.70507720472362       97.56331423645473       14.92059990076719
C           53.07635158065805       96.56016509222816       14.22071679519612
C           53.70116294878799       95.32178809063896       14.64495048907356
C           54.01457161834935       92.87276519981171       14.36232123960226
C           53.64025078756509       91.63063550099206       13.72710471311486
C           54.45566558641305       90.66445619175961       14.25298215265118
C           55.31347879842543       91.34163785183219       15.22566601304986
C           56.96422493776893       91.41543290340576       17.07518872908484
C           57.80849658673383       90.74442738736956       18.05552890928753
C           58.42791943442884       91.72809735250844       18.76962178003311
C           57.93367905565011       92.99003001423297       18.25056303519535
C           58.32602808597632       94.23169422385473       18.73228980210017
H           59.07281493159035       94.23710372710188       19.51675958711331
C           55.55572558671477       97.57166719675109       16.64150292308949
H           55.48426120275109       98.65107533100371       16.68221356881669
C           53.39283216312841       94.08418018784067       14.11024895160829
H           52.57841291269402       94.05966152091283       13.39970419614055
C           56.19180481819821       90.74514588032059       16.12712674107519
H           56.24680371534400       89.66153836016352       16.12543119377625
C           57.54692965216817       99.18370759195199       18.46940174337798
H           58.45813581637340       99.48277693895504       18.98208234418672
H           56.70504473461285       99.46930961283654       19.10135443232966
H           57.47775804062653       99.75267437679194       17.54457061831810
C           59.59047856668530       96.95541433592214       19.57373515829559
H           60.33043598241363       96.20320301439712       19.30980505309988
H           59.40264095623566       96.88081363640548       20.64433798782401
H           60.02450092881861       97.93336286935575       19.37807399168793
C           53.51975041886973       99.04483620475463       14.84325837217637
H           54.47599410844872       99.55817956584059       14.92007322699251
H           52.88779174019768       99.39714206946520       15.66064322356240
H           53.05676241051670       99.33349666393998       13.90337341473155
C           52.01071651703665       96.65214090227808       13.23885788377070
H           51.97144426972170       95.89657887612046       12.46191786914141
C           51.08501748459048       97.60698250111955       13.28779682210266
H           51.10955651064180       98.32598033215636       14.08357945804673
H           50.28502729522907       97.69417648009161       12.57260321997807
C           52.53856526286115       91.49001886707256       12.72850746952086
H           52.62036803115534       92.24113830171046       11.94520377375584
H           51.57479546724926       91.62915364007205       13.22067161966095
H           52.54470473525964       90.51031808082926       12.26028558642248
C           54.48386487360425       89.25312077167059       13.88187135980560
H           53.54131761234025       88.72010072235511       13.81870998916325
C           55.62515901102280       88.64086292599899       13.57775947312551
H           56.54585349753646       89.19251562856162       13.59851099742657
H           55.66815128892397       87.60352010813499       13.29269384497871
C           57.86086171591911       89.26472011230850       18.24673745082593
H           58.23853324608769       88.76213371225762       17.35820769117062
H           56.85947395331319       88.88151688212331       18.44501606819063
H           58.49294043869860       88.99513417246294       19.08841693189112
C           59.40061028991395       91.58671509450126       19.89615120955143
H           59.84900835867583       90.59700205106897       19.89991222632510
H           58.90482499149488       91.73698837371477       20.85546171203829
H           60.20159327810897       92.31828854869612       19.81737032211193
O           57.29919791551996       94.66403552557327       14.85849995102305
H           57.81653168634524       95.44539467190901       15.08050454262473
H           57.32779389445653       94.36514511486230       13.94371742923261
C           52.49436387007533       92.04020712439622       20.59227627259657
H           51.42257321270338       91.96194082848059       20.42173283783935
H           52.65295337464514       92.44468431104109       21.59034039518058
H           52.92871890459657       91.04909117199719       20.54483341397108
N           52.76607025951683       94.22286509936126       19.40879725521394
H           52.05096475178234       94.69830572067370       19.93763431370646
C           53.12731640819273       92.91372247606999       19.57194684737147
C           53.53738022165077       94.74121755507595       18.42364276458088
H           53.46412560124842       95.75278110251793       18.08243655920752
N           54.36343548164352       93.84151216256619       17.95507613454407
C           54.11853155133954       92.69471858727691       18.65672963289962
H           54.66763754089286       91.79925260464712       18.44920665541148
78
 energy: -116.045968867429 gnorm: 0.060555914858 xtb: 6.7.1 (edcfbbe)
Fe          55.82355342847261       94.15567497801658       16.43435874280869
N           56.76355079526147       95.63153080611293       17.49277030865136
N           54.66541444876890       95.55534748551300       15.57527794816978
N           55.00106344848624       92.69045323316631       15.27298537046513
N           57.01483274446662       92.77153415124120       17.26093395990652
C           57.82502793056665       95.45992016962705       18.32107630196689
C           58.33364539138175       96.74131122150044       18.76499450618870
C           57.50434781392038       97.68889278937486       18.23169544321301
C           56.53595732948708       96.97086393252029       17.42280702209863
C           54.69547957155932       96.90311751097245       15.77616524515890
C           53.71405171227872       97.56037779977642       14.93863503124733
C           53.08280309397743       96.56472799348998       14.23019381180909
C           53.71578524532671       95.32372431323017       14.63725757812293
C           53.99797717449555       92.88206001816572       14.38527231682138
C           53.62977223191813       91.63856676201821       13.75322254787025
C           54.45527072029357       90.67981606360328       14.28019052137929
C           55.29598349396343       91.36639451864782       15.25180483937458
C           56.93549573960591       91.42461785520184       17.09346949149095
C           57.79174356948989       90.74945646773205       18.05386593553060
C           58.41509922524451       91.72737938124409       18.76971216451664
C           57.91133515505851       92.98933660095915       18.25687077772267
C           58.31994315656313       94.22727490240999       18.72218536536751
H           59.08533304377815       94.23670317496149       19.48695468035449
C           55.55695039400715       97.56543818206225       16.64306687942987
H           55.47730485197858       98.64232795944694       16.69498602720096
C           53.38400963489646       94.09125204989580       14.10725219871543
H           52.57550075395790       94.06725737741982       13.39237290568037
C           56.17668212318894       90.76187260947805       16.13844143920492
H           56.25730219448447       89.68077934919327       16.10181336834393
C           57.53784500276057       99.16136892168791       18.45539752370036
H           58.45215181898470       99.45377012406634       18.96556809751441
H           56.69804778935681       99.46422381833389       19.08349382323147
H           57.47282798278386       99.71944295829095       17.52372708143055
C           59.56799576735332       96.94430090313679       19.57387871486980
H           60.31682253321323       96.19832589284735       19.31551380677891
H           59.37092702445057       96.86847602824594       20.64278926474114
H           59.99537100037769       97.92674658336041       19.38350988041314
C           53.52971609354487       99.03621296073183       14.85114073694631
H           54.48614597743641       99.54829205458476       14.92761007013805
H           52.89176477147730       99.39617162919255       15.66001000376520
H           53.06939881995498       99.31164496170899       13.90600876674550
C           52.01961046535541       96.67682265427500       13.26722736048161
H           51.99668727067391       95.92091535589792       12.49135137124631
C           51.07544249662363       97.61720133361001       13.29268972629754
H           51.05274591881001       98.34202248006262       14.08856438847513
H           50.29239993279580       97.68412656607400       12.55800763670376
C           52.54936618677607       91.48629082170946       12.74031632448074
H           52.64014337202497       92.23195433535379       11.95231517300350
H           51.57530361502673       91.62280752270514       13.21404334788362
H           52.57303895331313       90.50222595089754       12.28180504629490
C           54.51035963931597       89.28005785064738       13.90385437963064
H           53.55962961597808       88.76321597932431       13.82751924867409
C           55.64161441111222       88.64570023476027       13.59972078705073
H           56.57933319603667       89.17218691444550       13.62227155526494
H           55.66573183602791       87.61276944725189       13.29742858685387
C           57.86234578807734       89.27312737895410       18.23475695209864
H           58.24283177873065       88.77711291595179       17.34388848417887
H           56.86659865110189       88.87748467121934       18.43690566431153
H           58.50182789892904       89.01339760951510       19.07343154630700
C           59.39047418733703       91.58545098211800       19.88596652937505
H           59.83567599506621       90.59442648388325       19.89011668621522
H           58.89937942058605       91.74172701443568       20.84721765020468
H           60.19202796462622       92.31539783570683       19.80060961725161
O           57.39692434931420       94.56778316239918       14.90398088687541
H           57.79927680995733       95.47680801190441       15.02235750021629
H           57.31086086661071       94.40140032890807       13.92211635932716
C           52.49785730656593       92.04095051175545       20.58434905625210
H           51.42548779422488       91.96169247936726       20.41558735831777
H           52.65353660860807       92.44108139188295       21.58510682516133
H           52.93120708850217       91.04898664454528       20.53866988304084
N           52.77608679174614       94.22581793429092       19.40092079342269
H           52.06165811452092       94.70460102476876       19.92693516415937
C           53.13397648893780       92.91360704231546       19.56664520612878
C           53.54902099989594       94.74137358632449       18.41780283963778
H           53.47934177395084       95.75311656657864       18.07909291662691
N           54.37354666510416       93.84274577021466       17.94594002213425
C           54.12555270546474       92.70011458072375       18.65076467682543
H           54.67286604369878       91.80351213205238       18.44844195050430
78
 energy: -116.048743214148 gnorm: 0.032901166003 xtb: 6.7.1 (edcfbbe)
Fe          55.82413560130519       94.15871128157775       16.43079242482943
N           56.76097797136781       95.61514938982444       17.47418802849151
N           54.67941361151072       95.54823395871620       15.56406394718027
N           54.97773278004153       92.71440908507451       15.30155998554612
N           56.98645400446475       92.77734337071188       17.27745636913318
C           57.81740295610596       95.44741714632325       18.30352871793170
C           58.31848143882568       96.72451178582337       18.75642087499931
C           57.49013405648532       97.66707462175570       18.22677941999744
C           56.53081031376418       96.95408691580971       17.41432734898114
C           54.70560018707815       96.89366777285467       15.77739950086322
C           53.72315902457679       97.55785231360693       14.96067814138456
C           53.08732349496704       96.57353093372352       14.24687749823185
C           53.72496967045275       95.32761486407917       14.63105784916795
C           53.97675504443764       92.89376380645069       14.40967720020792
C           53.61921648765904       91.64725530356813       13.78408876818633
C           54.45918219373746       90.70133345557232       14.30723648956893
C           55.28147514294812       91.39518130535133       15.27869437396870
C           56.90878694322123       91.43454182295319       17.10894777886763
C           57.77446511224342       90.75662821457372       18.05195649133656
C           58.40009661205028       91.72822612954143       18.76738483085401
C           57.88965850439197       92.98935448212039       18.26239281412172
C           58.31603528931674       94.22306096002765       18.71209518121585
H           59.10196782270035       94.23740272709830       19.45481777395308
C           55.55757075564950       97.55850500390389       16.64455434423401
H           55.46738346520191       98.63281062835590       16.71046489899510
C           53.37023473704185       94.10022038378347       14.10477011862154
H           52.56751440989959       94.07612039212503       13.38534012199199
C           56.16221317385830       90.77947101189957       16.14876262107985
H           56.26614521571317       89.70217839866966       16.07596421213956
C           57.52640363399934       99.13931646794515       18.43963650102967
H           58.44566850896637       99.42491852114030       18.94715669950785
H           56.68749159979962       99.45822123220634       19.06397857635176
H           57.46612215337882       99.68362684447338       17.49758177558105
C           59.54451433169631       96.93186371119489       19.57521353438982
H           60.30317237194756       96.19199477109822       19.32078832454342
H           59.33449249732825       96.85220156608054       20.64294893942034
H           59.96329580017035       97.92115246177694       19.39007882099664
C           53.53799524483971       99.02900280082797       14.86284581920796
H           54.49587373780864       99.54084507035161       14.93820349041667
H           52.89275736052789       99.39701045143666       15.66328234426827
H           53.07976968506748       99.28751856856104       13.90966224512806
C           52.02151697319853       96.70193827821031       13.29361057110347
H           52.01561027786053       95.94865068332778       12.51516830412244
C           51.06189655099557       97.62710978486554       13.30160819667192
H           50.99166279774379       98.36091046347049       14.09504298098658
H           50.29674787802293       97.67171814703281       12.54416850067662
C           52.55826169969666       91.48138115398085       12.75290647380403
H           52.66234793202725       92.22153466260956       11.95879362445672
H           51.57230469689409       91.61582448792404       13.20654307907070
H           52.60358518250511       90.49044931399735       12.30597627470305
C           54.53910205147183       89.30717337347615       13.92438039663979
H           53.58018281976925       88.80510526267513       13.83477728982638
C           55.65807428609485       88.65419736998463       13.62391686465108
H           56.61686698365580       89.15187507835611       13.65216267158309
H           55.66160970651528       87.62354850721181       13.30638216883471
C           57.86475905613142       89.28025124604612       18.21940339488813
H           58.24993897878831       88.79544350533023       17.32265661088694
H           56.87455541356245       88.86941582651282       18.42498880089585
H           58.51527941510847       89.03130783155862       19.05465988440230
C           59.38224878428866       91.58518103113164       19.87486838672584
H           59.82294010133654       90.59055024672490       19.87775697540971
H           58.89571823393603       91.74823834082292       20.83920427114331
H           60.18586766299431       92.31352611083894       19.77897007649680
O           57.35479826684683       94.61534219726610       14.86535891970330
H           57.85740749676285       95.39962120638316       15.02435165066929
H           57.36879720639916       94.37658889377619       13.94258286059598
C           52.50518745340332       92.04111445777421       20.57494144160395