78
 energy: -115.917092343525 gnorm: 0.343483799799 xtb: 6.7.1 (edcfbbe)
Fe          14.59000000000000       28.12000000000000        4.89400000000000
N           14.88800000000000       29.30100000000000        6.43300000000000
N           13.83200000000000       26.79100000000000        6.17800000000000
N           14.53500000000000       26.82500000000000        3.43100000000000
N           15.65100000000000       29.31400000000000        3.69400000000000
C           15.47500000000000       30.57900000000000        6.38800000000000
C           15.44800000000000       31.20799999999999        7.67700000000000
C           14.87600000000000       30.29700000000000        8.51700000000000
C           14.54600000000000       29.15200000000000        7.75000000000000
C           13.56700000000000       26.90800000000000        7.51000000000000
C           12.99400000000000       25.73300000000000        8.07700000000000
C           12.96400000000000       24.84300000000000        7.01500000000000
C           13.40300000000000       25.52300000000000        5.90100000000000
C           14.05800000000000       25.53200000000000        3.51100000000000
C           14.31100000000000       24.78600000000000        2.33900000000000
C           14.98100000000000       25.71600000000000        1.48500000000000
C           15.00700000000000       26.91300000000000        2.14600000000000
C           15.97000000000000       29.15700000000000        2.34900000000000
C           16.66800000000000       30.34400000000000        1.79600000000000
C           16.81600000000000       31.10800000000000        2.84000000000000
C           16.18500000000000       30.54300000000000        4.00300000000000
C           16.05200000000000       31.17400000000000        5.21700000000000
H           16.41100000000000       32.20000000000000        5.29600000000000
C           13.90700000000000       28.03800000000000        8.28000000000000
H           13.65700000000000       28.03800000000000        9.34100000000000
C           13.39700000000000       24.98400000000000        4.61500000000000
H           12.83300000000000       24.06400000000000        4.45800000000000
C           15.62700000000000       28.01000000000000        1.59400000000000
H           15.86400000000000       27.99500000000000        0.53000000000000
C           14.50200000000000       30.48600000000000        9.98000000000000
H           13.39600000000000       30.50800000000000       10.08000000000000
H           14.91700000000000       31.44700000000000       10.35200000000000
H           14.90100000000000       29.64200000000000       10.58200000000000
C           15.83500000000000       32.66600000000000        7.99600000000000
H           15.79600000000000       33.27200000000000        7.06600000000000
H           16.86800000000000       32.69900000000000        8.40500000000000
H           15.12100000000000       33.09100000000000        8.73300000000000
C           12.61200000000000       25.64800000000000        9.55300000000000
H           11.99900000000000       26.53300000000000        9.82900000000000
H           13.53000000000000       25.63600000000000       10.17800000000000
H           12.01700000000000       24.72700000000000        9.73400000000000
C           12.49800000000000       23.53000000000000        6.94900000000000
H           12.06600000000000       23.15700000000000        6.00900000000000
C           12.55000000000000       22.63200000000000        8.04500000000000
H           12.97200000000000       22.95200000000000        9.00900000000000
H           12.16900000000000       21.60500000000000        7.94400000000000
C           13.76800000000000       23.34200000000000        2.05000000000000
H           12.78500000000000       23.41100000000000        1.53600000000000
H           13.63600000000000       22.79200000000000        3.00600000000000
H           14.48000000000000       22.79800000000000        1.39400000000000
C           15.49900000000000       25.56600000000000        0.16200000000000
H           16.01000000000000       26.41700000000000       -0.31200000000000
C           15.39900000000000       24.40300000000000       -0.57500000000000
H           14.89900000000000       23.51800000000000       -0.15600000000000
H           15.81800000000000       24.34800000000000       -1.59100000000000
C           17.04200000000000       30.52300000000000        0.36000000000000
H           16.12600000000000       30.49700000000000       -0.26800000000000
H           17.71900000000000       29.70100000000000        0.04300000000000
H           17.54500000000000       31.50400000000000        0.22300000000000
C           17.58299999999999       32.43000000000000        2.91200000000000
H           16.86700000000000       33.27800000000000        2.85300000000000
H           18.29400000000000       32.49800000000000        2.06100000000000
H           18.13500000000000       32.49200000000000        3.87400000000000
C            9.37000000000000       29.58200000000000        2.74500000000000
H            9.24800000000000       30.58700000000000        2.28800000000000
H            8.48300000000000       29.36400000000000        3.37700000000000
H            9.45400000000000       28.82600000000000        1.93600000000000
N           10.94600000000000       30.40300000000000        4.77100000000000
H           10.34700000000000       31.14900000000000        5.06200000000000
C           10.70000000000000       29.56100000000000        3.64900000000000
C           12.11800000000000       30.02900000000000        5.37500000000000
H           12.55000000000000       30.44600000000000        6.28100000000000
N           12.55300000000000       29.09900000000000        4.62400000000000
C           11.80400000000000       28.66300000000000        3.52400000000000
H           12.08100000000000       27.87000000000000        2.84900000000000
O           16.89600000000000       26.69500000000000        4.86600000000000
H           16.76100000000000       25.98600000000000        4.23700000000000
H           17.63400000000000       26.84500000000000        5.33900000000000
78
 energy: -116.004659998007 gnorm: 0.143341709421 xtb: 6.7.1 (edcfbbe)
Fe          14.65130955369982       28.09690683086335        4.91052905158573
N           14.91525787346073       29.31959452448513        6.43684272307023
N           13.83234086861486       26.79177422532426        6.18183987484815
N           14.52395553873301       26.81567566805031        3.42733352101455
N           15.64990395108428       29.32380486222924        3.67634883925554
C           15.47676585604690       30.58559167139579        6.38024902006500
C           15.43437190281641       31.22152982715373        7.67207879294558
C           14.86691000853797       30.31381544021026        8.52250112460149
C           14.54553790838525       29.15739903298336        7.74645435421269
C           13.57673334446785       26.92197426925511        7.51627485924549
C           13.00377957532862       25.73956240417581        8.08519308620590
C           12.93878247303686       24.84195114605673        7.03300720901672
C           13.39406239958522       25.53322414818167        5.88283187980287
C           14.04291999120236       25.52898994475420        3.50323984576721
C           14.28960540644736       24.78507472642734        2.31470404722778
C           14.95524420878202       25.68697803881636        1.46395266801560
C           15.02529287318764       26.91270994166755        2.15946847789240
C           15.94437819902131       29.16320987705602        2.34197400796919
C           16.65872180169955       30.32693360005889        1.79986857948921
C           16.82397934631310       31.13219683876758        2.85828386078460
C           16.17464130833023       30.54538892020003        4.00799451397938
C           16.04413440959931       31.16521195506816        5.23059559122124
H           16.41199719120455       32.18302729457866        5.30967425126282
C           13.90825093491300       28.04500708620581        8.27093968895650
H           13.66174986074921       28.04163024677856        9.32671749218382
C           13.39801549203638       24.98741306729119        4.60932784165273
H           12.85614028653209       24.06203471469891        4.45925561545029
C           15.62619657150287       28.03329379285367        1.60863215187584
H           15.86824099052088       28.01765134965407        0.55277101488204
C           14.50627074006538       30.48739765172366        9.97357484319273
H           13.41301137552120       30.50707972512992       10.08265990051113
H           14.91304243765126       31.43101763033064       10.35161154714280
H           14.89760970088988       29.65800438088457       10.57579013921936
C           15.83361081854487       32.65002879302740        7.98847069064842
H           15.79781926717637       33.26277206080395        7.08073757904138
H           16.85126065141855       32.69652004393352        8.39912008715282
H           15.13756495635649       33.08014662483636        8.72005611430920
C           12.61453906580946       25.64402251115468        9.53848288093514
H           12.01078359063229       26.51708862846033        9.82233365941637
H           13.51393746456167       25.63028148299189       10.16886986333114
H           12.02502236339622       24.74061906012741        9.73030960350886
C           12.48064260647321       23.49846917348795        6.98674306927709
H           12.07267288164587       23.14032094194694        6.04014586853029
C           12.54178838295146       22.63844157724811        8.03146110556984
H           12.96859700429399       22.94246502954636        8.98174795444269
H           12.17375593575469       21.62244897676584        7.94281203539533
C           13.77930429988763       23.36578787923214        2.05647656722712
H           12.80676632524020       23.41606489053650        1.54495745631131
H           13.64444041355568       22.80871148398706        2.99097634108203
H           14.47057674945258       22.80356129172023        1.42083353096843
C           15.48995548009898       25.52922835842229        0.14377346500249
H           16.00014780363780       26.38244743007031       -0.30780392357402
C           15.40066702789168       24.40556180292674       -0.58338027293823
H           14.90882465135611       23.53064279724001       -0.18563918454958
H           15.81572440738434       24.34838607155372       -1.58191698573278
C           17.03937545517829       30.51420569815579        0.36824362407347
H           16.14035701315723       30.49527029797844       -0.26203637810033
H           17.71170702805042       29.71162317684268        0.04117400838026
H           17.53758523154453       31.48212846859193        0.22434317783320
C           17.57949370021561       32.43489755564380        2.91400528920194
H           16.87840407812373       33.27632843889607        2.85463486471270
H           18.28397925483100       32.50081083740287        2.07697189805556
H           18.13224604500822       32.49729413937495        3.85738411497920
C            9.40262361908050       29.59271060511116        2.77245572321617
H            9.25907295499111       30.57472161462067        2.30400567245490
H            8.51144362943889       29.36933659744637        3.37427811713053
H            9.47039286841980       28.84537770117011        1.97143275430520
N           10.92288007883690       30.38092186563167        4.74617433027410
H           10.32641273833388       31.13594806100349        5.04572362070612
C           10.68864098506980       29.55665838626999        3.64104482858163
C           12.11144034731978       30.00961576241008        5.32985107907106
H           12.52792127227205       30.43690245825395        6.23523838491540
N           12.60886812042196       29.05130244554921        4.61498399776486
C           11.78906754293195       28.70401702595037        3.55753250588933
H           12.06018766950786       27.91133474918312        2.87854070337403
O           16.85330753337008       26.70987199504667        4.86703136862439
H           16.76049484740337       25.99341995234645        4.24119264336584
H           17.64854145900550       26.84823042378974        5.34770575128853
78
 energy: -116.031892012692 gnorm: 0.040185880942 xtb: 6.7.1 (edcfbbe)
Fe          14.68750741129161       28.07739997255690        4.91738965811217
N           14.94824704384624       29.33199132379564        6.44084582880389
N           13.83915606162404       26.78619844645657        6.18465511065404
N           14.52109364824732       26.79954558775636        3.42010165734553
N           15.64453121001795       29.33661824665866        3.66853379889821
C           15.48426773376903       30.58713431183469        6.37675676499815
C           15.41900989501413       31.23586112033104        7.66869595878941
C           14.85559133920008       30.33310068621132        8.52282836947792
C           14.55296708434484       29.16300764859593        7.74032504242567
C           13.59500091143118       26.93059808531807        7.51798230974522
C           13.01072752104056       25.74490235911674        8.08452080783151
C           12.90856907971803       24.84991511993488        7.04387071975422
C           13.38308931075486       25.54321100085406        5.86900508937504
C           14.02326262240810       25.52682401706348        3.49526240804206
C           14.26238889265156       24.79021367906582        2.28838431351878
C           14.92440256747964       25.66622409164102        1.44604799834587
C           15.03922549117314       26.90852536024165        2.16785135334653
C           15.92219220464063       29.17262667739480        2.34475323342666
C           16.64052579372240       30.31839246249457        1.81279653393154
C           16.82247317910123       31.15279453805471        2.86997553427307
C           16.16366296571158       30.54825509316142        4.01032560663103
C           16.04287841777697       31.15676338380250        5.24465627182751
H           16.42219408941810       32.16612822342430        5.32624372340074
C           13.91758598215096       28.05184458424352        8.25881626307028
H           13.66823349736184       28.04950446363117        9.30972735374668
C           13.39662405251414       24.98805639441851        4.60699332703819
H           12.88992624934224       24.04510887524070        4.46973104706866
C           15.62291166777371       28.04605900670872        1.62325330357471
H           15.87578876350121       28.03197348973585        0.57426208623320
C           14.50945837137801       30.49318697635064        9.96608681159658
H           13.42452017001597       30.50731597167097       10.08751184221320
H           14.91319396388809       31.42386699649997       10.35324984806035
H           14.90113671221734       29.67033664023345       10.56254647877741
C           15.83039977864897       32.63909519039033        7.98076377545337
H           15.80072817320761       33.25665245322683        7.08666660659536
H           16.83989979439509       32.68344458376696        8.39163428716100
H           15.14972531889634       33.07210047842801        8.71337102662031
C           12.61789826952949       25.63944563721606        9.52155426346484
H           12.02152736092798       26.50609799772889        9.81190073676054
H           13.50379038807757       25.61946496696257       10.15928519683195
H           12.02999019269540       24.74707295441403        9.71471546016678
C           12.46249785391811       23.48037166766069        7.01661819392246
H           12.06882026641435       23.13562734584491        6.06590683804902
C           12.53410034838004       22.63774823354616        8.02916573948142
H           12.96535016128497       22.92563286032983        8.97191087047158
H           12.17885662956784       21.62532460420826        7.94849140074423
C           13.78629677780254       23.39036428504752        2.05739595127204
H           12.82041387642536       23.41856477888857        1.54565159539357
H           13.65458878624817       22.84135851770507        2.98756855270464
H           14.47426666259056       22.81603953911912        1.44370805608669
C           15.47345733349534       25.50005504539197        0.12666040555470
H           15.98819483201848       26.35684242749781       -0.29616286404411
C           15.39845351715795       24.39738599803754       -0.60413919090301
H           14.90888407081084       23.52192736524025       -0.23285221075496
H           15.82262619085844       24.34102629964526       -1.58858242031492
C           17.03413996406737       30.50577843026016        0.38389812406780
H           16.14866357208998       30.48962841161909       -0.25291434073661
H           17.70488872945233       29.71533621638783        0.04862991884681
H           17.53159117405108       31.46347619960903        0.23691109542604
C           17.57442935990478       32.43854372674319        2.91528196226663
H           16.88786497963799       33.28210203885640        2.85740958588989
H           18.27390408117533       32.50391608016533        2.08572150352235
H           18.13294100697135       32.50789593589024        3.84550969599311
C            9.44286928535359       29.59741768581762        2.80041764453806
H            9.29259213271181       30.57150075716213        2.33407343983190
H            8.55244504927154       29.37543406547947        3.39151235903276
H            9.50129615249667       28.85644761993903        2.00454746480981
N           10.90554390563564       30.35558040978352        4.72547119926265
H           10.31388517260463       31.11236420238318        5.03588302773954
C           10.68205333520964       29.54784742612354        3.63518497317242
C           12.09719814240624       29.99507476379067        5.28244775804595
H           12.50360681582079       30.43311623555000        6.17907055950790
N           12.64595368061228       29.02475256577474        4.59640813194426
C           11.77821928359737       28.73192943932255        3.57920641283089
H           12.03823081350686       27.94410952908208        2.89536489837342
O           16.80010764017129       26.73483972452896        4.90052212710328
H           16.76249995218260       26.02337248429756        4.25703352287976
H           17.64396528319056       26.85440798663833        5.34119021059996
78
 energy: -116.039097828292 gnorm: 0.027087263674 xtb: 6.7.1 (edcfbbe)
Fe          14.70813944656505       28.06373985023508        4.91956274172986
N           14.97280711297179       29.33187238607382        6.44440759008558
N           13.84491443995044       26.77706940059519        6.18072623499515
N           14.51288361955615       26.79178889216761        3.40844037996373
N           15.63525147893994       29.35054578628664        3.67554275424698
C           15.49201866591402       30.58879257172643        6.37938952264339
C           15.40777406688488       31.24589614759294        7.66714576518990
C           14.84497461215428       30.34561337395109        8.51861317113455
C           14.56279005824785       29.16627662771300        7.73611795815265
C           13.61175231726606       26.92860288093963        7.51343569883058
C           13.01479984162041       25.74625545129909        8.07885229695505
C           12.88484202976403       24.85512699313179        7.04397839020804
C           13.37361187780353       25.54322400200538        5.86189947288931
C           14.00339984005733       25.52762270003963        3.48436438798482
C           14.23250440421097       24.79823002358548        2.26803949080231
C           14.89704435222130       25.66107346775640        1.42531433097639
C           15.03300017692845       26.90658774292208        2.15937814449042
C           15.90232943987821       29.18447271639117        2.35303207648500
C           16.62345853483308       30.32298535473486        1.82433133620558
C           16.81207091866559       31.16705105547896        2.87587178220897
C           16.15749564151514       30.55769888841341        4.01493682648721
C           16.05285569700666       31.15983750942086        5.25436162877082
H           16.44917223379164       32.16070345830700        5.34443182450656
C           13.93217369192083       28.05278275847112        8.25017885795434
H           13.67491547637386       28.05733911474012        9.29795837534432
C           13.39562294641995       24.98211841314730        4.60347898491120
H           12.92921036623287       24.01477674571041        4.48027863908352
C           15.61521115926401       28.05027893474308        1.63001151319000
H           15.88527167607401       28.04634855414363        0.58662538480696
C           14.51071201645744       30.50049427013291        9.96287638352088
H           13.42795121294333       30.50927556395677       10.09964625895618
H           14.91676296159928       31.42812877780021       10.35502702212288
H           14.91392682331470       29.67601081705892       10.54842916201569
C           15.83153630777683       32.64088011170164        7.97646421267501
H           15.80696261709120       33.26181022184986        7.08516356559717
H           16.84265201186436       32.66747984437396        8.38343997533370
H           15.16112634722025       33.07768131152356        8.71502039534747
C           12.61960666220123       25.63477785759505        9.51086101961994
H           12.03050787854754       26.50416341543488        9.80454600545635
H           13.50181522618015       25.59900342081223       10.15210551514163
H           12.02354684564298       24.74557820946237        9.68984941777824
C           12.43276405349432       23.48170045612961        7.03171663535846
H           12.03376926680061       23.13515269127371        6.08688458135738
C           12.52637380170316       22.62622459136136        8.04462293231106
H           12.97194786603805       22.90273987085750        8.98355641304991
H           12.18313226363175       21.60952973791148        7.96062837946225
C           13.78150568037496       23.39483787322095        2.05523294312353
H           12.82178365289338       23.39769021554152        1.53169942941960
H           13.65318509062117       22.87193562772293        2.99967064444073
H           14.49086743654612       22.82051144432871        1.46650946826217
C           15.45117094518938       25.47913435086731        0.10670473867710
H           15.98041520993585       26.33199524095218       -0.29812797835268
C           15.38840487213688       24.38125848985377       -0.64177535267255
H           14.88463971651323       23.49625073081875       -0.30792705371011
H           15.84384573590045       24.33496194808536       -1.61464922627520
C           17.02826136416926       30.49777015389419        0.39835658108897
H           16.14842251732675       30.48034965676337       -0.24540661536252
H           17.69958242386273       29.70496579250376        0.07059522527960
H           17.53033090067227       31.45149594822336        0.25430837644859
C           17.56736716834293       32.45004779105608        2.91604140471766
H           16.88963742533515       33.30183490652313        2.86153050238161
H           18.26261178289370       32.51146008130358        2.08300437471642
H           18.13657910044863       32.52393200696626        3.84011736760364
C            9.46510519604697       29.59686053838615        2.81359115997095
H            9.33106149805857       30.57990023593156        2.36325486825045
H            8.58166394583984       29.37940145470971        3.41474262626900
H            9.52551540039057       28.85977055207620        2.01782161161871
N           10.91118366608947       30.33358019564515        4.72504295291582
H           10.31204622988409       31.07968086981594        5.04424799234304
C           10.69627159728666       29.52995144055166        3.63602609617514
C           12.10995162835036       29.98979103330468        5.25756908177978
H           12.51648130264575       30.44128080978824        6.14065862941436
N           12.67184217337221       29.01898056347027        4.57755146258866
C           11.79689117396314       28.72516871458881        3.57241235868984
H           12.03993706053751       27.94403250272730        2.88053842655851
O           16.72738210248685       26.75044762352108        4.99637624430352
H           16.74654634305775       26.10008776893791        4.27461077827665
H           17.62411937328766       26.90529046696104        5.34212744472194
78
 energy: -116.042942283288 gnorm: 0.017339884660 xtb: 6.7.1 (edcfbbe)
Fe          14.70724375923265       28.06149416663641        4.91708073254399
N           14.98754310591135       29.33355661020530        6.44766577314386
N           13.84425647415308       26.76891791683579        6.17271663296098
N           14.50417043606763       26.78510456992143        3.39679345550264
N           15.63338168671786       29.35704852306337        3.68808557797506
C           15.50254886184856       30.59033385301195        6.38393058670134
C           15.40099325850059       31.25340623376663        7.66705970531434
C           14.83568049605993       30.35455668278960        8.51509900953463
C           14.57019539228601       29.16877259738255        7.73302517190666
C           13.62626618461966       26.92373134531918        7.50623888282928
C           13.02179051049074       25.74472723519223        8.07286483702993
C           12.87130465858164       24.85540632405827        7.04314279079370
C           13.36855864795691       25.53848748158966        5.85654852701657
C           13.98822835765037       25.52605651155626        3.47482229386394
C           14.20271993251900       24.80450862121015        2.24938655434837
C           14.86859978367080       25.65970878615883        1.40341636621337
C           15.02007464076564       26.90518726803158        2.14594308613214
C           15.89011256183314       29.18971293494965        2.36390416432455
C           16.60711666051045       30.32729446061037        1.83390916544389
C           16.80072754290194       31.17691251668409        2.87945089503532
C           16.15711905748061       30.56469426808436        4.02103193516838
C           16.06965051095627       31.16339309552491        5.26327380948242
H           16.48023610591203       32.15710665563543        5.36090488250074
C           13.94623144230439       28.04988292446412        8.24211522794777
H           13.68650744553994       28.05711825394361        9.28904879906691
C           13.40074310421775       24.97138770911459        4.60140512276746
H           12.96708076591900       23.98716436619285        4.49203104177028
C           15.60680316944172       28.05152008746456        1.63497973703988
H           15.89570302574441       28.05876773106464        0.59625025251391
C           14.51177795982726       30.50638047454451        9.96181363238289
H           13.43085386735470       30.51082228720897       10.11516550246992
H           14.92053252194198       31.43405275612340       10.35375716196627
H           14.92862625994695       29.68022701849418       10.53691656966707
C           15.83605745698301       32.64527029993737        7.97404961077710
H           15.81306130704671       33.26934816715278        7.08442623311642
H           16.85174415508754       32.65477607859408        8.37246210023804
H           15.17762358148783       33.08850815155416        8.71988300643328
C           12.62043445366944       25.62812475047756        9.50187724056306
H           12.04132470942035       26.50233392246358        9.80153548383178
H           13.49939810639921       25.57167997336971       10.14655411737690
H           12.01187667312489       24.74262121489759        9.66278514265719
C           12.41162006186514       23.48316233170596        7.04579077418300
H           11.98334776783104       23.13458137823656        6.11569979960992
C           12.52221606434925       22.62207100715683        8.05557168592200
H           12.98326918981423       22.88818877360279        8.99043009537444
H           12.17370362984396       21.60693757052733        7.96855476063969
C           13.77766680554734       23.39214629311639        2.04411320845308
H           12.82691746160963       23.36264016485774        1.50443193390388
H           13.64677801246790       22.88701780379941        2.99797505680591
H           14.51600757698903       22.83019175233932        1.47734467030017
C           15.42549756079915       25.46011918719129        0.08737918776707
H           15.97332782118074       26.30701514729234       -0.30382015739424
C           15.36792624773001       24.36917554184332       -0.67646982243620
H           14.84316231165950       23.47658484489068       -0.38424059906491
H           15.85483439112786       24.33694226388039       -1.63815387451239
C           17.02053597873785       30.48957724946448        0.41043571782793
H           16.14605707709809       30.46837217504742       -0.24086286577165
H           17.69318617642734       29.69108433421939        0.09671892242773
H           17.52767961483123       31.44041268486551        0.26678157727674
C           17.55571439520456       32.46210218051713        2.91326377141457
H           16.88113789349325       33.31831559286376        2.86576602480461
H           18.24374798030702       32.52334731184872        2.07289224230534
H           18.13664184779747       32.53897443525256        3.83147202182776
C            9.48175531877568       29.59046790789822        2.82277997740951
H            9.36508987488086       30.58367091079011        2.38887396410892
H            8.60132912190973       29.38095229943859        3.43061670558876
H            9.53257538874196       28.86181970239164        2.02007953560403