87
 energy: -128.467803499988 gnorm: 0.000057939127 xtb: 6.7.1 (edcfbbe)
Fe          78.32106226796151       17.53280890020940        5.94453421036605
N           76.55381170211415       18.24891835666728        5.32679535948531
N           77.75665101778526       15.67892902860989        5.42460196881311
N           80.09745532778152       16.82492308061595        6.55454870867996
N           78.87851207785172       19.38501195917778        6.47319941027675
C           76.13859188376070       19.54160734042858        5.35166848047490
C           74.80439894274245       19.66215188709819        4.80514340427135
C           74.42369188994596       18.40586680908213        4.45114365922143
C           75.53110956695399       17.53638326440596        4.78619964056700
C           76.56477030303199       15.31138090223168        4.88366662109817
C           76.51382152106402       13.88737624247100        4.67401179643025
C           77.71519395491666       13.39030041240399        5.10732502945849
C           78.47908062295058       14.53764693639016        5.56045966205507
C           80.51302890375648       15.52910419445455        6.52401016557606
C           81.85103947652659       15.40695303104308        7.04260907338240
C           82.24136011520443       16.67178783372896        7.39785058042096
C           81.12451078800602       17.53951347452026        7.07584687451030
C           80.06065160987242       19.75030574093700        7.03206445182315
C           80.08571795416179       21.17371530802144        7.29095261433025
C           78.88767526184844       21.65949404163091        6.86916098288211
C           78.14779173106065       20.52507841741268        6.36116264772621
C           76.87146159610509       20.61220404832355        5.83394362853619
H           76.41022813297380       21.58823223218795        5.80116397888159
C           75.52348964735053       16.17189431126281        4.57898233280380
H           74.63010110577623       15.74079175789785        4.15288617004341
C           79.75914963433667       14.45564666070769        6.07695840741613
H           80.20793704912559       13.47549783656396        6.14168989654960
C           81.11274859214664       18.90115249636740        7.31623976094080
H           81.99254799735992       19.33698111079543        7.76503271324381
C           73.14587678098739       17.94444842446242        3.83766241289432
H           72.46861586731130       18.78000152223765        3.67713227550256
H           72.64969526642470       17.22044007756638        4.48444456758564
H           73.33320637767584       17.46519806888723        2.87625471742296
C           74.05533438878967       20.94610470325383        4.68727601593505
H           74.60385334268157       21.65727434306551        4.06863331309213
H           73.90920041375108       21.39694366737273        5.66940012937546
H           73.07873247963285       20.78452814151942        4.23734778000129
C           75.38502213376839       13.15180660692235        4.03938182143554
H           74.95109799968347       13.73681159258017        3.22982289586804
H           74.59680818756705       12.94470487840930        4.76548302248586
H           75.73643883383370       12.20461421100098        3.63478943254649
C           78.19347900658539       12.02630588000259        5.11059009799847
H           79.25907163792451       11.90239570384137        4.95296593851429
C           77.44476657858429       10.94352932164155        5.29775101788867
H           76.39098888899650       11.00438748596137        5.50653766813301
H           77.86951681331051        9.95348528885318        5.27281194030809
C           82.64289576099191       14.14600673282571        7.08990978965161
H           82.44206277067487       13.53067289361230        6.21398404765275
H           82.39466059861606       13.56016967067982        7.97700252019197
H           83.70650581518254       14.37452523769933        7.11716069466506
C           83.50013604598725       17.11860473208986        7.95014317373532
H           83.81400924535038       18.11245545980257        7.65191615609396
C           84.27385960991278       16.42394512112910        8.77870704864895
H           83.99309853039966       15.45305690762764        9.14795379191450
H           85.20987196780959       16.81806765886943        9.13903677426541
C           81.23527122080296       21.89842263687698        7.90343869059551
H           82.12682348738457       21.79722522995556        7.28375478940695
H           81.46218022948545       21.49216159163296        8.88937992210381
H           81.01294010255897       22.95737164607490        8.01233176020693
C           78.37169834704852       23.05830623381017        6.89572975995836
H           78.13680399841492       23.40198351305879        5.88766271007205
H           79.10815876176909       23.73421938796651        7.32354044228165
H           77.46167580729454       23.12083630889460        7.49329417179706
C           75.72790717453367       18.05162918499362       10.87716280116888
H           76.34870401529724       18.11421361912943       11.77101518113965
H           74.88736687384828       17.39147635257986       11.09162346700890
H           75.34402612616984       19.04136692185862       10.65040026019046
N           77.12213193857662       16.31881209078098        9.72548062770516
H           77.10142407045136       15.65305082655330       10.48038083043005
C           76.51457782146461       17.54755500599388        9.72290518938271
C           77.75041457369046       16.17086448613425        8.53747066470828
H           78.30972347065934       15.30123962045799        8.25993104256930
N           77.57800426729938       17.22871413377483        7.78425126608279
C           76.81108514667230       18.09347974173692        8.50723668440966
H           76.52637027914287       19.04404063685200        8.10684767753245
C           80.94872566895459       17.02221058186469        1.03001668883048
H           81.80602051045842       17.66801490299879        0.83950864253220
H           80.34156264682639       16.98606864879580        0.12538157177987
H           81.30876262405478       16.02150330846237        1.24745739751454
N           79.56962110886153       18.76466733565232        2.18560278951602
H           79.61536920139321       19.44046762368574        1.44080492290332
C           80.15418472953502       17.52471823807835        2.17948214238902
C           78.92773723001881       18.90809502489504        3.36715916411603
H           78.37989707502922       19.78312319087676        3.65007955515174
N           79.06982795620165       17.83704935430229        4.10776641338500
C           79.83007341251817       16.96776396017530        3.38301906874526
H           80.09153410663878       16.00620671350647        3.77293243032359
