78
 energy: -115.974962419058 gnorm: 0.260588677400 xtb: 6.7.1 (edcfbbe)
Fe          16.77700000000000      -31.09100000000000       -3.44800000000000
N           15.73200000000000      -32.42000000000000       -2.31300000000000
N           16.68400000000000      -29.73100000000000       -1.93100000000000
N           17.73000000000000      -29.69700000000000       -4.60600000000000
N           16.77100000000000      -32.42900000000000       -4.99600000000000
C           15.39500000000000      -33.71300000000000       -2.65400000000000
C           14.78700000000000      -34.34700000000000       -1.51100000000000
C           14.74400000000000      -33.45700000000000       -0.52100000000000
C           15.32900000000000      -32.22900000000000       -1.00500000000000
C           16.13300000000000      -29.92800000000000       -0.68000000000000
C           16.32100000000000      -28.73400000000000        0.11000000000000
C           16.96200000000000      -27.84400000000000       -0.65700000000000
C           17.19600000000000      -28.44900000000000       -1.95200000000000
C           18.01600000000000      -28.39700000000000       -4.26300000000000
C           18.50800000000000      -27.71100000000000       -5.44000000000000
C           18.50600000000000      -28.59600000000000       -6.44800000000000
C           18.02700000000000      -29.85600000000000       -5.94100000000000
C           17.27300000000000      -32.16400000000000       -6.26500000000000
C           17.00200000000000      -33.28500000000000       -7.12500000000000
C           16.29200000000000      -34.29400000000000       -6.25800000000000
C           16.18300000000000      -33.68700000000000       -4.95900000000000
C           15.59800000000000      -34.29500000000000       -3.87800000000000
H           15.26700000000000      -35.32600000000000       -4.00300000000000
C           15.49700000000000      -31.08100000000000       -0.26500000000000
H           15.08900000000000      -31.08200000000000        0.74600000000000
C           17.84300000000000      -27.85100000000000       -3.01200000000000
H           18.25500000000000      -26.85600000000000       -2.84400000000000
C           17.89000000000000      -31.01100000000000       -6.67400000000000
H           18.31300000000000      -31.00900000000000       -7.67800000000000
C           14.18000000000000      -33.68500000000000        0.89000000000000
H           13.96900000000000      -34.76600000000000        1.03500000000000
H           13.23500000000000      -33.11400000000000        1.01300000000000
H           14.92300000000000      -33.35800000000000        1.64900000000000
C           14.29200000000000      -35.80600000000000       -1.47700000000000
H           15.11700000000000      -36.47000000000000       -1.14000000000000
H           13.97200000000000      -36.11700000000000       -2.49400000000000
H           13.44300000000000      -35.89800000000000       -0.76700000000000
C           15.85200000000000      -28.56400000000000        1.57400000000000
H           15.86600000000000      -29.55100000000000        2.08500000000000
H           14.81600000000000      -28.16300000000000        1.59200000000000
H           16.53600000000000      -27.87200000000000        2.10900000000000
C           17.39200000000000      -26.41500000000000       -0.28300000000000
H           18.37100000000000      -26.02500000000000       -0.59800000000000
C           16.58700000000000      -25.61900000000000        0.43100000000000
H           15.60100000000000      -25.97600000000000        0.76300000000000
H           16.90200000000000      -24.59800000000000        0.69400000000000
C           18.93700000000000      -26.23100000000000       -5.46200000000000
H           19.15700000000000      -25.89300000000000       -4.42700000000000
H           18.11600000000000      -25.60800000000000       -5.87700000000000
H           19.85200000000000      -26.11499999999999       -6.08100000000000
C           18.91000000000000      -28.41400000000000       -7.92500000000000
H           19.01600000000000      -29.29900000000000       -8.56900000000000
C           19.14200000000000      -27.22400000000000       -8.47600000000000
H           19.05100000000000      -26.30500000000000       -7.87900000000000
H           19.42800000000000      -27.14500000000000       -9.53500000000000
C           17.34700000000000      -33.45600000000000       -8.61400000000000
H           18.44800000000000      -33.38900000000000       -8.75000000000000
H           16.86100000000000      -32.65200000000000       -9.20700000000000
H           17.00000000000000      -34.45000000000000       -8.96800000000000
C           15.74300000000000      -35.64900000000000       -6.71300000000000
H           16.52800000000000      -36.42600000000000       -6.59400000000000
H           15.44900000000000      -35.59500000000000       -7.78300000000000
H           14.86500000000000      -35.92600000000000       -6.09200000000000
O           15.07600000000000      -30.28200000000000       -4.25500000000000
H           15.35500000000000      -29.49800000000000       -4.72700000000000
H           14.24400000000000      -30.58700000000000       -4.18800000000000
C           22.21000000000000      -32.22700000000000       -2.55400000000000
H           22.51400000000000      -33.25000000000000       -2.86100000000000
H           22.66300000000000      -31.99800000000000       -1.56600000000000
H           22.56900000000000      -31.50100000000000       -3.31400000000000
N           19.98900000000000      -32.95700000000000       -1.59400000000000
H           20.38800000000000      -33.61300000000000       -0.95400000000000
C           20.71600000000000      -32.15800000000000       -2.45400000000000
C           18.69900000000000      -32.71300000000000       -1.75700000000000
H           17.90300000000000      -33.19700000000000       -1.19200000000000
N           18.56100000000000      -31.80099999999999       -2.70300000000000
C           19.80800000000000      -31.44200000000000       -3.15600000000000
H           19.93100000000000      -30.70600000000000       -3.94000000000000
78
 energy: -116.027251844146 gnorm: 0.104464700843 xtb: 6.7.1 (edcfbbe)
Fe          16.78989998753249      -31.09209283369855       -3.43413456238050
N           15.73423095205631      -32.41866431875444       -2.31101532381656
N           16.68588526013410      -29.72521592893390       -1.92846379235780
N           17.71002576007280      -29.69765886673375       -4.61624014186576
N           16.76923032203310      -32.42026552870418       -4.98873143570128
C           15.40143520207566      -33.70516955259336       -2.65093128900017
C           14.78152756957866      -34.36029640482238       -1.51723717961755
C           14.73779556690834      -33.45780782622592       -0.51122082653234
C           15.33406829367135      -32.23541342109247       -1.01167142343262
C           16.13745085876405      -29.91804890348948       -0.68723067668807
C           16.31729391414827      -28.72827170531444        0.11990672829625
C           16.97601478818271      -27.82449871007850       -0.65227049655200
C           17.20926164831200      -28.45856874139225       -1.93982108963180
C           18.01601929999444      -28.40640563114524       -4.27739763247976
C           18.52044710373356      -27.70486402313606       -5.44335936108364
C           18.52237360136385      -28.60006731255643       -6.47289901428975
C           18.02888239532233      -29.85668102878771       -5.93984307664344
C           17.25815102053514      -32.19310214945478       -6.25230798649109
C           16.98631193231451      -33.32342420901734       -7.10391100192712
C           16.30694343150478      -34.26758167258115       -6.29200238784607
C           16.20160858475854      -33.67055851379389       -4.98574500463514
C           15.60957789103637      -34.28281351445826       -3.88858160534772
H           15.27416351840408      -35.30806866284177       -4.01204582190624
C           15.50196521112171      -31.07836707102317       -0.27148220564925
H           15.09639460191315      -31.08285752076639        0.73547075970645
C           17.84511725056330      -27.85941750180764       -3.01334069509690
H           18.23664507930873      -26.86069637095598       -2.84924677139068
C           17.88365859388475      -31.02523648814635       -6.66768802303224
H           18.28846651009384      -31.01832717899233       -7.67392004207756
C           14.18669026949499      -33.67836038289136        0.87872848816935
H           13.97498443409148      -34.74128465453924        1.03360562462473
H           13.25496539416494      -33.11739862587174        1.01445137308972
H           14.90867303634652      -33.35806731714769        1.63739458390260
C           14.29790575078508      -35.79349999332053       -1.48184722882273
H           15.10416054249424      -36.45892020125655       -1.14866303888434
H           13.97350820640117      -36.11359109206399       -2.47549534054105
H           13.45842859250517      -35.89630229181634       -0.78683861693379
C           15.85905533363633      -28.57107792793648        1.55640750517500
H           15.86761451639453      -29.53591408081103        2.07422050710579
H           14.83755390983472      -28.17349061332510        1.59054654586648
H           16.52188377111471      -27.88288606938933        2.09162236809819
C           17.37621546776058      -26.43321833984166       -0.28439517630478
H           18.34830220267617      -26.06145377726160       -0.60813043299434
C           16.59050966853488      -25.63124480041598        0.42759834826031
H           15.61266674871441      -25.95969166352415        0.75686334934977
H           16.89623603445035      -24.62191210637196        0.68901413171857
C           18.93496553519125      -26.24907861261098       -5.45265699590719
H           19.15131222816618      -25.89933099867059       -4.43934254590031
H           18.13385602120525      -25.62291414405905       -5.86660152100225
H           19.83839205797125      -26.11824673671474       -6.05743179630930
C           18.90964827318743      -28.40586494418978       -7.90060759154987
H           19.00537215077608      -29.29298275340561       -8.52536152309634
C           19.13893457790419      -27.22676626745725       -8.46992988323917
H           19.04413302939797      -26.30721737990396       -7.91281736668064
H           19.42264052013652      -27.14909721803961       -9.51487494789274
C           17.33741331361136      -33.45891137891311       -8.57388730427498
H           18.42242426957634      -33.39051106820422       -8.73380354684060
H           16.86702992963884      -32.67040065754267       -9.17812794613208
H           17.00437353025372      -34.42891118340926       -8.95596475004807
C           15.76083161973081      -35.61577450135656       -6.71125324313272
H           16.51793162410829      -36.40400849016925       -6.59641664580127
H           15.45470664374520      -35.59363422078191       -7.76253902666025
H           14.89024596226838      -35.90460143667327       -6.10876195085369
O           15.07733466489966      -30.26933643563495       -4.25379003345521
H           15.32738017208990      -29.48436814049449       -4.74123882279411
H           14.19407002504794      -30.58445983924582       -4.19744107225729
C           22.20941503505775      -32.23161772948951       -2.55101079633423
H           22.52106839964943      -33.23702643808841       -2.85601965059633
H           22.66683649930010      -32.00120281757613       -1.58239332567604
H           22.56236329795034      -31.51423072757858       -3.29639142959400
N           20.00799159256176      -32.95902000709214       -1.59099448866243
H           20.40543142191614      -33.61784408028902       -0.94539243578984
C           20.72478629315591      -32.16865978908867       -2.45615872281819
C           18.70396410725682      -32.70571813568586       -1.76772171425317
H           17.91508978339654      -33.18239330524386       -1.20961926909630
N           18.55000565220072      -31.79992478468306       -2.70781796553522
C           19.79788905972127      -31.45210305627181       -3.14906666457920
H           19.92196268020363      -30.71908719235293       -3.92428663464614
78
 energy: -116.041553776601 gnorm: 0.035468444944 xtb: 6.7.1 (edcfbbe)
Fe          16.79778475278009      -31.09221667132613       -3.43043608981364
N           15.74771439986520      -32.41736191375948       -2.30841592553201
N           16.70313305708697      -29.73095773912477       -1.92518142626270
N           17.70668841161299      -29.70413489627036       -4.62147069196918
N           16.77522888152595      -32.41620797167435       -4.98134913552044
C           15.41302632802130      -33.69412051859158       -2.64980241099749
C           14.78241960952140      -34.36352164407688       -1.52648088911251
C           14.73893705218820      -33.45546735312072       -0.51032092927284
C           15.34489373562138      -32.23953891737959       -1.01946704335904
C           16.14786888567827      -29.91749525756707       -0.69639073003630
C           16.31179594603522      -28.73043230549179        0.11891103842097
C           16.98461733798293      -27.81937943297573       -0.65387222490248
C           17.22367036978720      -28.47414454929321       -1.93354947745092
C           18.01592138375476      -28.41873183404431       -4.28562711412051
C           18.52824768544206      -27.70708608757539       -5.43770660707979
C           18.53340536182268      -28.60518145783375       -6.48364489023447
C           18.02946570645571      -29.85918173375001       -5.93620271245415
C           17.25107759053584      -32.20556206032332       -6.23804175128218
C           16.97429706138962      -33.34854701812837       -7.08297172921184
C           16.32422480349241      -34.24566995506767       -6.31285720232239
C           16.21663886681875      -33.65627250663684       -4.99571329805839
C           15.62075860370450      -34.26812902196013       -3.89503421210906
H           15.28012772942305      -35.28721838050988       -4.02072439919363
C           15.51064734437870      -31.07873501568839       -0.27863426034018
H           15.10507043906727      -31.08463442342142        0.72417651029089
C           17.84291656139515      -27.86968779299268       -3.01683854393106
H           18.20989403440016      -26.86419026495012       -2.85875439916386
C           17.87294023941034      -31.03285936217832       -6.66235625262794
H           18.25246072806737      -31.02523079997100       -7.67502879186813
C           14.19485534735630      -33.66720221516744        0.86435464369192
H           13.98117682428050      -34.72058730593803        1.02697483054768
H           13.27117858578667      -33.10792582123850        1.00932523416201
H           14.90633835196558      -33.34787564991616        1.62277064279986
C           14.30405588915034      -35.77766568140487       -1.49213014587781
H           15.10049584228118      -36.44552022892734       -1.16091249266358
H           13.97575738406683      -36.10596544460883       -2.47326956243063
H           13.46998722884291      -35.88579166485129       -0.80267653528773
C           15.86399717705889      -28.57804611065865        1.53448254217779
H           15.87577338217821      -29.53171642115164        2.05605889340788
H           14.84779613885398      -28.18548462929781        1.58131687783571
H           16.51506481998743      -27.88637018637985        2.06601329273967
C           17.36267183854887      -26.46303453099971       -0.29273402052691
H           18.32836819899692      -26.10693701045506       -0.63484887139005
C           16.59476805520637      -25.64796169381419        0.42231619578932
H           15.61698437518124      -25.94717845844416        0.75367752285028
H           16.90104478703059      -24.64774623548872        0.68205153326615
C           18.93633806629937      -26.27162868690844       -5.44013409150155
H           19.14338417446695      -25.91697978874271       -4.43519112023960
H           18.14581917694149      -25.64485836623357       -5.85743133263120
H           19.83478755779290      -26.13057218404176       -6.03735424378522
C           18.90871761669186      -28.40278179647527       -7.86521152023560
H           18.99953866921361      -29.29670845033234       -8.47068209586170
C           19.13282900377599      -27.23245163857007       -8.46109744274259
H           19.03334857204699      -26.29932295850995       -7.94445463171764
H           19.41478944847141      -27.16749964614135       -9.49874304228098
C           17.32883171976671      -33.46174629921209       -8.53512990873126
H           18.40627184671446      -33.38730728728782       -8.69233925063110
H           16.86096315740816      -32.67369815905914       -9.12895216034447
H           17.00222435272054      -34.41948400427668       -8.93345328560697
C           15.77800761960005      -35.58410380532690       -6.71055451411700
H           16.52592799801529      -36.37106494717909       -6.59120758275318
H           15.46700265248343      -35.57833052835274       -7.75346082214452
H           14.91288765366726      -35.86357410991080       -6.11051395223520
O           15.05115241615903      -30.24886830066777       -4.23752760780578
H           15.25877002700808      -29.47390709674583       -4.76642387629171
H           14.15045712887790      -30.57152305077628       -4.21708591502126
C           22.20863018899333      -32.23363560995449       -2.55101162742741
H           22.52950901394551      -33.22952899368184       -2.85257856543929
H           22.66690270357213      -32.00211345980220       -1.59151008905889
H           22.55778369677392      -31.51916177317928       -3.28758580324543
N           20.01969415166126      -32.96140953688011       -1.58960102897795
H           20.41517943493007      -33.62026803053418       -0.93897899751177
C           20.72835819344629      -32.17748610715228       -2.46034714461416
C           18.70664721504403      -32.70120314379867       -1.77546692386509
H           17.92323856073370      -33.17336470496834       -1.22115675114690
N           18.53949576028959      -31.80084232239523       -2.71305048682121
C           19.78841082085104      -31.46225472436410       -3.14650234691244
H           19.91791426759989      -30.73141431411311       -3.91624682987722
78
 energy: -116.045882876373 gnorm: 0.023174208038 xtb: 6.7.1 (edcfbbe)
Fe          16.79275167322585      -31.08947760509749       -3.43255153170914
N           15.75908263925911      -32.41529115467836       -2.30770164227211
N           16.71808851291611      -29.74435529953652       -1.92450535882696
N           17.70436552820346      -29.71032337643571       -4.61958041396142
N           16.77582188383105      -32.40948552372027       -4.97550160857427
C           15.42249402846697      -33.68793406955003       -2.64844197283458
C           14.78658767902167      -34.35848673377414       -1.53196382622265
C           14.74479197069039      -33.45171295866500       -0.51426258465008
C           15.35641308089188      -32.24099466606062       -1.02127397183622
C           16.15868136263613      -29.92768695248212       -0.69999865386323
C           16.30946598393466      -28.74058013770987        0.11121192947845
C           16.98268390329526      -27.82961272104495       -0.66111794716448
C           17.23256509689680      -28.48903005300162       -1.93363249644228
C           18.01634349641310      -28.42823266171725       -4.28101907698044
C           18.53160763063695      -27.71352701653699       -5.42306260694999
C           18.53708819990360      -28.60691231762565       -6.47406466528468
C           18.02918278899610      -29.85964910361943       -5.93052405565688
C           17.25347747959849      -32.19601280477284       -6.22856689080098
C           16.98300233856988      -33.34056075672383       -7.07521410311413
C           16.32498901852766      -34.24160546773389       -6.30318537739466
C           16.22089034383764      -33.64921415938666       -4.98556780950592
C           15.62730198771032      -34.26172832874946       -3.89196023193042
H           15.28158205254556      -35.27688003794830       -4.02323529130059
C           15.52113604221156      -31.08428950033019       -0.27866616677519
H           15.11293573520003      -31.08833591261838        0.72167249430703
C           17.84096472128335      -27.87803685402586       -3.01600581919515
H           18.18206425232341      -26.86244226574302       -2.86553055355188
C           17.86588381276487      -31.02791209026458       -6.66056972150533
H           18.21814633651687      -31.01928328123015       -7.68313996506307
C           14.20145401976027      -33.65264589039630        0.85884394515847
H           13.98316067463205      -34.70401855442767        1.02729769287720
H           13.28174214083436      -33.08597453178444        1.00260127985009
H           14.91522945465521      -33.33035538292464        1.61427150750293
C           14.30679955558090      -35.76930432614679       -1.50469834543984
H           15.10305807229868      -36.43949206573742       -1.17686980733619
H           13.97588747937504      -36.09581969051482       -2.48599106282471
H           13.47319022401113      -35.87710793582634       -0.81471614144340
C           15.86359958792228      -28.58638967776072        1.52238197754852
H           15.88805208865270      -29.53795286348732        2.04779718988673
H           14.84381878297362      -28.20327525760903        1.57124352968299
H           16.51020110182940      -27.88282955320021        2.04419004251092
C           17.35822200887598      -26.47893646393588       -0.30810847722997
H           18.32052005153933      -26.13259437720174       -0.66846410713243
C           16.60408772563768      -25.65764837210565        0.41582711497365
H           15.62345741327172      -25.94240600231510        0.75410483048502
H           16.92152843994690      -24.66173513322226        0.67334538933344
C           18.94463103045127      -26.28419356763380       -5.41872129092843
H           19.13942564966806      -25.93156329795577       -4.41045481407415
H           18.15938473410070      -25.65739915292916       -5.84607928501343
H           19.84977762983189      -26.14542274867422       -6.00621509068490
C           18.91239321087629      -28.40504075290828       -7.84795624053018
H           19.01133571099949      -29.30889369169230       -8.43663251119722
C           19.12629211579056      -27.24250191196540       -8.46618285296084
H           19.00370666967044      -26.29119233872284       -7.98210944286366
H           19.41052168925922      -27.20003060805193       -9.50367447466862
C           17.33521718508083      -33.45128725401899       -8.51977457351039
H           18.41212811318141      -33.37492740512067       -8.66526775900440
H           16.86059593948462      -32.65893682566681       -9.09891003742453
H           17.00703344576209      -34.40803053162730       -8.91785865362131
C           15.78327576857468      -35.57394582969987       -6.70251038646277
H           16.53543672383545      -36.35397891483249       -6.57718940910541
H           15.47854269715559      -35.56626703180714       -7.74673044401248
H           14.91688227986847      -35.84082606356749       -6.10258502421062
O           15.00330325832568      -30.21612863309173       -4.19957313299481
H           15.18326189528841      -29.47920086381805       -4.80323773847881
H           14.10853894074749      -30.57291124037277       -4.23918592069986
C           22.20855638963938      -32.23326004282107       -2.55324408718644
H           22.53957560395335      -33.22703769043301       -2.85241607699903
H           22.66466694429433      -31.99816415852912       -1.59330534461797
H           22.55574807499214      -31.51659541860632       -3.28852593775841
N           20.02121731049076      -32.96445294211416       -1.59180295963220
H           20.41686944048939      -33.61881244152674       -0.93611926909461
C           20.72751290013419      -32.18377703300442       -2.46690491927599
C           18.70666626493862      -32.70422614575525       -1.78042760406991
H           17.92435892445404      -33.17375628950895       -1.22394718041412
N           18.53538445861543      -31.80820407909560       -2.72167812558741
C           19.78506042673463      -31.47247102646405       -3.15437299733600
H           19.91830017120650      -30.74248417860480       -3.92350305440335
78
 energy: -116.047887241458 gnorm: 0.055012940559 xtb: 6.7.1 (edcfbbe)
Fe          16.78845348022652      -31.08742304390955       -3.42777697893012
N           15.77200235833944      -32.41225439661706       -2.30716257395153
N           16.73872830863591      -29.76631597757995       -1.92292471294459
N           17.69243070691278      -29.71906113710440       -4.61521271559769
N           16.76384962162497      -32.39109846170894       -4.96419947997568
C           15.43025772945588      -33.68056775900787       -2.64759910658714
C           14.79148154364213      -34.35192408117212       -1.53809159113710
C           14.75279272606516      -33.44840106204568       -0.51912684238272
C           15.36932946895351      -32.24303753030059       -1.02171219517886
C           16.17160198029385      -29.94366441312578       -0.70282712447071
C           16.30562689698017      -28.75525052546158        0.10071611717045
C           16.97715689924260      -27.84483606348538       -0.67115625480277
C           17.23908163122997      -28.50825304158273       -1.93506594328063
C           18.01233486452510      -28.44052660615852       -4.27263359199138
C           18.53216924328346      -27.72358961640415       -5.40320735172599
C           18.53561954136753      -28.60947988057695       -6.45881118138557
C           18.02040365000956      -29.85956471737450       -5.92332440315001
C           17.24779829758883      -32.17846799877641       -6.21408033693961
C           16.98893589774803      -33.32544412030235       -7.06070807517315
C           16.33052472628459      -34.23308039288035       -6.28547457424387
C           16.22006082039958      -33.63551094881864       -4.97061580452714
C           15.63041266620186      -34.25442321582313       -3.88883152604193
H           15.28481165190684      -35.26726345709765       -4.02724549094030
C           15.53321907108256      -31.09330525997931       -0.27484374191437
H           15.12212562932978      -31.09409259211422        0.72298797731042
C           17.83253335336816      -27.88684170716665       -3.01471458789481
H           18.14472540101269      -26.86192142906097       -2.87221601041898
C           17.84699714256637      -31.01832833448522       -6.66091066108857
H           18.17119752260626      -31.01340228180191       -7.69189072502061
C           14.20935057366156      -33.63332263398294        0.85500116854871
H           13.98155454317590      -34.68163768626788        1.03420608178790
H           13.29547288813781      -33.05364650894195        0.99387727946104
H           14.92906761018989      -33.30708614399313        1.60507339965511
C           14.30858320869819      -35.76125947938643       -1.52137596884172
H           15.10635410710786      -36.43576298060159       -1.20267739874477
H           13.97311073088532      -36.07938354318247       -2.50539303660803
H           13.47662060398030      -35.87068472679313       -0.82832536459114
C           15.86007513847830      -28.59728261012704        1.51000623185456
H           15.90672953908652      -29.54522008153918        2.04331794314302
H           14.83227799124982      -28.23331450564555        1.55925173143959
H           16.49710719793430      -27.87407299093089        2.01938591501196
C           17.35522457677205      -26.49459673769138       -0.32981575751266
H           18.31197762491866      -26.15807955037528       -0.71502125892833
C           16.61981626386271      -25.66664422574335        0.40665819201587
H           15.64192473196097      -25.93977410654748        0.76582601458570
H           16.95185977051987      -24.67282899059913        0.65404094660743
C           18.95692900374443      -26.29928139294172       -5.39875150100963
H           19.14422928128488      -25.94699494603429       -4.38764254826504
H           18.17900885721988      -25.66851018629457       -5.83440724711665
H           19.86591481156695      -26.16937594401136       -5.98374180310546
C           18.91741940743735      -28.40958285637221       -7.82983143031114
H           19.04642769277680      -29.32230065782608       -8.40043361636245
C           19.11019447815612      -27.25442946823669       -8.46774680306545
H           18.98517291340178      -26.29066444883915       -8.00798869434131
H           19.40484554691747      -27.23778795105887       -9.50426036166652
C           17.34553426518410      -33.43366132464031       -8.49984018726000
H           18.42250843228120      -33.35398375399237       -8.63586632055672
H           16.86769358072675      -32.63847644296368       -9.07074809167728
H           17.02001874403712      -34.39004560794493       -8.90190884954710
C           15.79531443194365      -35.56218373780322       -6.68848001118012
H           16.54825042082033      -36.33926979193681       -6.55345181937470
H           15.50138014555301      -35.55499630727142       -7.73648874922459
H           14.92326740329722      -35.82002534259788       -6.09466194178110
O           14.92944311912876      -30.14788397615186       -4.11582499421307
H           15.08321101998518      -29.50516187910693       -4.86104255966262
H           14.05899615400988      -30.58921451780889       -4.31235571541190
C           22.21126284569737      -32.23074762906116       -2.55658038496951