72
 energy: -105.980475373689 gnorm: 0.000063810790 xtb: 6.7.1 (edcfbbe)
Fe         -22.31790572677368       22.08445333258476       19.98751178988672
N          -22.33507511531608       23.97756933477681       19.37388016543033
N          -20.51890184440550       22.38306826710809       20.84963122095736
N          -22.24809047778299       20.14685643694680       20.54407858120483
N          -24.05917607081117       21.75923982390389       19.08348771313605
C          -23.32155961682872       24.59563243110992       18.67859262851291
C          -22.97654558839502       25.97659260281482       18.41558517158906
C          -21.74748823557553       26.17266371463911       18.96055567008423
C          -21.36363536411102       24.91082470758571       19.55679313688493
C          -19.79311318973316       23.53694812747000       20.84848394157556
C          -18.57495352009080       23.37559767531157       21.59606994517201
C          -18.57677816001664       22.08744776035810       22.06506276982752
C          -19.79635134978595       21.48296126299557       21.57068207853667
C          -21.29433845657377       19.54981055722902       21.31492073067589
C          -21.61562155329050       18.16578895852930       21.54338191551642
C          -22.79805913094870       17.93246913245095       20.89127725190195
C          -23.17279329182911       19.18879425094024       20.27712438234956
C          -24.74245653849408       20.58796258901671       19.01582282491673
C          -25.98788025881435       20.76220836368805       18.29800407179711
C          -26.04156401197357       22.07219882280732       17.94320805802436
C          -24.82422822813631       22.67715642686820       18.44128830666314
C          -24.49611405904682       24.00471473700984       18.25511961486869
H          -25.19949984421160       24.62226642894496       17.71863494373058
C          -20.17797971368070       24.71763280088081       20.23591041386631
H          -19.50563792217066       25.55796168198275       20.31076116030246
C          -20.16230306696770       20.17222452242144       21.81125966638649
H          -19.50616578438791       19.58106536583469       22.43044651054753
C          -24.33809423106164       19.38539054104328       19.56030805644822
H          -24.99546814815554       18.53914972762677       19.43714860099685
C          -20.90691848661693       27.40251553656717       18.98258184424445
H          -21.40562050216362       28.21985885887305       18.46796649764211
H          -19.95085556425230       27.22105274789579       18.49134195404221
H          -20.70702534382455       27.71408140257141       20.00828951204116
C          -23.84716160134136       26.93278607650671       17.67640991598591
H          -24.81190907682203       27.03631512697493       18.17341281324059
H          -24.02599294578344       26.57885605322489       16.66108068913141
H          -23.38338853365500       27.91444152232463       17.62022359310995
C          -17.51848482107877       24.41318286298051       21.74522976380568
H          -17.76854303913747       25.11291602393452       22.54460009292229
H          -17.40413918616825       24.98164289531271       20.82353866069447
H          -16.56682666098351       23.94379119878040       21.98589521096293
C          -17.58078414277282       21.40312454131297       22.85991918318964
H          -17.46083210985297       20.34587829191152       22.65360686218823
C          -16.83191577766899       21.96406394682340       23.80334503597694
H          -16.94076467805458       22.99733107805599       24.08322938249218
H          -16.09744555421658       21.39650071253066       24.34995075322216
C          -20.76020364116216       17.19827611307457       22.28327572518728
H          -20.91756337707323       17.28414677516978       23.35962525348969
H          -19.70564000070499       17.38089383358949       22.08167406600466
H          -21.00108962705092       16.18124931561010       21.98095364731833
C          -23.55400959196652       16.70435323704749       20.77750877447674
H          -24.07723355952272       16.56258616129047       19.83895207508717
C          -23.65381411347929       15.77267999775974       21.71940716318160
H          -23.19636538331282       15.88454312885953       22.68684796395085
H          -24.22551662924461       14.87317830115815       21.56279042368377
C          -26.96922485289435       19.67103607359030       18.04295377100898
H          -27.32546918314517       19.25000346327505       18.98322250938288
H          -26.50935270835867       18.86899014727644       17.46515109525555
H          -27.82611386364884       20.04432157738217       17.48794648818902
C          -27.09648249059151       22.80669488681717       17.19071043247639
H          -27.49333436430014       23.62615330102946       17.79001978552080
H          -27.91772337726882       22.14389344582352       16.93002897005839
H          -26.68820060563111       23.22609402511575       16.27103900848981
O          -21.21006376996525       21.43429984822006       18.14890355232116
H          -20.30016340204556       21.45834909468525       18.46682490178740
H          -21.46799136666312       20.50695928007006       18.09554974582695
C          -22.91272886172849       24.23176516956254       22.56062631160973
H          -23.15588857875555       24.34976226914013       23.61211044622122
H          -23.48450727564466       24.93346173960129       21.96241454730498
H          -21.85275116364632       24.37508833227596       22.38153313504832
S          -23.40668493073136       22.55872899719232       22.01650188436277
H          -22.55049675769395       21.91550222390062       22.81777523605561
