72
 energy: -105.868722395903 gnorm: 0.280458584837 xtb: 6.7.1 (edcfbbe)
Fe         -22.27600000000000       22.02000000000000       20.13400000000000
N          -22.27800000000000       23.95900000000000       19.39200000000000
N          -20.36000000000000       22.35300000000000       20.77300000000000
N          -22.20300000000000       20.04500000000000       20.54500000000000
N          -24.08500000000000       21.69700000000000       19.11000000000000
C          -23.32400000000000       24.60600000000000       18.76000000000000
C          -22.94900000000000       25.97300000000000       18.51000000000000
C          -21.71400000000000       26.15600000000000       19.00500000000000
C          -21.27100000000000       24.89800000000000       19.57500000000000
C          -19.61000000000000       23.49700000000000       20.77300000000000
C          -18.38800000000000       23.27300000000000       21.48300000000000
C          -18.41200000000000       22.00800000000000       21.92100000000000
C          -19.66300000000000       21.40400000000000       21.46200000000000
C          -21.22000000000000       19.49000000000000       21.38700000000000
C          -21.60600000000000       18.14800000000000       21.75000000000000
C          -22.81000000000000       17.95500000000000       21.15800000000000
C          -23.17100000000000       19.12700000000000       20.36700000000000
C          -24.74200000000000       20.47300000000000       19.05800000000000
C          -25.97500000000000       20.61600000000000       18.34300000000000
C          -26.06800000000000       22.09500000000000       17.93000000000000
C          -24.82999999999999       22.68300000000000       18.45100000000000
C          -24.49500000000000       24.01300000000000       18.37200000000000
H          -25.25100000000000       24.67400000000000       17.95000000000000
C          -20.01700000000000       24.66200000000000       20.17100000000000
H          -19.30100000000000       25.48300000000000       20.15300000000000
C          -20.07200000000000       20.12100000000000       21.73800000000000
H          -19.37300000000000       19.52500000000000       22.32300000000000
C          -24.30300000000000       19.29800000000000       19.59500000000000
H          -24.90300000000000       18.41000000000000       19.39600000000000
C          -20.86600000000000       27.44900000000000       18.96600000000000
H          -21.53000000000000       28.32300000000000       18.79400000000000
H          -20.12800000000000       27.38900000000000       18.13800000000000
H          -20.34000000000000       27.58200000000000       19.93500000000000
C          -23.78900000000000       27.04200000000000       17.80700000000000
H          -24.26400000000000       27.69900000000000       18.56600000000000
H          -24.58400000000000       26.55700000000000       17.20200000000000
H          -23.13800000000000       27.66000000000000       17.15300000000000
C          -17.27200000000000       24.34100000000000       21.72000000000000
H          -17.36700000000000       24.75600000000000       22.74600000000000
H          -17.38200000000000       25.16800000000000       20.98600000000000
H          -16.27200000000000       23.86900000000000       21.61400000000000
C          -17.33100000000000       21.22700000000000       22.74500000000000
H          -17.21000000000000       20.14200000000000       22.60900000000000
C          -16.52800000000000       21.85200000000000       23.63300000000000
H          -16.61600000000000       22.93600000000000       23.79900000000000
H          -15.77600000000000       21.28500000000000       24.20100000000000
C          -20.84900000000000       17.15500000000000       22.68600000000000
H          -21.19600000000000       17.29300000000000       23.73200000000000
H          -19.75700000000000       17.35400000000000       22.64000000000000
H          -21.05800000000000       16.11000000000000       22.37200000000000
C          -23.67600000000000       16.69900000000000       21.12800000000000
H          -24.24900000000000       16.52200000000000       20.20799999999999
C          -23.84100000000000       15.77900000000000       22.05900000000000
H          -23.31400000000000       15.85800000000000       23.02100000000000
H          -24.50800000000000       14.92200000000000       21.88500000000000
C          -26.98000000000000       19.51500000000000       18.04300000000000
H          -27.35100000000000       19.08100000000000       18.99600000000000
H          -26.49200000000000       18.71300000000000       17.44800000000000
H          -27.84000000000000       19.93500000000000       17.48000000000000
C          -27.24100000000000       22.76800000000000       17.17300000000000
H          -28.06200000000000       22.99300000000000       17.88600000000000
H          -27.62400000000000       22.08200000000000       16.38800000000000
H          -26.89500000000000       23.71700000000000       16.71200000000000
O          -20.96400000000000       21.85200000000000       17.63300000000000
H          -20.95700000000000       22.74100000000000       17.27800000000000
H          -20.62300000000000       21.12800000000000       17.24500000000000
C          -23.74500000000000       24.09600000000000       22.33600000000000
H          -23.75400000000000       24.49400000000000       23.37300000000000
H          -24.78300000000000       24.14000000000000       21.94200000000000
H          -23.09500000000000       24.75500000000000       21.72100000000000
S          -23.14500000000000       22.43300000000000       22.29100000000000
H          -21.89300000000000       22.75400000000000       22.58500000000000
72
 energy: -105.936675195185 gnorm: 0.121435066940 xtb: 6.7.1 (edcfbbe)
Fe         -22.22959016951759       22.00387517623563       20.01441388147092
N          -22.27715433515981       23.96987472234042       19.41131156774955
N          -20.36300880344076       22.34463431235818       20.78944579978871
N          -22.19829578199147       20.05590271934618       20.56769532125344
N          -24.08206487533058       21.70284393215105       19.11589945430212
C          -23.31473967092879       24.60098124070151       18.76420403771034
C          -22.95075481362255       25.97940022461988       18.51053937057416
C          -21.69924379868632       26.16189788902634       19.00530357440651
C          -21.27187134292184       24.89649059879759       19.56968482403551
C          -19.61487278053493       23.49021336742988       20.77857258903682
C          -18.37438143341540       23.27722389192700       21.49062100976783
C          -18.38820156941972       21.98774272034759       21.93149531151083
C          -19.64898353567619       21.40658453741478       21.47281150927554
C          -21.23028767749424       19.48509802593732       21.38311560209525
C          -21.62257057922325       18.13905314275608       21.75161062565369
C          -22.82373997950848       17.92376255850185       21.13611201452433
C          -23.16460477605407       19.12757262728474       20.37656318582849
C          -24.74474143059015       20.50231106702687       19.03948586603472
C          -25.98119350835386       20.66189205666339       18.32118878258206
C          -26.06544607641038       22.04739242306710       17.95142858588280
C          -24.84894868370696       22.65330030938780       18.47489215319751
C          -24.50028362555791       23.99741383329866       18.37590587673590
H          -25.24521289294909       24.65797274804622       17.94077300218216
C          -20.02956495873433       24.66235204186527       20.16784512209021
H          -19.32071090962425       25.48398765079567       20.15693762451643
C          -20.06212593546751       20.11475803558661       21.74548363871471
H          -19.37030227795950       19.52141059655930       22.33019019174074
C          -24.30112557530153       19.30838210305834       19.59473822637425
H          -24.90835275218303       18.42726203395956       19.40917696161138
C          -20.87475926360065       27.43436367819682       18.96928717702746
H          -21.52016669886272       28.30334206206420       18.79919198411691
H          -20.13923049809416       27.38740332691845       18.15655003714199
H          -20.34718514678793       27.57737927492119       19.91827454666548
C          -23.78583574072252       27.02898391853246       17.81513281315008
H          -24.25909696208228       27.68770789994661       18.55470358466934
H          -24.57151340580617       26.56720527332197       17.20954711721981
H          -23.15339722546599       27.64455687629765       17.16491539544228
C          -17.29075704094140       24.32728473697778       21.71383682336547
H          -17.37278153900342       24.74910655700345       22.72392760660425
H          -17.38182897360403       25.14872781243482       20.99575239587087
H          -16.29775861307423       23.87391196793001       21.61273842299910
C          -17.34418284236981       21.25411184135244       22.73655952203579
H          -17.23801105427138       20.17752748024241       22.59333613889801
C          -16.54173142868962       21.85265920012562       23.61726671752724
H          -16.61351937468625       22.91609050747641       23.80640894288576
H          -15.79793713008454       21.29483021807980       24.18212958514548
C          -20.86375434758332       17.17875070992340       22.66546852110327
H          -21.19313981519088       17.29871528050502       23.70607465104126
H          -19.78239594300340       17.35717110551788       22.63255070023045
H          -21.05636150202142       16.14074181067894       22.36825500564300
C          -23.66917186709592       16.70448832961848       21.11709348681488
H          -24.23848261664756       16.54506842540711       20.20292876620184
C          -23.82963293949313       15.78610623584238       22.06058182360102
H          -23.32469631925682       15.85504363013190       23.01683733310405
H          -24.48880068105906       14.93744401655038       21.89797603536874
C          -26.96527786061278       19.54916153684831       18.04356516045508
H          -27.33744519769881       19.10044261050167       18.97696220869395
H          -26.49915632746275       18.74144051496080       17.45905656649644
H          -27.82630279448041       19.93000716235219       17.48588345003417
C          -27.20401626680748       22.73871097057081       17.19949089246561
H          -28.03540860942117       22.97967374189998       17.87879330215880
H          -27.60511749898647       22.09080361611891       16.40938981193200
H          -26.88670586872886       23.68118686290798       16.73133521998057
O          -20.99442407048866       21.86582512031408       17.68316406119405
H          -20.96252682672228       22.73626024927352       17.29125321128016
H          -20.62310958739992       21.11824726965889       17.24872548310030
C          -23.74667080329486       24.11341579865119       22.33543187166043
H          -23.75675804598896       24.48591038235522       23.36753847203308
H          -24.76870586071390       24.13686968528728       21.94295024633568
H          -23.10907653005671       24.75788270829038       21.72216438306988
S          -23.13522118478275       22.43063954931851       22.26055761232224
H          -21.89057314709083       22.75121345820193       22.60896720226695
72
 energy: -105.958996243358 gnorm: 0.050129155569 xtb: 6.7.1 (edcfbbe)
Fe         -22.20380396807372       22.00575882646280       19.94923543604486
N          -22.26868726375811       23.96157875596839       19.40379758685027
N          -20.35986641230332       22.32701054170617       20.78826960666199
N          -22.17915670175343       20.06196289380499       20.56225312954643
N          -24.05961269762522       21.70425438000627       19.10562621234083
C          -23.30519943402546       24.58723397870501       18.76773934839912
C          -22.95313644996672       25.97424636181214       18.51310670336483
C          -21.69173861184088       26.15662276365033       19.00692907244399
C          -21.27497011004610       24.88446791596694       19.56304403999450
C          -19.61999834741994       23.47561124407503       20.76991855475465
C          -18.37497878386746       23.28076486939900       21.49282831902757
C          -18.37930903402262       21.97647474915806       21.93824416508299
C          -19.63703954066151       21.40204781126491       21.47438341026898
C          -21.23891923434143       19.48860886309393       21.37373269111252
C          -21.63614018516384       18.14229268567226       21.74648153123322
C          -22.83410025243758       17.90950710416994       21.11211230589852
C          -23.15042815424895       19.13197484335883       20.36829450755506
C          -24.72961434033965       20.52481704173436       19.02545662713685
C          -25.97734116160175       20.70539830378430       18.30767195630444
C          -26.05592172128272       22.00598081997939       17.97493577539396
C          -24.84586626378735       22.63128590464403       18.48919752930384
C          -24.49875183362390       23.98118764388704       18.37972940873777
H          -25.23413027287294       24.63768769028174       17.93021453020744
C          -20.04337501433184       24.65653651957468       20.16609049611775
H          -19.34503953571976       25.48335589799751       20.16982695428349
C          -20.05521195206991       20.10778950764881       21.75354107580920
H          -19.37160267538352       19.51380231947160       22.34082146650767
C          -24.29299601664676       19.32323042153411       19.59376168132464
H          -24.91789619208762       18.45406194836380       19.43075246895328
C          -20.88444204446439       27.41341121302065       18.97505406275754
H          -21.52088424598307       28.27833630236985       18.80562754460636
H          -20.14676856364468       27.37926434403431       18.17234842332715
H          -20.35410888225606       27.56547201493803       19.91199084102086
C          -23.78329461235041       27.01155127338633       17.82663722049919
H          -24.25663394919978       27.67212710939800       18.55433811976737
H          -24.56337464549610       26.56399169341162       17.21969715934156
H          -23.16177804776230       27.62706436391072       17.17832864403583
C          -17.31517516424902       24.31155968230338       21.70551414040665
H          -17.38899733430994       24.74291232285984       22.70519390328981
H          -17.39339616949016       25.12692801013957       20.99228477246715
H          -16.32486853714217       23.86778930651404       21.61201598547548
C          -17.36940814833886       21.28367349745666       22.71680081848800
H          -17.28103232013645       20.21191268543656       22.56705705840854
C          -16.55782323412576       21.85697050908438       23.59885994741555
H          -16.61123172834186       22.90658759008351       23.81799975600250
H          -15.82173108522046       21.29862718323957       24.15652567605526
C          -20.88182854378305       17.20550566478182       22.63880845700428
H          -21.19897452333721       17.31665530639791       23.67756322720513
H          -19.80773693503837       17.37732974403007       22.60849900357154
H          -21.06528053632985       16.17088539963756       22.35094357624094
C          -23.66103694060097       16.72091672640876       21.10173186780300
H          -24.22984765408827       16.57202439032825       20.19184851681285
C          -23.81188477945810       15.80370090723179       22.05573204485213
H          -23.32511016837962       15.86378878234736       23.01080334597403
H          -24.46470854106721       14.95837552998634       21.90502885835905
C          -26.94774912828714       19.58846305848584       18.04252321803946
H          -27.31157048078120       19.13926813156952       18.97010407008379
H          -26.48647720416342       18.78252829880787       17.46568153991643
H          -27.81161030165277       19.94422627152004       17.48795146933061
C          -27.16679223141481       22.70673609636852       17.23055324548118
H          -27.99904456393436       22.95756515385407       17.89511507491118
H          -27.57297528583976       22.07735521718365       16.43775257123008
H          -26.84698171475343       23.63940158557465       16.76347533007972
O          -21.05036980579165       21.86329493862040       17.76073476394341
H          -20.97354680528106       22.71603720930302       17.32635988521379
H          -20.64265315882228       21.13152780514291       17.28621876866510
C          -23.75231241386953       24.13512659415995       22.33279352850743
H          -23.75731658765198       24.47626177390966       23.36470972317910
H          -24.76367538306938       24.13497316111735       21.94193834447067
H          -23.12095850023585       24.76694577643370       21.72040269795980
S          -23.13932914176141       22.42892502426398       22.24758053691964
H          -21.89544779679431       22.73644974377205       22.63087567022074
72
 energy: -105.966287816133 gnorm: 0.022039382547 xtb: 6.7.1 (edcfbbe)
Fe         -22.17897244779880       21.99760648387515       19.89823919608732
N          -22.26663814760142       23.95127508363750       19.39803036767901
N          -20.35669446599837       22.31273799236130       20.76767039501184
N          -22.16015856640673       20.06161393357538       20.53597879821381
N          -24.03674170251158       21.70295589174055       19.09174739429536
C          -23.29904436065256       24.57954333553666       18.76665890470793
C          -22.95242930744438       25.96517618072873       18.51723420582752
C          -21.69264142357115       26.14647284327832       19.01049292439776
C          -21.27646791058537       24.87399370258915       19.55932253905889
C          -19.62925283619932       23.46690545124539       20.76151441753878
C          -18.39143480163548       23.28245986160049       21.48808263199357
C          -18.39246683855504       21.98076446996369       21.93507350646455
C          -19.63671302720778       21.39521512934406       21.46422680955952
C          -21.23265725646510       19.49216832161704       21.35675418554296
C          -21.63716572567908       18.15308978151852       21.73085505010210
C          -22.83012674119684       17.91845502329832       21.09244885202015
C          -23.13483577252356       19.13637488790673       20.34780210893129
C          -24.70366153497913       20.52298226601101       19.01780862911583
C          -25.95833152302446       20.69811725371154       18.30971371687775
C          -26.04123289756676       22.01833299848836       17.98741479174824
C          -24.82583200568448       22.63564554539862       18.49193983279793
C          -24.48987881351356       23.97905316239877       18.37757059282180
H          -25.22299104819152       24.62830682229897       17.91753839337307
C          -20.05112919653498       24.65039558526638       20.16735723341265
H          -19.36454106530264       25.48596469679668       20.19359060233650
C          -20.05026888884613       20.10301812897522       21.75073103539927
H          -19.37721721549656       19.51185845814891       22.35484161162493
C          -24.27923952840987       19.32746777217385       19.58699380887750
H          -24.92946355044877       18.47094346521295       19.45635802245248
C          -20.88607107796121       27.40001813308001       18.98407104228378
H          -21.52742632710039       28.26128166509078       18.81444605987804
H          -20.14578906342987       27.36701364216206       18.18306048966396
H          -20.35739179875437       27.55004461453743       19.92273368368113
C          -23.78694715819420       26.99801555925996       17.83580178611185
H          -24.26171683157996       27.65558296999777       18.56555444101993
H          -24.56594909237369       26.54863683543009       17.22791905467863
H          -23.16612778209578       27.61463844655996       17.18783038956648
C          -17.33391408598650       24.30969064040439       21.69531031157370
H          -17.41298060155817       24.74953136795226       22.69118728190636
H          -17.40855015590248       25.11579081249588       20.97055760281453
H          -16.34645160414125       23.85687083533013       21.61105673491888
C          -17.38669118817944       21.29264766738891       22.70881560351751
H          -17.31207444039629       20.22254037115453       22.54912470276807
C          -16.56525999092670       21.85637864417003       23.59000535742493
H          -16.61354849150478       22.90348188937216       23.82988277123791
H          -15.83067783172826       21.28666842950422       24.13422938179556
C          -20.88802165220994       17.22270857687075       22.61974685801797
H          -21.20603960123747       17.33984745315498       23.65726681344162
H          -19.81605126049784       17.40189925840231       22.57935873926513
H          -21.07644289419870       16.19097405876264       22.32686618462553
C          -23.65630590274974       16.73366877880220       21.08337709931801
H          -24.23080477408518       16.58827634410300       20.17570185322711
C          -23.79626318501209       15.82196573653400       22.04409064647776
H          -23.31328148774872       15.89088792877578       23.00144132791624
H          -24.44438829596730       14.97196999691386       21.90427943342465
C          -26.93450702071457       19.59897421557329       18.04207830303445
H          -27.29090343638510       19.16366102592839       18.97626454520311
H          -26.46791247885003       18.80211590012708       17.46175887003802
H          -27.79492266303441       19.96635215164747       17.48986638930437
C          -27.14610712155615       22.70419057125228       17.24834853896536
H          -27.96972535657035       22.94801661828351       17.92201958177406
H          -27.54051273982568       22.06113614734535       16.46285959481521
H          -26.80637555782725       23.62768896352599       16.78473285433908
O          -21.13669655690951       21.84511269180934       17.84392873882766
H          -20.99896935527222       22.69490472166605       17.40882654339165
H          -20.68128353402689       21.13209487248219       17.38000326383087
C          -23.75485293164577       24.14377761870019       22.32263775881513
H          -23.76125953596678       24.46251391773930       23.36214742298591
H          -24.76601928716151       24.13778237974953       21.93175782490336
H          -23.12806025100511       24.78763475381705       21.71810005963447
S          -23.13787103268304       22.43230717244345       22.21223836888067
H          -21.90562596501931       22.71981109300218       22.66472513243246
72
 energy: -105.969672934230 gnorm: 0.032848368417 xtb: 6.7.1 (edcfbbe)
Fe         -22.20695916604031       22.02189811340333       19.95336178481536
N          -22.26683721800023       23.93550028329567       19.39538126707332
N          -20.36316973316593       22.29635534487039       20.74376429867143
N          -22.14147307034077       20.07036642095217       20.50723384719650
N          -23.99964508335091       21.70514325387386       19.08064467907949
C          -23.29034839324101       24.56791066102214       18.76047647441729
C          -22.95089913677054       25.95265304159661       18.51997480866502
C          -21.69365295290946       26.13284508134987       19.01421634417725
C          -21.27904886575181       24.85954335547815       19.55423047664226
C          -19.64256255390740       23.45302092729931       20.74642128816685
C          -18.41336270552796       23.28222251340269       21.47862097076471
C          -18.40935432622560       21.98370497366939       21.92700564422039
C          -19.63967446788374       21.38706106540393       21.44696589608678
C          -21.22297227719283       19.49655948957031       21.32904930087577
C          -21.63557151882340       18.16588480948464       21.70628142988958
C          -22.82272589272637       17.93105151768338       21.06285944255598
C          -23.11384217224886       19.14475237310189       20.31820260531542
C          -24.66793873351726       20.52763025787435       19.00709991434093
C          -25.92946282846015       20.69995773171347       18.31483805681569
C          -26.01242112881081       22.02367365490436       17.99674711279763
C          -24.79438079605491       22.63509311738403       18.48990834933291
C          -24.47741808213510       23.97365062020951       18.36775339644497
H          -25.21166683046583       24.61394194805662       17.90135462171416
C          -20.06090452757830       24.64175352695532       20.16825964856605
H          -19.38741007803312       25.48603083067006       20.22167141307842
C          -20.04464409251527       20.09758085503428       21.74304148275893
H          -19.38560379228635       19.51169251073748       22.36874962497418
C          -24.26325098480377       19.33627110999115       19.57691579159556
H          -24.93939090407518       18.49554658073609       19.47818343167268
C          -20.88696986148102       27.38406743688181       18.99645117371969
H          -21.53033784927353       28.24340850088580       18.82605300534679
H          -20.14220039229288       27.35223813417086       18.19931495943739
H          -20.36268930736795       27.53063825639959       19.93824929111180
C          -23.79266379248693       26.98118320216403       17.84601830569033
H          -24.27037314630910       27.63235876696973       18.57952838005133
H          -24.57004978615409       26.52874015599849       17.23787027551750
H          -23.17584130317803       27.60254285980903       17.19888269560947
C          -17.35783673365748       24.30881796181644       21.68091434930311
H          -17.44476507077599       24.76432232590039       22.66917503011038
H          -17.42347978721916       25.10163076944403       20.94002608561530
H          -16.37311590616276       23.84679020481001       21.61307949236418
C          -17.40496023657629       21.29795512361813       22.70008381935487
H          -17.34161894188398       20.23001318186764       22.52959475548100
C          -16.57678754712457       21.85208677488859       23.58085222844444
H          -16.61362973978018       22.89695375039459       23.83373853891516
H          -15.84153914013855       21.26956644728551       24.10819981451393
C          -20.88990540758186       17.24116245915561       22.59566827673447
H          -21.20658488741855       17.36481726353171       23.63226561626088
H          -19.81932404550108       17.42322686333186       22.54772064305397
H          -21.08328194818855       16.21102296169922       22.30322523703273
C          -23.65226474563355       16.75053619438311       21.05862696654814
H          -24.22856256649251       16.60360094439118       20.15223687508621
C          -23.77936646791860       15.84864632103370       22.02971892449639
H          -23.29134147186462       15.92853841977460       22.98414810786495
H          -24.41917767051003       14.99024087669923       21.90454906336717
C          -26.91261733810843       19.61706053548919       18.04541838758972
H          -27.26890637078615       19.18983094836276       18.98111603055451
H          -26.44980307415941       18.82265382659510       17.46225945297095
H          -27.76961901353220       19.99517306496758       17.49517379434045
C          -27.11693483337370       22.70168830863468       17.26958776391014
H          -27.93425971367552       22.94466603442111       17.94830026009566
H          -27.50988825865315       22.05115843301068       16.49098971509402
H          -26.77000440273675       23.61853491519567       16.80456919827661
O          -21.24823296127614       21.79126606901719       17.88433272706170
H          -21.00646980808102       22.65239035482298       17.49513554743652
H          -20.68421367479092       21.11873357212838       17.44791396730779
C          -23.76449817891915       24.15866969698602       22.32324795526317
H          -23.76839806345260       24.47753534591371       23.35939936945989
H          -24.77406121393682       24.14574233024844       21.92861438239672
H          -23.13576888764944       24.79600581724824       21.71287148893816
S          -23.16448954034513       22.43394169025214       22.24680324602330
H          -21.93157460071621       22.69854692967814       22.69886139954581
72
 energy: -105.970733118836 gnorm: 0.019592839524 xtb: 6.7.1 (edcfbbe)
Fe         -22.20266884750732       22.01640309282029       19.94416708050910
N          -22.27120969345702       23.93062962331719       19.39933181596781
N          -20.37275952509256       22.29407992346392       20.73985481945210
N          -22.13537367737464       20.07287097087083       20.49340815828482
N          -23.98955439982557       21.71247862544069       19.09329696774493
C          -23.29051121115669       24.56678102860604       18.76073320308853
C          -22.95115078452937       25.94894472291977       18.52180353745850
C          -21.69726682270734       26.12934587013877       19.01975688915958
C          -21.28488545497627       24.85805819896106       19.56211665376859
C          -19.65300642471428       23.45074736020365       20.74674701608146
C          -18.42670169381878       23.28321497388120       21.47678340245465
C          -18.42008091874402       21.98735257619309       21.92479959831306
C          -19.64706897189823       21.38673824166616       21.44456372052208
C          -21.21726213054476       19.49890111407298       21.31697952026844
C          -21.62824263185857       18.16923780943328       21.68952987815596
C          -22.81379684460200       17.93668722101285       21.04551108969153
C          -23.10658736229568       19.14823095750940       20.30487178144656
C          -24.65580755784091       20.53379761112387       19.01200825219722
C          -25.91332345958054       20.70539621865916       18.32048151374113