78
 energy: -115.968522894917 gnorm: 0.260199632849 xtb: 6.7.1 (edcfbbe)
Fe         -11.61300000000000        2.33300000000000        1.24300000000000
N          -12.20000000000000        0.60300000000000        2.25400000000000
N           -9.87700000000000        2.36300000000000        2.32600000000000
N          -10.96400000000000        3.94700000000000        0.16900000000000
N          -13.27100000000000        2.14900000000000        0.07000000000000
C          -13.32600000000000       -0.13200000000000        1.99200000000000
C          -13.25000000000000       -1.36900000000000        2.75200000000000
C          -12.09100000000000       -1.39000000000000        3.42000000000000
C          -11.39400000000000       -0.13700000000000        3.09700000000000
C           -9.50600000000000        1.42100000000000        3.27900000000000
C           -8.36400000000000        1.92300000000000        3.95300000000000
C           -8.04300000000000        3.12000000000000        3.41100000000000
C           -8.96000000000000        3.37700000000000        2.37000000000000
C           -9.83000000000000        4.64800000000000        0.44700000000000
C           -9.67600000000000        5.67700000000000       -0.60900000000000
C          -10.70100000000000        5.52400000000000       -1.49300000000000
C          -11.55300000000000        4.46300000000000       -0.95200000000000
C          -13.55100000000000        3.02600000000000       -0.96300000000000
C          -14.89800000000000        2.74500000000000       -1.43000000000000
C          -15.38100000000000        1.61600000000000       -0.58700000000000
C          -14.31700000000000        1.30900000000000        0.29100000000000
C          -14.38100000000000        0.27300000000000        1.21100000000000
H          -15.32900000000000       -0.25300000000000        1.32100000000000
C          -10.13100000000000        0.23300000000000        3.54100000000000
H           -9.58900000000000       -0.48800000000000        4.15300000000000
C           -8.98900000000000        4.47200000000000        1.53400000000000
H           -8.28400000000000        5.27500000000000        1.74800000000000
C          -12.72800000000000        3.97100000000000       -1.48300000000000
H          -13.03300000000000        4.39400000000000       -2.44000000000000
C          -11.55100000000000       -2.49400000000000        4.38100000000000
H          -12.29200000000000       -3.31900000000000        4.45200000000000
H          -11.39200000000000       -2.06500000000000        5.39300000000000
H          -10.59600000000000       -2.90100000000000        3.98600000000000
C          -14.39000000000000       -2.38600000000000        2.70300000000000
H          -14.77700000000000       -2.46000000000000        1.66400000000000
H          -15.21400000000000       -2.05800000000000        3.37200000000000
H          -14.01700000000000       -3.38300000000000        3.02000000000000
C           -7.66900000000000        1.18700000000000        5.11100000000000
H           -7.79600000000000        0.09100000000000        4.98300000000000
H           -8.12500000000000        1.49200000000000        6.07700000000000
H           -6.58400000000000        1.42700000000000        5.11100000000000
C           -6.87700000000000        4.06500000000000        3.76600000000000
H           -6.54300000000000        4.81700000000000        3.03600000000000
C           -6.23600000000000        4.01200000000000        4.95100000000000
H           -6.53300000000000        3.27800000000000        5.71400000000000
H           -5.40800000000000        4.70300000000000        5.16900000000000
C           -8.43300000000000        6.58700000000000       -0.63000000000000
H           -7.53300000000000        5.99100000000000       -0.36900000000000
H           -8.55300000000000        7.40400000000000        0.11400000000000
H           -8.29900000000000        7.01600000000000       -1.64600000000000
C          -10.97500000000000        6.30300000000000       -2.79400000000000
H          -11.40900000000000        5.80200000000000       -3.67200000000000
C          -10.68800000000000        7.59700000000000       -2.87000000000000
H          -10.25300000000000        8.12400000000000       -2.00800000000000
H          -10.88100000000000        8.15800000000000       -3.79600000000000
C          -15.76700000000000        3.43100000000000       -2.49600000000000
H          -15.72900000000000        2.84400000000000       -3.43900000000000
H          -15.38200000000000        4.45400000000000       -2.69300000000000
H          -16.82000000000000        3.48300000000000       -2.14600000000000
C          -16.81000000000000        0.98900000000000       -0.68400000000000
H          -17.18600000000000        1.08300000000000       -1.72500000000000
H          -17.50200000000000        1.52500000000000       -0.00100000000000
H          -16.76700000000000       -0.08700000000000       -0.41300000000000
O          -10.42700000000000        1.16500000000000       -0.15600000000000
H          -10.16500000000000        1.77100000000000       -0.84900000000000
H          -10.22100000000000        0.30200000000000       -0.10600000000000
C          -15.05800000000000        6.06500000000000        3.73000000000000
H          -14.59400000000000        7.02400000000000        4.04500000000000
H          -15.70900000000000        5.69300000000000        4.55000000000000
H          -15.66200000000000        6.24100000000000        2.81500000000000
N          -13.07000000000000        4.64600000000000        4.37700000000000
H          -13.02900000000000        4.97400000000000        5.32100000000000
C          -13.98600000000000        5.06300000000000        3.44300000000000
C          -12.26500000000000        3.75200000000000        3.82500000000000
H          -11.43600000000000        3.26600000000000        4.33700000000000
N          -12.64900000000000        3.56700000000000        2.57000000000000
C          -13.70600000000000        4.38200000000000        2.30700000000000
H          -14.16800000000000        4.40500000000000        1.32800000000000
78
 energy: -116.023201052734 gnorm: 0.106579307586 xtb: 6.7.1 (edcfbbe)
Fe         -11.61170936009758        2.32189814922912        1.24546407373090
N          -12.17623651835329        0.59253908464372        2.23165423704811
N           -9.89217117395189        2.37175199800241        2.33782520291898
N          -10.97206576289871        3.93953931678197        0.17406442886351
N          -13.26546448967810        2.15890803618099        0.07889199579551
C          -13.31979793292133       -0.11874850685988        2.01047186214055
C          -13.26391612405188       -1.36735846146711        2.75631100475193
C          -12.08626782218282       -1.39277603281192        3.42319837483057
C          -11.39681930041374       -0.14554652628153        3.08211725147090
C           -9.50703807285705        1.43976641909910        3.27673350841083
C           -8.34220309427413        1.92125568859366        3.96214140730698
C           -8.01741877037134        3.13587825995706        3.41933908349550
C           -8.97955167812499        3.38670194334927        2.38088619133385
C           -9.85049377629367        4.66101480417959        0.44086295435557
C           -9.67003179411668        5.67208167645168       -0.60900114780035
C          -10.70172737645582        5.52137726524666       -1.49631656458614
C          -11.53676833375037        4.43986499530654       -0.96464220981754
C          -13.57549709257543        3.00334682141159       -0.95859851204693
C          -14.92260603279176        2.71567581307726       -1.41431258419912
C          -15.39086844385276        1.65093131021089       -0.61093693591093
C          -14.32557666012468        1.33474191907760        0.28928808441638
C          -14.37448502538596        0.28921240298107        1.21274028695380
H          -15.30887432149927       -0.25631281292267        1.29878931360900
C          -10.14368042997939        0.23568801602296        3.53755871089907
H           -9.61272498352673       -0.47557183293175        4.16313569026876
C           -9.00211406560081        4.48032108941740        1.52734159950439
H           -8.27624455841951        5.26269240143844        1.72294756608408
C          -12.73251617849438        3.96728735965809       -1.49114954378253
H          -13.04848262140046        4.41307428114772       -2.42916999860162
C          -11.55854075056726       -2.47252560192418        4.36143141009298
H          -12.27921368568995       -3.29372473090115        4.44482487512722
H          -11.39281761427475       -2.06514851554876        5.36549993072750
H          -10.61315507185556       -2.88501781457294        3.99025767791829
C          -14.37889065842934       -2.38145995345312        2.70508892662604
H          -14.76801905413253       -2.46137294549288        1.68401177321551
H          -15.19910699339671       -2.06899185968889        3.36258200932776
H          -14.02625747592092       -3.36868931254888        3.01907154603888
C           -7.67067510036969        1.18569286522814        5.09851358684683
H           -7.79562632116980        0.10476636234266        4.98599299763602
H           -8.11179746421763        1.48472457136461        6.05839475406629
H           -6.60009441066154        1.40806276345767        5.10380796908219
C           -6.88930658749328        4.04430707980242        3.77555335127146
H           -6.57562333095620        4.78495409364097        3.03977191725148
C           -6.24472733901627        4.01227937837824        4.94249489473757
H           -6.52654867189415        3.31523939978282        5.71834168649202
H           -5.42520154258404        4.69130899321326        5.15770593063845
C           -8.45226908887718        6.57398405897980       -0.63621559446148
H           -7.55541585761765        5.99986211433381       -0.37519863643148
H           -8.55631090022803        7.38669660553128        0.09475526753907
H           -8.30571439777453        7.00820609275423       -1.63035482548143
C          -10.96603649017905        6.29425040926072       -2.75440264041755
H          -11.39964715781109        5.78386955001421       -3.61669052598777
C          -10.68482406642718        7.58838414733929       -2.85856508885716
H          -10.26562502959934        8.13204661439122       -2.02165327286276
H          -10.87455608281231        8.14282376589028       -3.77463668328164
C          -15.74675740433773        3.41431778179471       -2.47643150162908
H          -15.72570169803711        2.85137107534311       -3.41965894741412
H          -15.38178960185500        4.42812130744207       -2.68043496135639
H          -16.79123985179838        3.48257142269673       -2.15083130041369
C          -16.77473259243196        1.00877880306436       -0.68990790458348
H          -17.17054211247596        1.08513878285739       -1.70783359349081
H          -17.47587582714981        1.51714038907822       -0.01468164099774
H          -16.75203747613180       -0.05357832439608       -0.41747436374140
O          -10.44370800103807        1.17533383097405       -0.16874798321110
H          -10.14986613736338        1.75880643232296       -0.86620092778095
H          -10.20279656135468        0.26880002890662       -0.12098530079614
C          -15.05485701723666        6.06694773067640        3.73457702079873
H          -14.60805718182161        7.01859332697448        4.04504380793411
H          -15.70716665807644        5.70675937338316        4.53852013970802
H          -15.65231402713257        6.23653430813389        2.83502719695353
N          -13.07955615585407        4.65566082799239        4.38125952208041
H          -13.03592805600474        4.98424712433763        5.33013544616039
C          -13.99163401088556        5.06671019665829        3.44589366546704
C          -12.27087947627587        3.74894720993307        3.81390142833556
H          -11.45199014919597        3.26705722789610        4.32064922951734
N          -12.62668654617420        3.55925458721344        2.55966933912302
C          -13.69326240344073        4.37129945226666        2.31182248532919
H          -14.15526811552712        4.39642409468554        1.34167057570925
78
 energy: -116.040735812499 gnorm: 0.032906640417 xtb: 6.7.1 (edcfbbe)
Fe         -11.61301347607986        2.31422221481774        1.24875408663575
N          -12.15971734490708        0.59282147030542        2.21206342417233
N           -9.91380628047526        2.38042654670489        2.35350359680765
N          -10.97801918027920        3.92461762487575        0.17752993187246
N          -13.25987734540482        2.17560480598449        0.08902984563032
C          -13.30960625608860       -0.10333147912723        2.01479087723178
C          -13.27494078869818       -1.35332398384660        2.75702690987271
C          -12.08207547035218       -1.38509264928891        3.41641672853636
C          -11.39723281700186       -0.14634666541216        3.06250055967815
C           -9.51650363375275        1.45732247890840        3.27625292661816
C           -8.33572002708042        1.91979363567640        3.96637508469696
C           -8.01220913492181        3.14721354143335        3.42747401107512
C           -9.00570915364986        3.39350913875667        2.39176809029307
C           -9.86616650489165        4.66148232273311        0.43732377975029
C           -9.67422115317981        5.66304808047440       -0.59606360939935
C          -10.70777058145114        5.51051531643703       -1.48965884584419
C          -11.52991612535456        4.41623005465583       -0.96789020221355
C          -13.58824699823782        2.99464740942279       -0.95144022211193
C          -14.93720335562991        2.69775842061159       -1.39900037713815
C          -15.39154423607687        1.68148758936984       -0.62777331145473
C          -14.32588034728236        1.35663249725187        0.29283941257603
C          -14.36165142700358        0.30460090110620        1.20631744948979
H          -15.28201574523949       -0.26241164658921        1.26830199961820
C          -10.15609712365404        0.24457488684912        3.53640970651657
H           -9.64052406990783       -0.45282262946656        4.18491945174979
C           -9.01285697304578        4.47873272702270        1.52255908053259
H           -8.26138633418885        5.23983909492961        1.69203112457781
C          -12.74038578162641        3.96858382824903       -1.49162606584889
H          -13.07085336094681        4.43897903389379       -2.40976297130919
C          -11.56409065121938       -2.44478036106522        4.33712286226901
H          -12.27652266847671       -3.26239648050331        4.42621442940552
H          -11.39367570952441       -2.04680494314564        5.33734717586521
H          -10.62193145715132       -2.85987333099363        3.97987590385843
C          -14.36888876682541       -2.36949083868240        2.71089767367818
H          -14.75675285594282       -2.45964929481870        1.69850301816769
H          -15.19212392332751       -2.07301979347123        3.36110133929002
H          -14.02023892391709       -3.34892513330228        3.02638981787594
C           -7.67014967402201        1.18227460821985        5.07826520499180
H           -7.80190994676085        0.10905722968823        4.97620540784248
H           -8.09933109845748        1.47869366063300        6.03732247546862
H           -6.60520111316490        1.39276284966058        5.09862759691939
C           -6.91599090803001        4.02317362235334        3.77767745679025
H           -6.61674849250311        4.74931043661032        3.02958223455915
C           -6.25910976160228        4.01573272024763        4.93548824726972
H           -6.52333086108681        3.35039867150804        5.73431220020358
H           -5.44057367485709        4.68685459443249        5.13631367544557
C           -8.47699754149816        6.55891749420294       -0.63910269252222
H           -7.57913742902937        5.99806901575053       -0.38047678194478
H           -8.57229116210664        7.37338240254500        0.08097371164224
H           -8.33211268320591        6.99124165689392       -1.62545305439050
C          -10.95782581977121        6.27497700473524       -2.70631240162407
H          -11.39814286238176        5.75207874375011       -3.55003921691286
C          -10.68332124110040        7.57082624555461       -2.84052823734798
H          -10.27730187843946        8.14112778352768       -2.02496294503882
H          -10.87043610538888        8.11255602401704       -3.75469793844631
C          -15.72697534502158        3.40064466387367       -2.46067588888050
H          -15.70774939091746        2.84765835810288       -3.40192965018469
H          -15.35907704581551        4.40519260592505       -2.65702901389626
H          -16.76832893836698        3.48054195126009       -2.14981439820284
C          -16.74025505979071        1.03184915009537       -0.69438290251641
H          -17.14742184000023        1.09649058574056       -1.70112771700082
H          -17.44462995867122        1.52332495965133       -0.01879107527460
H          -16.70943853234677       -0.02119417562518       -0.41820806624009
O          -10.49027384450834        1.16420493599477       -0.20251330793330
H          -10.11194755133837        1.72454881488527       -0.88706156853047
H          -10.17222459798534        0.26022753378585       -0.13531370333074
C          -15.05173143601697        6.06576801433828        3.73435339506693
H          -14.61400030195296        7.01291220803606        4.04453614991130
H          -15.70509931719753        5.71412956113189        4.53108942974222
H          -15.64677905791223        6.23319455195842        2.84389253389271
N          -13.08488650465192        4.66017442756947        4.38538026005082
H          -13.03911775370759        4.98971337650544        5.33612178123392
C          -13.99306382082027        5.06571358335617        3.44506052696961
C          -12.27353200728694        3.74587283851612        3.80875021496759
H          -11.46241336229624        3.26537307435723        4.31351183332034
N          -12.61163552496249        3.54618903534370        2.55846214399031
C          -13.67901391884336        4.36139907322816        2.31548628586649
H          -14.14311665338911        4.38926171688191        1.35158310105138
78
 energy: -116.046156843946 gnorm: 0.045949449561 xtb: 6.7.1 (edcfbbe)
Fe         -11.61317230698297        2.30658704961664        1.24401663932426
N          -12.15393978059860        0.59924552941124        2.19556038852220
N           -9.93173623161061        2.38139905112281        2.36218616687676
N          -10.98290547052011        3.91022144561445        0.18622841305529
N          -13.25968795633082        2.19341956674009        0.09928744635162
C          -13.30547644342966       -0.09092607646720        2.00879164095526
C          -13.27943172125911       -1.33652413743653        2.75184054367488
C          -12.08303190113668       -1.37037155488773        3.40450963428244
C          -11.39911921764528       -0.13875188244334        3.05051374792529
C           -9.53172980282404        1.46346915281220        3.28271836691585
C           -8.34737699815348        1.91648072201600        3.97077621442553
C           -8.02806382287882        3.14636910526642        3.43627332114225
C           -9.02570654471292        3.39295338070044        2.40063413764332
C           -9.87400303222104        4.65113043805170        0.44555820670721
C           -9.68168522361369        5.65053379286041       -0.57696437106192
C          -10.71532014047117        5.49923030162502       -1.46941124673201
C          -11.53084143847408        4.40343268267483       -0.95692940267542
C          -13.58613046177537        3.00477468175112       -0.94352030667214
C          -14.93122513387403        2.70772622482505       -1.39808869187893
C          -15.38962358828972        1.69461460609482       -0.62135435642856
C          -14.32289476092083        1.37096308106465        0.30261862802383
C          -14.35507240299025        0.31447768148211        1.19983516668608
H          -15.26345487952209       -0.27318739328796        1.23844030103811
C          -10.16928186071956        0.25310239217187        3.54488615045690
H           -9.67124397025619       -0.43180444265250        4.21911443812645
C           -9.01791358887046        4.46927766250482        1.52568962452622
H           -8.24309264448316        5.21318045427686        1.66796801278977
C          -12.74453577902012        3.97773228709671       -1.48395063915240
H          -13.08877518462420        4.47301274129201       -2.38470474892827
C          -11.56225319425106       -2.42278496756969        4.32039965956778
H          -12.27510148918727       -3.23896238521804        4.40905693585713
H          -11.39061888039918       -2.02049343048974        5.31845461344025
H          -10.61914210639248       -2.83349959088172        3.96144128266756
C          -14.36519229940471       -2.35736126702817        2.71631458488862
H          -14.75191021221973       -2.46060008055951        1.70482050168939
H          -15.19193006985796       -2.06748851745167        3.36501289644574
H          -14.00632888399511       -3.33038975060838        3.04054887624441
C           -7.66972703080115        1.16869840202724        5.06358920019569
H           -7.81365582969794        0.09722697759758        4.95924135917092
H           -8.08055662118416        1.46647238951014        6.03099924422540
H           -6.60183190498584        1.36729403697052        5.06868444658174
C           -6.93499156683547        4.01688672020250        3.77618935526331
H           -6.64386143745777        4.72876444897408        3.01213758796434
C           -6.26800647115018        4.03310502550639        4.93010989467894
H           -6.53497606805172        3.40520038814700        5.76213755155243
H           -5.44440822433994        4.70392008109840        5.10431487718024
C           -8.49457795526356        6.54917537508411       -0.63782768414033
H           -7.59213237822448        5.99456666928202       -0.38338825420427
H           -8.58986741840996        7.37009349234282        0.07404520157716
H           -8.36661192416289        6.97154323467945       -1.63056936703400
C          -10.96518272342558        6.25924258877989       -2.67259216705440
H          -11.41121332668718        5.72193270142514       -3.50236096406113
C          -10.68852466400771        7.55293954148519       -2.82568366016885
H          -10.29029169852782        8.14463012618766       -2.01980533960908
H          -10.87161715126613        8.07818315126968       -3.74805878527319
C          -15.70694095459088        3.40628349349494       -2.46394548877042
H          -15.67991161985077        2.84768332306954       -3.40004845548686
H          -15.32664879520202        4.40584412177225       -2.65023808520928
H          -16.74915938825880        3.48982617218513       -2.15859104692936
C          -16.72581865078512        1.03984620501306       -0.69092338188345
H          -17.13061822749999        1.10459663622202       -1.69805720524542
H          -17.42791998865308        1.52823897438160       -0.01267300132221
H          -16.67365716778595       -0.01013248868624       -0.41393259212804
O          -10.57265532302295        1.12526512215132       -0.27410714277824
H          -10.04604322835471        1.69282547331899       -0.88953534305630
H          -10.12196634178041        0.25714235488721       -0.13721640750363
C          -15.04634641160978        6.06124981646897        3.73033339367877
H          -14.61111234391027        7.00921754982652        4.04175554678640
H          -15.70235365951076        5.71313605385754        4.52663156322444
H          -15.64217164497454        6.22892536171497        2.84076504496832
N          -13.08348919747818        4.65649591184408        4.38801151590147
H          -13.03892117413614        4.98808013203259        5.33829705307807
C          -13.98803088151929        5.05975366947769        3.44227028205541
C          -12.27150477601914        3.73902335024681        3.81260483379937
H          -11.46506435366793        3.25583866174388        4.32079416414590
N          -12.60060780642413        3.53674060045329        2.56145329572354
C          -13.66792553435108        4.35224003229834        2.31631620777274
H          -14.13214871221776        4.38081556756559        1.35329997561326
78
 energy: -116.049105954022 gnorm: 0.024755286080 xtb: 6.7.1 (edcfbbe)
Fe         -11.61054470416902        2.29821429997855        1.23814020819041
N          -12.15028477494494        0.60890808503378        2.17680107118973
N           -9.94540797052714        2.37595381377012        2.36558401604326
N          -10.98639851746942        3.89161076978236        0.19802800166955
N          -13.25650843605532        2.21287791287874        0.11163891110726
C          -13.30195519523359       -0.07886130529783        1.99665213373231
C          -13.28290693955218       -1.31731230445151        2.74393419273731
C          -12.08653189904313       -1.35147182125058        3.39121805006293
C          -11.40193426357827       -0.12744657143868        3.03929186461479
C           -9.54798807591127        1.46554921014420        3.29268039305607
C           -8.36571147452258        1.91433356468155        3.97908051698060
C           -8.05154798062130        3.14320152789755        3.44807546129134
C           -9.04275664490102        3.38840957282777        2.40884960804082
C           -9.87826643376395        4.63461512378793        0.45751066986616
C           -9.69092449769038        5.63655065408023       -0.55340697091080
C          -10.72544709586844        5.48800364435896       -1.44184193886036
C          -11.53474488173782        4.39310787305769       -0.93813723220715
C          -13.57952882000317        3.02100651933965       -0.93166383539665
C          -14.91852817945547        2.72469138129132       -1.39649897868407
C          -15.38161725970786        1.70596574686382       -0.61303535642484
C          -14.31562764548628        1.38523147771690        0.31113705344543
C          -14.34835290116652        0.32218212668616        1.18821728630711
H          -15.24484387442988       -0.28391974260377        1.20433824713014
C          -10.18486257277445        0.26239381369889        3.55969885469207
H           -9.70948970967082       -0.40919422852992        4.26331191947512
C           -9.01835506514700        4.45467787801148        1.53015509429180
H           -8.22627688162126        5.18397045223821        1.64743621752731
C          -12.75005494860522        3.99268417469196       -1.46973757222700
H          -13.10494842423600        4.51113698225078       -2.35355809800735
C          -11.55811355506126       -2.39937173986898        4.30572616399697
H          -12.27021539681837       -3.21672047563377        4.39411927603731
H          -11.38573291096191       -1.98977109042473        5.30164950382607
H          -10.61295348742743       -2.80211466515288        3.94044445350822
C          -14.36307489252937       -2.34375586139091        2.72184056479109
H          -14.74833016380015       -2.46466088349467        1.71011980833140
H          -15.19327578012363       -2.05627748732999        3.36896974170341
H          -13.99006641534251       -3.30905926524706        3.05970737510333
C           -7.66821777520774        1.15709284534285        5.05329093359973
H           -7.82150321429799        0.08578299028226        4.94206374839810
H           -8.05693903279474        1.45204663524125        6.03238099972630
H           -6.59753906106531        1.35285613577960        5.03517963218604
C           -6.95633865833511        4.01682918117108        3.77612531402078
H           -6.66487199361049        4.70731814938888        2.99188361776355
C           -6.28582642621569        4.05847112580917        4.92869857547538
H           -6.54465457404630        3.45180264680835        5.78210928251239
H           -5.45275166331401        4.72750553420553        5.07146588549379
C           -8.51198816321734        6.54105736892482       -0.63412343520016
H           -7.60232263559888        5.99430168800117       -0.38481740681092
H           -8.60868918356093        7.37130434413445        0.06766915297088
H           -8.40691437249249        6.94881329663334       -1.63765283785800
C          -10.97808377970845        6.24270324224641       -2.64163685080413
H          -11.42991836094245        5.68921731843435       -3.45730333162988
C          -10.69832429711746        7.53292695207149       -2.81182865217850
H          -10.30326985997612        8.14425560474260       -2.01585323195860
H          -10.87970822943213        8.03922862411952       -3.74499605100959
C          -15.68182102723199        3.41612571382857       -2.47162400084839
H          -15.64193142997266        2.84965498153643       -3.40264857098590
H          -15.28785635641398        4.41151957970964       -2.65029092871301
H          -16.72741026217589        3.50387325354216       -2.17635125730620
C          -16.71175883154072        1.04593821169025       -0.68788441783231
H          -17.11340995595182        1.11288124647717       -1.69684147928504
H          -17.41319507339949        1.52979181922213       -0.00587480629704
H          -16.63797385765145       -0.00289272212151       -0.41279512566700
O          -10.52888817720536        1.11147969210362       -0.27800609168967
H          -10.07824767264520        1.63554545702081       -0.93008827647331
H          -10.12420879842286        0.24758692822366       -0.18067733187648
C          -15.04001584738361        6.05401294817384        3.72255234975829