87
 energy: -124.473920162057 gnorm: 0.288211090345 xtb: 6.7.1 (edcfbbe)
Fe           1.10700000000000       15.44300000000000        0.00000000000000
N            2.75900000000000       15.69000000000000        1.07300000000000
N            0.10800000000000       14.77000000000000        1.42000000000000
N           -0.54800000000000       15.20200000000000       -1.19300000000000
N            2.04900000000000       16.20100000000000       -1.64300000000000
C            3.90700000000000       16.27800000000000        0.67900000000000
C            4.84900000000000       16.14600000000000        1.76400000000000
C            4.26800000000000       15.48000000000000        2.75400000000000
C            2.92000000000000       15.20200000000000        2.33800000000000
C            0.61400000000000       14.42000000000000        2.66600000000000
C           -0.40200000000000       13.90800000000000        3.54200000000000
C           -1.54800000000000       13.95400000000000        2.84600000000000
C           -1.19200000000000       14.49800000000000        1.54700000000000
C           -1.77100000000000       14.89600000000000       -0.72500000000000
C           -2.72400000000000       14.93100000000000       -1.86700000000000
C           -1.93600000000000       15.20200000000000       -2.98600000000000
C           -0.60900000000000       15.42100000000000       -2.55500000000000
C            1.61400000000000       16.26100000000000       -2.92200000000000
C            2.58500000000000       17.01800000000000       -3.74700000000000
C            3.62200000000000       17.30200000000000       -2.92400000000000
C            3.28200000000000       16.77900000000000       -1.65600000000000
C            4.13200000000000       16.88200000000000       -0.53500000000000
H            5.03400000000000       17.48500000000000       -0.63900000000000
C            1.96700000000000       14.55300000000000        3.09000000000000
H            2.26000000000000       14.12400000000000        4.04800000000000
C           -2.10400000000000       14.61500000000000        0.55000000000000
H           -3.15700000000000       14.47500000000000        0.79200000000000
C            0.39300000000000       15.82200000000000       -3.36100000000000
H            0.22000000000000       15.79500000000000       -4.43700000000000
C            6.25700000000000       16.68400000000000        1.73600000000000
H            5.97800000000000       17.73500000000000        1.50800000000000
H            6.55900000000000       16.17900000000000        0.79300000000000
H            7.10400000000000       16.68400000000000        2.45500000000000
C            4.87100000000000       15.16100000000000        4.10000000000000
H            4.65300000000000       14.07300000000000        4.04600000000000
H            4.09300000000000       15.65300000000000        4.72200000000000
H            5.87200000000000       15.30600000000000        4.55900000000000
C            4.91900000000000       18.05500000000000       -3.21800000000000
H            5.21000000000000       17.29800000000000       -3.97700000000000
H            5.83900000000000       18.48100000000000       -2.76300000000000
H            4.33500000000000       18.85800000000000       -3.71500000000000
C            2.46500000000000       17.11100000000000       -5.21700000000000
H            2.00400000000000       17.99500000000000       -5.67800000000000
C            3.53800000000000       16.62300000000000       -5.89100000000000
H            4.07700000000000       15.73900000000000       -5.51800000000000
H            3.88200000000000       17.10600000000000       -6.81800000000000
C           -2.42900000000000       15.37000000000000       -4.41600000000000
H           -1.74000000000000       14.61200000000000       -4.84600000000000
H           -1.99600000000000       16.38100000000000       -4.57500000000000
H           -3.41300000000000       15.29300000000000       -4.92600000000000
C           -4.17200000000000       14.61100000000000       -1.81300000000000
H           -4.50000000000000       14.85500000000000       -0.80600000000000
C           -4.88700000000000       13.89100000000000       -2.77800000000000
H           -4.45200000000000       13.70300000000000       -3.77100000000000
H           -5.89200000000000       13.50500000000000       -2.55500000000000
C           -2.89700000000000       13.43400000000000        3.31200000000000
H           -2.46300000000000       12.47500000000000        3.66800000000000
H           -3.92300000000000       13.24500000000000        2.93100000000000
H           -2.93300000000000       14.15100000000000        4.16000000000000
C           -0.22200000000000       13.36500000000000        4.95500000000000
H           -0.73700000000000       12.41900000000000        4.68300000000000
H           -0.96200000000000       14.06300000000000        5.40100000000000
H            0.57900000000000       13.14000000000000        5.69100000000000
C           -0.20600000000000       20.86000000000000       -0.29600000000000
H            0.66200000000000       21.51400000000000       -0.06300000000000
H           -1.10500000000000       21.25500000000000        0.22400000000000
H           -0.37200000000000       20.86000000000000       -1.39400000000000
N            0.33300000000000       19.18200000000000        1.50000000000000
H            0.35500000000000       19.84900000000000        2.24500000000000
C            0.07600000000000       19.47700000000000        0.16900000000000
C            0.54500000000000       17.84800000000000        1.60000000000000
H            0.73000000000000       17.32400000000000        2.53700000000000
N            0.48900000000000       17.31800000000000        0.40300000000000
C            0.21200000000000       18.30600000000000       -0.51800000000000
H            0.13700000000000       18.08500000000000       -1.57500000000000
C            0.23000000000000       11.35700000000000        0.76200000000000
H           -0.63500000000000       10.67500000000000        0.61400000000000
H            0.01200000000000       12.02500000000000        1.62300000000000
H            1.13100000000000       10.74500000000000        0.98200000000000
C            0.46100000000000       12.18400000000000       -0.48800000000000
H           -0.45300000000000       12.78000000000000       -0.69100000000000
H            0.62400000000000       11.49400000000000       -1.34300000000000
S            1.85900000000000       13.27600000000000       -0.33200000000000
C            2.59800000000000       13.12100000000000       -1.94800000000000
H            1.89300000000000       13.43700000000000       -2.74600000000000
H            2.88300000000000       12.06500000000000       -2.14000000000000
H            3.50400000000000       13.76000000000000       -2.01800000000000
87
 energy: -124.591609771560 gnorm: 0.156198729066 xtb: 6.7.1 (edcfbbe)
Fe           1.10055941833174       15.43741085376811       -0.02490264235304
N            2.74536573416485       15.68676873219839        1.07529458800777
N            0.12211645574747       14.77323463392769        1.44409879466444
N           -0.55047474365946       15.20710842223568       -1.19606559997547
N            2.05780808582556       16.19003454064040       -1.63239594796310
C            3.90390696623158       16.27622728433964        0.69254262037406
C            4.86409260134373       16.14978858380671        1.76986210839020
C            4.27664779877326       15.48502798953393        2.76518169380822
C            2.92695338121651       15.19778829973363        2.33393930152146
C            0.64117792386788       14.42528789518503        2.66987854238608
C           -0.37677264353588       13.90986983571174        3.53160853882053
C           -1.54076925176699       13.95584914567765        2.82804866584953
C           -1.19483139839628       14.50017721997417        1.54472865305352
C           -1.79089610259279       14.91743337104955       -0.75295678519430
C           -2.73860792430364       14.91851160242891       -1.88016102177687
C           -1.97433081262828       15.19530911007616       -2.98184311549232
C           -0.62875446488022       15.40821445140667       -2.54855621811973
C            1.61853325412545       16.26818641216463       -2.91242402235968
C            2.58632642327138       16.98773881007223       -3.73607522017641
C            3.61955959371668       17.29719824915869       -2.89634095472010
C            3.27618527161557       16.78853785625583       -1.61950782437723
C            4.12761799837463       16.88372039967026       -0.52229411415083
H            5.03361493530796       17.46863778934827       -0.64332112052452
C            1.96805800683054       14.55405722681523        3.08175174907706
H            2.25013255249873       14.13594147027927        4.04183989454375
C           -2.12164265667952       14.62309047472584        0.54034433195591
H           -3.16179707681561       14.46466395926225        0.78857857779698
C            0.39540036158333       15.81931215014627       -3.36529362743507
H            0.22175638616276       15.81182092298683       -4.43634640367697
C            6.25466755869276       16.68718863839178        1.69179870273092
H            6.02295904847677       17.74317184234040        1.48664790785268
H            6.60818174367131       16.20080402311141        0.77791311171121
H            7.04481284433121       16.70580789185533        2.45759097670081
C            4.82963245670920       15.13449182997446        4.11266120692461
H            4.65625738270444       14.05296976496628        4.10088931150857
H            4.10161688357360       15.63065522344842        4.76546752615476
H            5.84507749547788       15.32364053711508        4.49804306278337
C            4.88844543619473       18.04814210574210       -3.27021933123566
H            5.25001131602561       17.33226042118336       -4.01815937695996
H            5.76846332422015       18.43939700795059       -2.72590795616350
H            4.38296168930541       18.88775821845939       -3.76140734374709
C            2.52821410505611       17.15424380003831       -5.19921478200361
H            1.99188253354887       17.98803271727976       -5.66280879878344
C            3.54274105704280       16.62701054440612       -5.89932915828823
H            4.08301344135992       15.76154161787849       -5.52220667004837
H            3.86140598765386       17.06760615349375       -6.83918696835585
C           -2.38675662664457       15.37450356393609       -4.42179113065518
H           -1.74084993031884       14.62416011784389       -4.89575441245472
H           -1.99845907541068       16.38118486403713       -4.62199952445945
H           -3.39301857151394       15.29105030245476       -4.86030678705243
C           -4.15855856668845       14.57848224532067       -1.81295977702678
H           -4.52894183353443       14.83661449780961       -0.82400163492190
C           -4.86783548207988       13.90906437558876       -2.75240316334782
H           -4.45245005728884       13.70334873449809       -3.73674759544987
H           -5.87219934454003       13.53461533613578       -2.55488014584338
C           -2.86324553892357       13.43537925169947        3.34789503026613
H           -2.50895736071794       12.45831490133210        3.70582885005305
H           -3.85686898625221       13.27977582932099        2.89276109542684
H           -2.97350242807850       14.12319664085591        4.19717807422297
C           -0.26768973181105       13.36135267640855        4.93988601339118
H           -0.75308520681046       12.39551842018023        4.74351359296956
H           -0.97351327443491       14.03408258256461        5.44570542209421
H            0.58337093720215       13.17589813486472        5.61716384947036
C           -0.20277386286088       20.86023811255579       -0.29328627040320
H            0.65017506810113       21.51417537712049       -0.06738438865573
H           -1.09354307301951       21.25571864822948        0.21383439991997
H           -0.37089927389431       20.86101629937693       -1.37605504729056
N            0.32467692190351       19.18356628073735        1.49610147260527
H            0.34791587382590       19.85235893133942        2.24567700792089
C            0.08511070543016       19.47852478649570        0.17106946319996
C            0.54844551489435       17.85088391399335        1.58994785527197
H            0.73113352662358       17.33132207231795        2.51886778994864
N            0.49700169707695       17.30714535194116        0.40025292174670
C            0.21244940885149       18.29960482925100       -0.50349217495846
H            0.13413438126182       18.08483135337945       -1.55551564655100
C            0.23044860056544       11.35468184417273        0.76359466394046
H           -0.62487969139603       10.68231289524225        0.61903051491011
H            0.01838152105253       12.01145011490534        1.61466923683713
H            1.11954656689917       10.75198565608998        0.98558096164378
C            0.44996341042654       12.17637849777133       -0.49488002945194
H           -0.44707132944738       12.77623809953855       -0.69701739044222
H            0.62430519580258       11.50095051532133       -1.34344110166555
S            1.87124136130577       13.27386105152917       -0.32825980789394
C            2.59801274776297       13.11641954113350       -1.96319609404843
H            1.89584224188765       13.43800107410569       -2.74099881328031
H            2.88451544329838       12.07203762349688       -2.13907337601135
H            3.49014774371873       13.75208462488915       -2.01189876671000
87
 energy: -124.660482185182 gnorm: 0.070937618613 xtb: 6.7.1 (edcfbbe)
Fe           1.09512167980557       15.44178481528250       -0.04624731051515
N            2.73797070440465       15.68390559925903        1.07656056337685
N            0.12905167509059       14.77301868631607        1.47001130024538
N           -0.54958794591287       15.21168945948492       -1.19923966835573
N            2.06187034417494       16.18462505894139       -1.62250196884773
C            3.90251670775066       16.27859211571842        0.70739151094957
C            4.87947515177856       16.16879022403613        1.77724845302783
C            4.28883702425562       15.49051707074179        2.77461113933474
C            2.93722537364557       15.19759585264450        2.32942809055330
C            0.65655113884509       14.42531647541529        2.67713803294906
C           -0.36247234441173       13.90430478778940        3.53009227651676
C           -1.53844392633602       13.95372148140878        2.81793785970712
C           -1.20145562919798       14.49833243827189        1.54410394532898
C           -1.80679398378400       14.93162138380531       -0.77610081772531
C           -2.74508161446981       14.91205813320032       -1.89243428833193
C           -2.00027694889212       15.19225315174279       -2.98880067484773
C           -0.64045135307793       15.39976753022540       -2.54329410887188
C            1.62221884962624       16.27180487018919       -2.90499936223345
C            2.58685778822233       16.95670096121558       -3.72622234581666
C            3.61920606311952       17.29765889406625       -2.87871230777464
C            3.27137705482525       16.79909091294351       -1.59079710939775
C            4.12555730361323       16.88629871519191       -0.51022972318514
H            5.03606345187666       17.45200751864240       -0.64733009512134
C            1.96951985873862       14.55756892537185        3.07514489611983
H            2.24267586312428       14.15089279614927        4.03860447653322
C           -2.13363159349453       14.62835323460291        0.53057135673914
H           -3.16382532329299       14.45216834313826        0.78490221363208
C            0.39820553592566       15.81546361988907       -3.36654107740706
H            0.22372911027432       15.83098119598583       -4.43267602876256
C            6.24752040184308       16.73071275518008        1.64690701864434
H            6.07818833790242       17.79032654434357        1.45638557931903
H            6.64922582956546       16.23622597635806        0.76869800754865
H            6.97669374923185       16.61623733115471        2.46750237790579
C            4.78752050341445       15.10953925515649        4.12358448685166
H            4.65866564076823       14.03253844328935        4.15823658789689
H            4.10780899648281       15.60430884545397        4.81351220581686
H            5.81863888288481       15.34521712555083        4.42732415684795
C            4.85286594381939       18.03965777865394       -3.32470891063438
H            5.28608853703274       17.36620371138712       -4.06072181810494
H            5.68342111095447       18.38822469620894       -2.67679286953286
H            4.42710374022170       18.91578999761996       -3.80958217521715
C            2.58912193637569       17.19008548630940       -5.17821851365387
H            1.98583165899962       17.98194403006728       -5.62985983091257
C            3.54774600326915       16.63145468426211       -5.90618518884671
H            4.10050863644516       15.78797978336456       -5.52367559435833
H            3.83047851918105       17.02388448173110       -6.86923347929597
C           -2.34417536009643       15.37817418129514       -4.42990088424404
H           -1.74002638613998       14.63575845859144       -4.94764100544487
H           -1.99774296286206       16.38134013088604       -4.66956425421805
H           -3.37826990464679       15.28550079335559       -4.78543629900221
C           -4.14598294591438       14.55960205753858       -1.80725386711761
H           -4.56022740769244       14.81179194399896       -0.83361462116851
C           -4.85123850438350       13.92325543647068       -2.72845529805291
H           -4.45043462277589       13.69418127376465       -3.70543636484482
H           -5.85899286673487       13.56658188102000       -2.55575038954048
C           -2.82789524028149       13.43680375191503        3.38579110367419
H           -2.55144030246270       12.44313408979650        3.74423100201106
H           -3.78067438035802       13.32302421195839        2.83902686191031
H           -3.01118980978962       14.09722777760776        4.23421307908333
C           -0.31504863808396       13.35691787447188        4.92561341931920
H           -0.77015954757566       12.37283076261394        4.80339575636353
H           -0.98619195020706       14.00687081788226        5.48827436617332
H            0.59793581848597       13.21870702513870        5.52954267809969
C           -0.20061410954530       20.86090057511798       -0.29215911517282
H            0.64141135329813       21.51520012557437       -0.07069642700524
H           -1.08574233674207       21.25483713295089        0.20674029938729
H           -0.37019843485627       20.86089163163174       -1.36406909763489
N            0.31647859180634       19.18466897216540        1.49261958970207
H            0.34079901908980       19.85298800853744        2.24623978211708
C            0.09201864148513       19.48032480439831        0.17251288704288
C            0.55107913572225       17.85487760122123        1.58156879438140
H            0.73396094295472       17.33778740828608        2.50303417350139
N            0.50380981551774       17.30000032962189        0.39727355485896
C            0.21427053565804       18.29446317240762       -0.49152151907270
H            0.13074913152058       18.08670456888524       -1.54015769858371
C            0.22961672281442       11.35051362246097        0.76555838221764
H           -0.61868260760000       10.68484367821469        0.62476094537727
H            0.02407453421197       12.00290781614544        1.60747762916414
H            1.11291459809084       10.75761815921439        0.98661582300820
C            0.43728007703570       12.16553961636835       -0.50091622936938
H           -0.44150704435660       12.77422138710999       -0.70144541644698
H            0.62697031003361       11.50490397052976       -1.34470047618599
S            1.87855144872100       13.27662463772990       -0.32740610625369
C            2.60067971038321       13.11190389042030       -1.98019984397450
H            1.89624164343873       13.43900810561609       -2.73683266468933
H            2.88659119556669       12.07597059497140       -2.13979644242218
H            3.48056369265071       13.74738254435350       -2.00732737504228
87
 energy: -124.689217601778 gnorm: 0.047254975516 xtb: 6.7.1 (edcfbbe)
Fe           1.09202441606001       15.44726533140019       -0.05367334466957
N            2.73422557335186       15.68577660906628        1.07725420570592
N            0.12275395720711       14.77297079189709        1.48383632431718
N           -0.55036750582286       15.22223782488009       -1.19933656997480
N            2.06140313150617       16.18852304651074       -1.61583792515563
C            3.89761394299315       16.28420855725567        0.71632307288842
C            4.88055066734571       16.17641886276873        1.77873282713588
C            4.28678236191118       15.49189678912279        2.77924743097212
C            2.93870839416846       15.19825314160978        2.32635566707380
C            0.65201600947160       14.42108663948961        2.68564436008284
C           -0.36807476861356       13.89338807652111        3.53793597839778
C           -1.54106616524460       13.94901963142664        2.82527592624996
C           -1.21035584778901       14.49705718624219        1.54802544279869
C           -1.81168681230272       14.93952015174932       -0.77970810855756
C           -2.73939262009838       14.90912206065565       -1.89773545895522
C           -1.99462991069626       15.19123770335029       -3.00282057391367
C           -0.63735837392347       15.40134386718533       -2.54228847000416
C            1.62532800127324       16.26928287578152       -2.90083710919538
C            2.59342499565911       16.93910929971433       -3.72156268639629
C            3.62177006587405       17.29652249004306       -2.88097016567272
C            3.26948034681110       16.80848753707589       -1.58282704606299
C            4.12473552092563       16.88996417102829       -0.50139468144666
H            5.04670690997403       17.43235843546049       -0.64813205818349
C            1.97067573115000       14.56074823530175        3.07516987355407
H            2.24112314258452       14.16872445226370        4.04437296033571
C           -2.13694721776659       14.63214868777450        0.52737093159524
H           -3.16586886379317       14.43459931632969        0.77865275632121
C            0.40224537965766       15.81498792355538       -3.36386591627629
H            0.22651526102386       15.85548340316946       -4.42880932535124
C            6.24380150421200       16.74321386319054        1.62433007900260
H            6.13329147481304       17.81043414355295        1.44217056373876
H            6.69883654190527       16.27361097864814        0.75086834159707
H            6.91873149083106       16.59733565112029        2.47781326345815
C            4.76291758470437       15.09548691190055        4.12893473621491
H            4.66073962283061       14.01411341652997        4.21466800063637
H            4.11448811327331       15.57599499340721        4.86318774445276
H            5.80258971499242       15.36416151266313        4.36415379819149
C            4.83072829744313       18.03410196902353       -3.35236735700341
H            5.32138221088115       17.40273040983982       -4.09645560494848
H            5.60729945543937       18.34385715920814       -2.62374396826486
H            4.47045886887724       18.93658895249660       -3.85326563979324
C            2.62258965576697       17.20649651950814       -5.16134199937766
H            1.98858037110833       17.98300067488697       -5.58641750052892
C            3.55129700943208       16.63390040416742       -5.91561973023346
H            4.13712077727732       15.81639934454624       -5.52335305732998
H            3.77677602698391       16.96938649621561       -6.92304069760733
C           -2.32123250975176       15.37943131321401       -4.43918426276815
H           -1.74265685912361       14.64716571696434       -5.00485333619925
H           -1.99627150435773       16.38134348110974       -4.72142955379036
H           -3.37772339966087       15.27809913024078       -4.71876371463394
C           -4.13683230185683       14.54894581880199       -1.79063491186613
H           -4.58095047717207       14.78822161237974       -0.82839626164028
C           -4.85094208148255       13.92650531918966       -2.72228259186881
H           -4.44165829087056       13.67105773049081       -3.68740608749721
H           -5.86895132376564       13.60441991891404       -2.55906280655815
C           -2.81316895045966       13.43981472343228        3.40569660895726
H           -2.60186608311545       12.43097070555526        3.77787031664777
H           -3.71894963183594       13.37018779932016        2.77501663942708
H           -3.05087504174223       14.07166718515475        4.26666091365858
C           -0.33735487259253       13.35246515634950        4.92224893340516
H           -0.77991872626970       12.35131126842527        4.86930895235871
H           -0.99392722488420       13.97812196608772        5.53298215428939
H            0.62862437475998       13.26011185795339        5.45046811640254
C           -0.19898525979089       20.86112891525315       -0.29168836742132
H            0.63939193893507       21.52079708012639       -0.07237630997008
H           -1.08491261208697       21.25468649103882        0.20474764779607
H           -0.36969818618172       20.85854883098176       -1.36277715521493
N            0.31184267154578       19.18406227300970        1.49271674254173
H            0.33113259813458       19.84986228315285        2.24839315963832
C            0.09508396174933       19.48122487910538        0.17305263155805
C            0.55609036719485       17.85693018521751        1.57894387673019
H            0.74273040574341       17.33925269186135        2.49689311680498
N            0.51198046015597       17.29936767693349        0.39513942848815
C            0.21771610477310       18.29348727760392       -0.48844167474249
H            0.12616296870095       18.08925417211046       -1.53546672522866
C            0.22851540534539       11.34625179737926        0.76316319708867
H           -0.61965692396352       10.67907854091025        0.63124973892398
H            0.02801943979074       12.00152569532723        1.60387280074268
H            1.11379818948783       10.75735354657140        0.98533368690508
C            0.43085240543633       12.15655906675405       -0.50601320598339
H           -0.44050315057034       12.77316474598133       -0.70809179743998
H            0.63065836678792       11.50261207105621       -1.35111724950976
S            1.87891213141358       13.27704982886385       -0.33148056110968
C            2.60164117448439       13.10821751699009       -1.99146376179700
H            1.89167194473451       13.44009837690338       -2.73972937007604
H            2.88974248757786       12.07331837666781       -2.14608243931591
H            3.47750357111351       13.74777047708213       -2.00693580755092
87
 energy: -124.700167008309 gnorm: 0.035148053047 xtb: 6.7.1 (edcfbbe)
Fe           1.08967942895591       15.45387365449359       -0.05413232228494
N            2.72873964893694       15.69361498941116        1.07792650310804
N            0.11261584658778       14.77150482370236        1.49627413930370
N           -0.54924710923432       15.23253789569233       -1.19691026992600
N            2.06721681346868       16.19649958140579       -1.61167061447314
C            3.89122146287683       16.29253242018167        0.72127212993648
C            4.87493673009103       16.18711847727385        1.78005696952313
C            4.27767044223055       15.49579941782605        2.78280039880665
C            2.93150140420508       15.20559976587970        2.32613653522404
C            0.64311485896723       14.41797423089286        2.69757565396238
C           -0.37900086099759       13.88354520860771        3.55020960630490
C           -1.54818400944193       13.94329566464111        2.83923808953619
C           -1.22040073367348       14.49270969158047        1.55541223278319
C           -1.81071310538672       14.94215660778083       -0.78002702777604
C           -2.73047026301718       14.90112642724334       -1.90433964729360
C           -1.98027235750559       15.18651155776452       -3.01286461443219
C           -0.63118690293229       15.40754639690713       -2.53996219228145
C            1.63167163765949       16.26794489942881       -2.89815399641103
C            2.60790882109195       16.92240583871439       -3.72373019205660
C            3.63121437646297       17.29341110190785       -2.89086132984839
C            3.27640724347968       16.81608886922401       -1.58334279333785
C            4.12734196734669       16.89294520175914       -0.49711259234339
H            5.06229397142466       17.41126199008710       -0.64687793490184
C            1.96567449162615       14.56957936582352        3.07955697327309
H            2.23820927633442       14.19243324675171        4.05351284689743
C           -2.13731623743249       14.62912806135671        0.52554940196306
H           -3.16684099000233       14.41165158451952        0.76639887841052
C            0.40663295681137       15.82231583105145       -3.35912395997967
H            0.22952253908534       15.88435770750754       -4.42314588933758
C            6.24189049279384       16.74898279132022        1.62327665307172
H            6.18198157941115       17.82536097543069        1.44288796169769