78
 energy: -115.944435777907 gnorm: 0.350746719626 xtb: 6.7.1 (edcfbbe)
Fe          28.23800000000000       93.97400000000000       53.01500000000000
N           29.29700000000000       95.61899999999999       52.37900000000000
N           29.29800000000000       93.89799999999998       54.78700000000000
N           27.19700000000000       92.27200000000001       53.62700000000000
N           27.12000000000000       93.96700000000000       51.27099999999999
C           29.03400000000000       96.31699999999999       51.28500000000000
C           29.74299999999999       97.50499999999998       51.29600000000000
C           30.46500000000000       97.51900000000001       52.48600000000000
C           30.11000000000000       96.34800000000000       53.13300000000000
C           30.21900000000000       94.79900000000001       55.15799999999999
C           30.84600000000000       94.42400000000001       56.33700000000000
C           30.29300000000000       93.16100000000000       56.64899999999999
C           29.32500000000000       92.90900000000001       55.68100000000000
C           27.45400000000000       91.51599999999999       54.70800000000000
C           26.54900000000000       90.47400000000000       54.84000000000000
C           25.66000000000000       90.63999999999999       53.75700000000000
C           26.16600000000000       91.69199999999999       52.99900000000000
C           26.15800000000000       93.10400000000000       50.91099999999999
C           25.75300000000000       93.32400000000000       49.59899999999999
C           26.48800000000000       94.41700000000000       49.15300000000000
C           27.27000000000000       94.80599999999998       50.24200000000000
C           28.13400000000000       95.91300000000000       50.28300000000000
H           28.10200000000000       96.55600000000000       49.40500000000000
C           30.54000000000000       95.95200000000000       54.41100000000000
H           31.22700000000000       96.64100000000001       54.90000000000000
C           28.47800000000000       91.79399999999998       55.63099999999999
H           28.63300000000000       91.04599999999999       56.40800000000000
C           25.68500000000000       92.09000000000000       51.74000000000000
H           24.82900000000000       91.53100000000001       51.36300000000000
C           31.45300000000000       98.58000000000000       52.96599999999999
H           31.53000000000000       99.38599999999998       52.20600000000000
H           32.45500000000000       98.12200000000000       53.10799999999999
H           31.09700000000000       99.01900000000001       53.92199999999999
C           29.69700000000000       98.58000000000000       50.22700000000000
H           28.65200000000000       98.70500000000000       49.87100000000000
H           30.33700000000000       98.28299999999999       49.36900000000000
H           30.05100000000000       99.54500000000000       50.64900000000000
C           31.92000000000000       95.26300000000001       57.05000000000000
H           31.64200000000000       96.33799999999998       57.00500000000000
H           32.90100000000000       95.12299999999999       56.54700000000000
H           31.99200000000000       94.95399999999999       58.11500000000000
C           30.62500000000000       92.23499999999999       57.64200000000000
H           29.92200000000000       91.40900000000001       57.81700000000000
C           31.80800000000000       92.23299999999999       58.48400000000000
H           32.56900000000000       93.02099999999999       58.38000000000000
H           31.95700000000000       91.44400000000000       59.23499999999999
C           26.50600000000000       89.54499999999999       56.06300000000000
H           26.48999999999999       90.15500000000000       56.99199999999999
H           27.40800000000000       88.89600000000000       56.07300000000000
H           25.58900000000000       88.91899999999998       56.02700000000000
C           24.49500000000000       89.95199999999998       53.38200000000000
H           23.88100000000000       90.41000000000000       52.59500000000000
C           23.98100000000000       88.69399999999999       53.90200000000000
H           24.52200000000000       88.15400000000000       54.69300000000000
H           23.04600000000000       88.26800000000000       53.51000000000000
C           24.73000000000000       92.52500000000001       48.79300000000000
H           23.71200000000000       92.70899999999999       49.19900000000000
H           24.95700000000000       91.44000000000000       48.86900000000000
H           24.75700000000000       92.84500000000000       47.73000000000000
C           26.43500000000000       95.04200000000000       47.75400000000000
H           25.54600000000000       95.70300000000000       47.67700000000000
H           26.35600000000000       94.24099999999999       46.98800000000000
H           27.35000000000000       95.64699999999999       47.57800000000000
O           26.90200000000000       95.13100000000000       53.97700000000000
H           26.18900000000000       94.54900000000001       54.23800000000000
H           26.95200000000000       96.00500000000000       54.13400000000000
C           30.84000000000000       90.20399999999998       49.74900000000000
H           31.07100000000000       89.20699999999999       50.18100000000000
H           31.71600000000000       90.55500000000001       49.16300000000000
H           29.95300000000000       90.11300000000000       49.08700000000000
N           31.30700000000000       91.59099999999999       51.88700000000000
H           32.22400000000000       91.23999999999999       52.07399999999999
C           30.54300000000000       91.19300000000000       50.87800000000000
C           30.67200000000000       92.50800000000000       52.59000000000000
H           31.08600000000000       93.00500000000000       53.46699999999999
N           29.48900000000000       92.70799999999998       52.06000000000000
C           29.37000000000000       91.91700000000000       51.01600000000000
H           28.46100000000000       91.91000000000000       50.42699999999999
78
 energy: -116.020129362812 gnorm: 0.144441297623 xtb: 6.7.1 (edcfbbe)
Fe          28.24114732753202       93.94585382159025       52.99897608742827
N           29.26068870542766       95.60273353912571       52.39966365754231
N           29.29226894653742       93.90093534508978       54.75858256758272
N           27.20776211411034       92.28416010875016       53.61938344804506
N           27.11823577971008       93.98118254893984       51.29127233439526
C           29.01739268450204       96.30854653246250       51.28033944631333
C           29.75319338894926       97.52202494649431       51.29425628688791
C           30.46879781010644       97.53322287086102       52.47511274064426
C           30.11184124076555       96.33428832624814       53.14766810001765
C           30.21672181535634       94.81338647939030       55.14504330338445
C           30.85789901158161       94.42075151314211       56.34430535269277
C           30.31913759563934       93.16760169870500       56.66485005481512
C           29.32131659393686       92.90671358514062       55.67083002325479
C           27.46294382329658       91.53077359764173       54.71722937883229
C           26.53400990475398       90.47178385448620       54.84990746218762
C           25.65412996848828       90.60854312584868       53.76817841003519
C           26.15543436368279       91.70677731151379       52.99926584776301
C           26.16241292463288       93.09628916630331       50.92206490562652
C           25.74899714870852       93.33040831236755       49.58119904156949
C           26.47727693450298       94.41580140085092       49.14015546700176
C           27.29168079488993       94.81193385294273       50.24090893166569
C           28.14022714171356       95.91501450137645       50.26897445485956
H           28.10362459201032       96.55989459420964       49.40046356877069
C           30.54660795071598       95.95923198292606       54.41569418963994
H           31.23404274109308       96.64233004554248       54.89780635429226
C           28.48398195090212       91.79551647111499       55.63251018112224
H           28.62739244786828       91.05116230985074       56.40594365883489
C           25.67621028785537       92.08956780745044       51.74536978038544
H           24.83668613858912       91.52749080335172       51.35575158115466
C           31.44321214329615       98.57581219513551       52.95942206656376
H           31.53187123147804       99.37689178801963       52.21873747729682
H           32.43553213249030       98.13038818308449       53.10804371992490
H           31.10550951547951       99.01157387609555       53.90844916616322
C           29.70036397258896       98.57956574154395       50.23121432209084
H           28.67040180110213       98.70656332802240       49.87528700350565
H           30.32930261648416       98.29354203276564       49.37856050820892
H           30.04899120677213       99.53540128205590       50.63487717584595
C           31.90810921338506       95.25026380498507       57.04780844910810
H           31.64418220096090       96.31511354622306       57.00491475882606
H           32.88422301768929       95.12221353420384       56.55976795099807
H           31.98958520909696       94.95992337524268       58.09960332038383
C           30.65905321436985       92.23991836517195       57.68309175987451
H           29.95582764764326       91.41862892793603       57.83141363412570
C           31.77998337434386       92.23567473992308       58.46918340970169
H           32.54683195510364       92.99610092326915       58.37265758711608
H           31.94077722280920       91.45973357601963       59.21042657230014
C           26.50151125225258       89.55290446034785       56.04977682482361
H           26.49018541310749       90.14596807187826       56.97396515624323
H           27.38963086119798       88.90680727337033       56.06873497367552
H           25.60604001237522       88.92872183187069       56.03475446410152
C           24.47502040886593       89.90450853805753       53.39948930007563
H           23.87784688016256       90.37759848576390       52.61797406447908
C           23.99154549309961       88.72221894557612       53.89146785616649
H           24.51252476913063       88.16771263367006       54.66307582129119
H           23.06966198776718       88.29313074328198       53.51301080564739
C           24.73692303478186       92.53236612848802       48.79905696196836
H           23.72666399935453       92.70545359182987       49.19282956542932
H           24.95289374057780       91.45828412337022       48.86667373907253
H           24.75440748451285       92.83675523791833       47.74761473393201
C           26.43266288403467       95.03882927080844       47.76605322686977
H           25.55762216700944       95.69502323427930       47.67605674135282
H           26.35868242682453       94.25714790450006       47.00059115832816
H           27.33397582450269       95.63341145737711       47.57942684514607
O           26.89065561134076       95.11756492386891       53.97144170969595
H           26.16665641350890       94.56101654597475       54.25334799134774
H           26.93721567500475       96.03834262826567       54.14945717348549
C           30.84490965206539       90.20404173263290       49.75974226031813
H           31.07229012346400       89.21506586353678       50.17426782210049
H           31.70437803319691       90.54688630855293       49.17079258051207
H           29.97297581489448       90.11813272463192       49.10393281974751
N           31.32339723564406       91.57777859921210       51.87358879505509
H           32.24340790543981       91.22464753923236       52.06309796935648
C           30.52953936849657       91.18392117749738       50.85531527706860
C           30.68219545508829       92.50633482390045       52.59194998415092
H           31.08972681303207       92.99733285064191       53.45732309870052
N           29.49491881755110       92.71599458180796       52.07390178445817
C           29.37060674254578       91.91582286988050       51.00921206637926
H           28.46850789621732       91.90804522456035       50.42691093024138
78
 energy: -116.038793342688 gnorm: 0.047768398894 xtb: 6.7.1 (edcfbbe)
Fe          28.24075627361928       93.92424111355406       52.98532752372805
N           29.21879775564483       95.59347645610111       52.41970907095241
N           29.29764556019267       93.89749161022230       54.72546938505401
N           27.21645633827695       92.29865028213767       53.61078927955661
N           27.12811726742559       93.98401931935669       51.30548486861346
C           28.99598196412583       96.30156864360188       51.28279698112294
C           29.75690366668224       97.52779972269349       51.29675460359591
C           30.46380263570397       97.53549159070069       52.46488574813274
C           30.10084158763627       96.32220201571540       53.15932226893526
C           30.21658720764774       94.82056280429588       55.12583969275587
C           30.86135711888953       94.41355986908735       56.34266998336616
C           30.33695142896012       93.17513596590730       56.66214049089505
C           29.32582479406341       92.90327726471654       55.65076141014072
C           27.47079859185052       91.55125517117654       54.72103464610339
C           26.52003983934556       90.48320095668421       54.85391910143328
C           25.65608557275804       90.59801959129953       53.77925480964561
C           26.15156690637360       91.72142938316111       52.99864853431393
C           26.16980213300618       93.09240318441795       50.93602625267120
C           25.75077991816440       93.33778716190214       49.57557811022182
C           26.47271633874985       94.41163326286286       49.13839672936665
C           27.31172795733739       94.81346369532740       50.24511220976377
C           28.14437206591033       95.91815983892864       50.25787513361780
H           28.11179961692044       96.56126744600871       49.39105585354107
C           30.55205793879432       95.96627595840053       54.41657270345314
H           31.24824318753302       96.64300858572402       54.88965955792094
C           28.49128909684356       91.79912408569891       55.63075986267787
H           28.61944767764474       91.06214570131739       56.40976204322363
C           25.67012918509279       92.08884096113003       51.74988243946075
H           24.84594757099806       91.51882178322228       51.34682503695133
C           31.43030126762150       98.56440906048968       52.95352244308881
H           31.52998694359301       99.36683054556552       52.22726688868734
H           32.41696210666902       98.12672394552297       53.10865191532709
H           31.10403715624405       98.99817155643728       53.89924961688940
C           29.70449105618149       98.57458612967264       50.23577258841155
H           28.68394279715043       98.70604554754058       49.87993533510415
H           30.32613652508035       98.29754372502038       49.38403720399322
H           30.05338152175452       99.52793160263560       50.62289503393983
C           31.89254642104195       95.23531972824858       57.04384849141618
H           31.63671439274382       96.29406749592616       56.99972605067336
H           32.86972413234618       95.11380306428798       56.57091989472911
H           31.97714733732118       94.95687291139899       58.08930592974842
C           30.68113813514981       92.24490842950699       57.70484531229437
H           29.96894325041362       91.43662123498046       57.84229869872979
C           31.76242386345112       92.23968445108841       58.45701013525428
H           32.53936178201977       92.97775813993542       58.36852056563481
H           31.92865515492267       91.47399812273298       59.19672910659020
C           26.49578952738841       89.56602016052607       56.03367648231113
H           26.49340961498149       90.14643750529920       56.95755619718102
H           27.37577883672437       88.92061584440916       56.05151214180596
H           25.61297866084062       88.93954205461603       56.03472342760997
C           24.46484388629958       89.87559500361172       53.41276700862892
H           23.88049165331074       90.36106665475350       52.63587642745230
C           24.00527438904622       88.73618081510220       53.88304323196202
H           24.50962768148691       88.16453562716733       54.64095885921927
H           23.08443726008535       88.31051969114831       53.51980276515830
C           24.74552341564024       92.54156307933570       48.80988329850631
H           23.73946376840927       92.70704475067177       49.19694608188484
H           24.95631471975913       91.47412631832624       48.87355549157297
H           24.75393202779899       92.83262123686917       47.76250016867380
C           26.43148849721659       95.03547585593788       47.78191397615161
H           25.56497632291109       95.69050367744980       47.68164796601930
H           26.35894917667843       94.26729723244119       47.01316451001671
H           27.32544761459352       95.62266247186434       47.58882455911594
O           26.85918899505439       95.11976484810393       53.95907632058651
H           26.12473607406365       94.59923189251381       54.29004035164764
H           26.90920331996743       96.05030806123256       54.17376881963974
C           30.84765085136598       90.20441451515430       49.76911898797014
H           31.07714781400975       89.22223804063181       50.17762309860370
H           31.70062224169383       90.54121212408384       49.18141951667651
H           29.98836800107195       90.11539866600923       49.11192163560614
N           31.34325704461418       91.56265810982848       51.85399383233953
H           32.26479422665395       91.20419173865587       52.03987389098565
C           30.51552692364571       91.18056342337592       50.83657681067432
C           30.70301378571076       92.49815863253180       52.58777167487236
H           31.11229922879578       92.98219865126630       53.44581026762489
N           29.50902941067806       92.72443504354337       52.09361455834770
C           29.37403162675481       91.91951091861775       51.01110227984996
H           28.47468236285292       91.91331823857784       50.43308581957739
78
 energy: -116.044015977979 gnorm: 0.024498012962 xtb: 6.7.1 (edcfbbe)
Fe          28.23523449199036       93.92158977291429       52.98326608333594
N           29.19023391093592       95.59611137237839       52.42874429323136
N           29.30462413351802       93.89460703161532       54.70468701302455
N           27.21805751442205       92.30900154069451       53.60365088062650
N           27.14032204698438       93.98132861471284       51.30866219663280
C           28.97910733776357       96.30262028940251       51.28622715335185
C           29.75108212077706       97.52893466221411       51.29689120950744
C           30.45284938411026       97.53402027713682       52.46171294916113
C           30.08368036228163       96.32026694555213       53.16300782914200
C           30.22109057881060       94.81865548990685       55.10901335221229
C           30.86313795320327       94.40693187493129       56.33183942906090
C           30.34058653967978       93.17659924834071       56.65031853938799
C           29.33188507106994       92.90100433173797       55.63190631843244
C           27.46969826988667       91.56767844695732       54.71881828633008
C           26.51012272502315       90.50037152719237       54.85456428655969
C           25.65533718346702       90.60572996789890       53.78213701509973
C           26.15082546425751       91.73077546919829       52.99568924237066
C           26.17864990311683       93.09219829762930       50.94163032256128
C           25.75546691664521       93.34122097328996       49.57843063757028
C           26.47594333910454       94.40943516345673       49.14101461654575
C           27.32292145107673       94.81106845852533       50.24690095942836
C           28.14642115767889       95.91974796856086       50.24999458175922
H           28.12320050777766       96.55725685142602       49.37861011506040
C           30.55531561564594       95.96869142092825       54.41139173029256
H           31.26513895516669       96.63877767537868       54.87459299196561
C           28.49158536452445       91.80473113667561       55.62556235746599
H           28.60689587186800       91.07630215702804       56.41419340814743
C           25.67090396616682       92.08899333301376       51.74748134917662
H           24.85763510729904       91.51097715490187       51.33387372980393
C           31.42088345206014       98.55428761135460       52.95466160487330
H           31.52757081521575       99.35948108447448       52.23306651426668
H           32.40343008829038       98.11104921683226       53.11193981899344
H           31.09422491828575       98.98398003685318       53.90094757932331
C           29.70864677401478       98.57064500633818       50.23238525722912
H           28.69011375284127       98.70848614677010       49.87679491950135
H           30.32862079758658       98.28968385895624       49.38165616073593
H           30.06526801424902       99.52388009853840       50.61244360100414
C           31.88219160828402       95.22697013370072       57.04276537896649
H           31.62553113907595       96.28361671796057       56.99151167159342
H           32.86503567404709       95.10190837374194       56.58439638843677
H           31.95220385406219       94.95057046554663       58.08921982986023
C           30.67640721652702       92.25170107552775       57.70855989152066
H           29.95674467572528       91.45501886991201       57.85503540992311
C           31.77232216786021       92.24058726800183       58.45920992562714
H           32.56411034771533       92.96026953387162       58.35873439728172
H           31.92883831297508       91.48203496073084       59.20695485567806
C           26.49236937714261       89.58119497699886       56.02732068916240
H           26.50294500099550       90.15708517227938       56.95281506983565
H           27.36944740738533       88.93332734373367       56.02858592676549
H           25.60892676679604       88.95668792493673       56.03746110943734
C           24.46215183653449       89.87571199529792       53.41654603416927
H           23.87279495066702       90.36488239220895       52.64949252758539
C           24.00533690276413       88.72014337397394       53.88554930045296
H           24.51761720252330       88.12788908386484       54.62134424601311
H           23.08069206743389       88.30257301521736       53.52553531704196
C           24.74822262399596       92.54572666488940       48.82185132047204
H           23.74482399668813       92.71140763000871       49.21282227307400
H           24.96139493326728       91.48005747586276       48.88780668575355
H           24.75117267157511       92.83181786727478       47.77360519503671
C           26.43198678332256       95.03742526146026       47.79060536333027
H           25.56760348347731       95.69452285148185       47.69301430189570
H           26.35610775623223       94.27264124414971       47.01978726676275
H           27.32720826855455       95.62034642466946       47.59795524783417
O           26.79942951317608       95.13594465633521       53.93079308464124
H           26.08334724348227       94.63464938983806       54.34694893703244
H           26.87887340214073       96.05612119015483       54.21132928809671
C           30.84904391144336       90.19947154135528       49.77021862661977
H           31.08261705620292       89.22268380028274       50.18817092512869
H           31.70475164621174       90.53392718925352       49.18633294368011
H           29.99627858214480       90.10085547075816       49.10752740070047
N           31.36394153051447       91.55290531645812       51.83420750433908
H           32.28604905147279       91.18647118160570       52.00711726295278
C           30.51281769980418       91.18149268789701       50.82674112717743
C           30.73462280554746       92.49012768042982       52.58069908288427
H           31.15859225716171       92.96641874520922       53.43581406113609
N           29.53274043313442       92.73116197668733       52.10934284789693
C           29.38223680488715       91.92731033787521       51.01958435988512
H           28.47875918025244       91.92622022484058       50.44797859114638
78
 energy: -116.046578908805 gnorm: 0.053770168080 xtb: 6.7.1 (edcfbbe)
Fe          28.23200404436819       93.92291420460977       52.98281091422309
N           29.16243317161997       95.60097030715741       52.43511654935205
N           29.30289296933716       93.89718344195100       54.69115647679487
N           27.21921219465370       92.31796760043983       53.59374406031418
N           27.16142006350830       93.97057234373212       51.30771275042124
C           28.96162796914818       96.30474441545215       51.28986498654516
C           29.74158729652772       97.52909209430571       51.29606987413906
C           30.43811957373413       97.53181655479098       52.46038496230311
C           30.06111732372380       96.32031013542847       53.16531126043738
C           30.22440971543984       94.81577224480930       55.09207756155793
C           30.86605338550763       94.39973973656880       56.31656822645706
C           30.34500034040726       93.17369847933830       56.63292677391235
C           29.33453953226420       92.90075202931205       55.61461104208249
C           27.46441744185802       91.58644221072089       54.71595785730472
C           26.49956957196163       90.52035209737971       54.85550216885796
C           25.65438905726704       90.61481712876549       53.78205112344933
C           26.15254350446694       91.73600361996883       52.98901597426747
C           26.19328631097338       93.08895657019291       50.94460457342020
C           25.76212357547335       93.34260324280565       49.58338343091897
C           26.48278806885160       94.40621521983175       49.14469182386823
C           27.33589376330314       94.80438790922668       50.24846392721589
C           28.14978945391443       95.91904844426122       50.24120349167367
H           28.13754260542361       96.54905237544160       49.36415014838390
C           30.55829109398929       95.96982128872023       54.40331683030923
H           31.28502686848518       96.63121346256668       54.85300543594523
C           28.48605379658506       91.81318839982926       55.62248977258803
H           28.59189668983587       91.09245454446629       56.41853363661093
C           25.67640578962746       92.08394278737102       51.73949350105872
H           24.87019020085691       91.50294229679521       51.31830574701148
C           31.41111687791574       98.54219725120574       52.96134474152635
H           31.52549101096580       99.35118021921760       52.24367464502171
H           32.38966921414695       98.08896222251046       53.11901717664792
H           31.08102042391950       98.96696621568829       53.90931320636122
C           29.71228928811211       98.56434514679414       50.22444815693928
H           28.69478749538789       98.71277232666094       49.86816674054575
H           30.33130245415949       98.27105391563487       49.37585892838904
H           30.08259771902414       99.51649625823768       50.59922856607012
C           31.87313948732366       95.22047473531778       57.04217755751740
H           31.61740698769386       96.27699864105288       56.98167024844140
H           32.86584696309637       95.08864685393930       56.60562826314915
H           31.91700452301770       94.94159664574012       58.09142256623903
C           30.67279171155115       92.25703266268494       57.70379301659769
H           29.93725655665867       91.48371880764927       57.88315524018724
C           31.77977157388867       92.24056371215165       58.44927394311063
H           32.58669242797936       92.94092896119619       58.32952842607650
H           31.91580567746835       91.49515062316080       59.21576436464267
C           26.48670192034556       89.59785069968466       56.02379090181777
H           26.51732056874907       90.16832998885550       56.95308450652605
H           27.35876901224095       88.94192114234816       56.00213420331698
H           25.59445728488682       88.98303756699370       56.03628766621422
C           24.46207931042911       89.87813829781238       53.42072793849330
H           23.85159711584987       90.37322603450522       52.67674264694642
C           24.02036632153480       88.70557398259191       53.88044128771251
H           24.54243275810354       88.10393461330941       54.60108945730449
H           23.08601276646427       88.30072586244486       53.52785445370669
C           24.74751912369878       92.54766684748407       48.83785143167858
H           23.74785184676307       92.71627704996435       49.23850480770305
H           24.96359816723958       91.48207116392300       48.90677515815166
H           24.74241515242437       92.83088693615193       47.78769423187495
C           26.43409524991214       95.04250469084786       47.79852454509752
H           25.57164027864061       95.70455468540570       47.71054384165448
H           26.34933045625223       94.28100927440839       47.02382694822422
H           27.33254687746303       95.62151129163750       47.60574061493032
O           26.69853556753034       95.16355779795714       53.86903628731809
H           26.04428570872462       94.67634190984188       54.43581688574573
H           26.84398108073544       96.04863524727132       54.29454190809274
C           30.85083498394467       90.19140456390819       49.76846808436954