78
 energy: -116.058045649703 gnorm: 0.000049498285 xtb: 6.7.1 (edcfbbe)
Fe          28.20188487091364       93.96215530669596       52.97094201632179
N           29.16768967495960       95.60635076023499       52.39343423913077
N           29.25823487750223       93.94560943839642       54.68858928394586
N           27.18872356186931       92.33468128166768       53.59118884546737
N           27.11326057958070       94.00305478680703       51.30432382465384
C           29.00067496529275       96.28126551450907       51.22846347862090
C           29.89198952133696       97.41974009266781       51.16175626594246
C           30.60281192581963       97.41608109879935       52.31994333960940
C           30.13744488489214       96.27271114066269       53.07609124851857
C           30.23195560035506       94.82500164723552       55.05746820465488
C           30.80244445960431       94.45619963509692       56.32552431660567
C           30.15843830445347       93.31180089384307       56.72023476917643
C           29.19250157648851       93.01764958929492       55.68084588033720
C           27.40529139824514       91.62144263544540       54.73274966686495
C           26.52168511737426       90.48717765729278       54.80260498679764
C           25.75948100169527       90.52136980389741       53.66381220394366
C           26.19702397269812       91.68826969656760       52.92499276669123
C           26.12547305290787       93.14061289708937       50.94841419634928
C           25.58056868610653       93.49056507474101       49.65340460196077
C           26.26880382201324       94.58501483586647       49.23554678843280
C           27.22128734077943       94.88969351775536       50.28240891466205
C           28.10187541624145       95.95203564454394       50.23211829038834
H           28.07682056639453       96.58052764186220       49.35510277237535
C           30.63943129316514       95.92018187759795       54.31298426207652
H           31.42244951545997       96.53814230132257       54.72547753633816
C           28.34232277921274       91.92898835407287       55.70375551572590
H           28.42202132279226       91.25524363682423       56.54280632554214
C           25.69169463798845       92.05960323502774       51.69192069758074
H           24.90811295057742       91.44933507415477       51.26949292590510
C           31.65605843526208       98.36200455205329       52.78675559890663
H           31.83206422880998       99.13932813421364       52.04739221509190
H           32.59585959870619       97.83741879343800       52.96263251613063
H           31.35585154523869       98.83903026897988       53.71998107129752
C           29.95601180546784       98.37109797914339       50.01667868832576
H           28.99260401115000       98.86047489379952       49.87329050947500
H           30.20876549271525       97.84589090969602       49.09532295259122
H           30.70677494265432       99.13800374341609       50.19116860608632
C           31.83527787917612       95.23697341102158       57.06120963145717
H           31.67644481093825       96.30623710572421       56.92973274421360
H           32.83730013793557       94.99800672014895       56.70038649102299
H           31.79019756263914       95.00632620368168       58.12371042875201
C           30.33437478173173       92.53476814634716       57.92668442969568
H           29.44017832123833       92.05786008960652       58.31135659096571
C           31.48230210450005       92.36188585080933       58.57416439816132
H           32.41079218421729       92.77022161521914       58.21519096607073
H           31.53596861265212       91.77901423375059       59.47868477935128
C           26.43500132720074       89.53568973180124       55.94450381354149
H           26.56343513431749       90.05653973921991       56.89232547480900
H           27.20971962161321       88.77046551452985       55.87315757296226
H           25.46463036875822       89.04324945641361       55.94706391597554
C           24.70252609134275       89.62903545767266       53.24204923996468
H           23.89677149552006       90.09020706239060       52.68238980382886
C           24.65596476678945       88.32187334131631       53.47781534837415
H           25.44980717778626       87.80248630631793       53.98560970621374
H           23.82765736073078       87.71875480187400       53.14460305735319
C           24.47950938275078       92.74903733477946       48.97592400900857
H           23.57712079576435       92.76040256548059       49.58762286808439
H           24.76171396271996       91.70903384811859       48.80912825713968
H           24.24565728647906       93.19846566040381       48.01400924229713
C           26.12492222003485       95.36836183039199       47.97616900521593
H           25.85648357362417       96.40142474611609       48.19771605577734
H           25.35180596586827       94.94250183996250       47.34128698683300
H           27.06215752422891       95.37437607493602       47.41925746181642
O           26.63625352713178       95.19631700840496       54.10847030505801
H           26.00645245689965       94.50326214014726       54.33472827066085
H           27.13519259523958       95.39816988836780       54.90744560554262
C           30.85960224540579       89.96448688250810       50.13885324083245
H           31.44637327694879       89.24669955194352       50.71193301534021
H           31.43432077978446       90.24795081340926       49.25715817449193
H           29.94111119101608       89.48437507505341       49.81632594977004
N           31.49976002618951       91.95930382797741       51.51088756756882
H           32.49403294335992       91.83036535382303       51.41933304925266
C           30.53433177379687       91.15638273388014       50.96228801253520
C           30.87416370645936       92.94387616699591       52.19440744788298
H           31.38183494179965       93.72074736981187       52.72800462757868
N           29.57232813120947       92.81334013552635       52.11161636683276
C           29.34547111381745       91.70624854942329       51.34777673055474
H           28.34966310365725       91.38052146997113       51.12939903470457
