72
 energy: -105.980694445545 gnorm: 0.000033415078 xtb: 6.7.1 (edcfbbe)
Fe          -6.19278834780227       24.84561213758979        7.40481035653715
N           -4.49243324423056       23.83848703905437        7.16017241094141
N           -5.80645515042090       25.04349603987044        9.35795547090762
N           -7.94610175030516       25.80975733746497        7.65595641622467
N           -6.63175822218509       24.57792994575991        5.46764960399833
C           -3.99393511738122       23.34645459832036        5.99789307488054
C           -2.72026052714487       22.69608375828539        6.22109733359487
C           -2.46945142028880       22.79708947812263        7.55276138159559
C           -3.58986460609671       23.51445345126601        8.12249896194436
C           -4.73972254511045       24.53591888375763       10.03279334947556
C           -4.81243242072009       24.86842195939248       11.43248490254043
C           -5.95742599829288       25.60148087105347       11.59494602229501
C           -6.56901997571837       25.68278322491398       10.28283636229700
C           -8.39706675971905       26.39261898270906        8.80295872336693
C           -9.66546091948934       27.03575337639239        8.58423850027870
C           -9.98377791499906       26.82254147267982        7.26849748717959
C           -8.88252702861725       26.06896072076893        6.70626135787089
C           -7.75230502535740       24.98873248261611        4.81556429468938
C           -7.68369193870615       24.63988304979512        3.41383188254778
C           -6.48426791609978       24.02584532503315        3.23167994942616
C           -5.84236958105191       23.99583204663399        4.52676839920681
C           -4.60645247506186       23.42691241806756        4.76196746367040
H           -4.08718851646700       22.99812164028035        3.91919887197828
C           -3.69864458744648       23.82449612448321        9.46244861026399
H           -2.90580544110277       23.49341871444444       10.11492746032776
C           -7.75549400744719       26.34260935524365       10.02794032255180
H           -8.23630029532235       26.83759408316211       10.85703368922242
C           -8.81283473633980       25.66525303969556        5.38612780630814
H           -9.63925168474056       25.92155708547107        4.74223963077267
C           -1.30496166626583       22.29906850804619        8.33703996041737
H           -0.59049808538752       21.79585198791937        7.69049037103069
H           -1.63283022494489       21.59330595970941        9.10029765999396
H           -0.79540881723520       23.12429035774131        8.83532259223178
C           -1.90564192693208       22.05580226019960        5.15077648414356
H           -1.65784942060875       22.77826849195345        4.37289106996322
H           -2.45746944203270       21.23707873255707        4.68857404259625
H           -0.97903347179558       21.65750899746709        5.55643300028469
C           -3.84456584617430       24.41883992078662       12.46975579252141
H           -2.95916451703420       25.05703923056651       12.48127379256960
H           -3.52181524013110       23.39714156686674       12.27618070752067
H           -4.30819500385500       24.45763152158374       13.45322998369155
C           -6.51538825594672       26.17071622470378       12.80208434205255
H           -7.59761352919196       26.18336767456890       12.85821062149076
C           -5.81145038053656       26.67011136547027       13.81237690422436
H           -4.73697653094172       26.72536463639086       13.79036179772507
H           -6.29161370409894       27.06709752944641       14.69118291831929
C          -10.41445858162121       27.82029042423403        9.60326057136628
H           -9.73068556090819       28.39275786229416       10.22830601947161
H          -10.99522779545688       27.16268863382313       10.25235811769802
H          -11.09860530731806       28.50957997627487        9.11282986426064
C          -11.14419788484756       27.26391051876277        6.52599322897557
H          -10.96819806158343       27.50970895801488        5.48544912313530
C          -12.37353478186201       27.37650387975839        7.01735864337666
H          -12.61389630200007       27.10200372102925        8.02973710126536
H          -13.19241214551844       27.72542814436522        6.41063537508347
C           -8.75333436168654       24.93897309453336        2.42121802988316
H           -8.90323699046915       26.01530956696762        2.33468295737088
H           -9.69835273469370       24.48916897057416        2.72652405418424
H           -8.48988024576762       24.55047213014849        1.44074743238596
C           -5.88699859709733       23.46820864972441        1.98629192669472
H           -4.94284453804418       23.96409304554147        1.76098671335438
H           -6.55641775981505       23.60641805596800        1.14104132209168
H           -5.69073341232705       22.40167554733321        2.09877474366570
O           -7.34025248790580       22.95745029785245        7.80156735453930
H           -8.13013606315955       23.31622150759220        8.22219373186613
H           -7.58810327521844       22.70196680227034        6.90541609604371
C           -3.50015618546048       26.92121287557508        7.60640179490969
H           -3.13906299244887       27.94377040767510        7.65803646711790
H           -2.89068147727699       26.34266545518057        6.92005732389030
H           -3.49945732049503       26.45111876940950        8.58389530156864
S           -5.19615728355500       26.91954852277897        6.92637121963933
H           -5.73141363670558       27.61427057398607        7.93684334851171
