72
 energy: -105.914387634266 gnorm: 0.234712838286 xtb: 6.7.1 (edcfbbe)
Fe          -6.20600000000000       24.90400000000000        7.44100000000000
N           -4.51600000000000       23.84500000000000        7.21600000000000
N           -5.95900000000000       24.86700000000000        9.42300000000000
N           -7.98900000000000       25.73400000000000        7.73200000000000
N           -6.66200000000000       24.62400000000000        5.49900000000000
C           -3.89900000000000       23.51600000000000        6.00200000000000
C           -2.59800000000000       22.91700000000000        6.24200000000000
C           -2.47400000000000       22.87900000000000        7.59300000000000
C           -3.62900000000000       23.48300000000000        8.20300000000000
C           -4.89600000000000       24.35800000000000       10.12600000000000
C           -4.96400000000000       24.66900000000000       11.53900000000000
C           -6.07900000000000       25.38400000000000       11.66600000000000
C           -6.71700000000000       25.55000000000000       10.36600000000000
C           -8.44700000000000       26.36000000000000        8.87900000000000
C           -9.66300000000000       27.11300000000000        8.60600000000000
C           -9.95300000000000       26.87200000000000        7.29100000000000
C           -8.93900000000000       26.02700000000000        6.75700000000000
C           -7.81400000000000       24.95000000000000        4.86800000000000
C           -7.69100000000000       24.59800000000000        3.46100000000000
C           -6.46400000000000       24.05100000000000        3.25800000000000
C           -5.79900000000000       24.07200000000000        4.53000000000000
C           -4.50000000000000       23.64200000000000        4.76300000000000
H           -3.90000000000000       23.38000000000000        3.89100000000000
C           -3.83300000000000       23.64699999999999        9.55000000000000
H           -3.11200000000000       23.18800000000000       10.22600000000000
C           -7.83000000000000       26.28300000000000       10.08100000000000
H           -8.26400000000000       26.86100000000000       10.89700000000000
C           -8.89600000000000       25.58700000000000        5.46800000000000
H           -9.78300000000000       25.74700000000000        4.85600000000000
C           -1.26600000000000       22.31100000000000        8.33300000000000
H           -0.39300000000000       22.27800000000000        7.64700000000000
H           -1.49000000000000       21.28000000000000        8.68100000000000
H           -1.01900000000000       22.95900000000000        9.20100000000000
C           -1.63700000000000       22.42700000000000        5.14400000000000
H           -1.08800000000000       23.29400000000000        4.71700000000000
H           -2.21400000000000       21.93200000000000        4.33400000000000
H           -0.90300000000000       21.71500000000000        5.57800000000000
C           -3.98200000000000       24.20700000000000       12.61900000000000
H           -3.16400000000000       24.95200000000000       12.72000000000000
H           -3.54300000000000       23.22700000000000       12.33300000000000
H           -4.51000000000000       24.11700000000000       13.59300000000000
C           -6.71500000000000       26.01500000000000       12.89200000000000
H           -7.79700000000000       26.21000000000000       12.90300000000000
C           -6.01600000000000       26.35100000000000       13.97700000000000
H           -4.93100000000000       26.17700000000000       14.01800000000000
H           -6.51600000000000       26.80600000000000       14.84400000000000
C          -10.41000000000000       28.00800000000000        9.60500000000000
H           -9.72500000000000       28.29100000000000       10.43300000000000
H          -11.27700000000000       27.45700000000000       10.02700000000000
H          -10.75900000000000       28.93100000000000        9.09400000000000
C          -11.13900000000000       27.39500000000000        6.47900000000000
H          -11.13500000000000       27.23000000000000        5.39200000000000
C          -12.19400000000000       28.04200000000000        6.97000000000000
H          -12.27200000000000       28.24600000000000        8.04800000000000
H          -13.00100000000000       28.38100000000000        6.30400000000000
C           -8.85400000000000       24.82200000000000        2.48500000000000
H           -9.11300000000000       25.90200000000000        2.45900000000000
H           -9.74300000000000       24.24600000000000        2.82200000000000
H           -8.55600000000000       24.49800000000000        1.46500000000000
C           -5.85100000000000       23.47300000000000        1.95400000000000
H           -5.17500000000000       24.22700000000000        1.49600000000000
H           -6.66100000000000       23.23100000000000        1.23400000000000
H           -5.26500000000000       22.55900000000000        2.18800000000000
O           -7.24500000000000       22.85200000000000        7.70800000000000
H           -7.35800000000000       22.73400000000000        8.65100000000000
H           -7.49300000000000       22.28100000000000        7.07300000000000
C           -3.62700000000000       26.96600000000000        6.76100000000000
H           -3.06100000000000       27.84200000000000        7.14400000000000
H           -3.56500000000000       26.97500000000000        5.65200000000000
H           -3.13700000000000       26.04600000000000        7.14400000000000
S           -5.36000000000000       27.01900000000000        7.29100000000000
H           -5.09800000000000       26.77199999999999        8.56600000000000
72
 energy: -105.957204650534 gnorm: 0.094413378850 xtb: 6.7.1 (edcfbbe)
Fe          -6.25738952014413       24.82809811054037        7.45033559612338
N           -4.49779353776111       23.87179983018218        7.20085279931816
N           -5.93604994728670       24.88671280363601        9.43552053030860
N           -8.00458930273173       25.75444623744032        7.72161633744049
N           -6.63946954230451       24.63234423389353        5.48844276043642
C           -3.90449681477767       23.52331434500692        6.00442240274692
C           -2.60658500190668       22.91933085721302        6.23798480148969
C           -2.45914073316107       22.87530048710925        7.58985900207894
C           -3.63077654626525       23.47459974440027        8.18576526495004
C           -4.88620258501609       24.35019328566576       10.12569963902563
C           -4.97093465724300       24.65857261812775       11.54037239816311
C           -6.10040355238996       25.40122003296049       11.68313381163156
C           -6.70263674069756       25.55051351775249       10.37067622001949
C           -8.44874152467563       26.38034830689308        8.85876210645787
C           -9.67010628137338       27.11925510887901        8.59777980838800
C           -9.98029418101824       26.87791853351444        7.28400758217828
C           -8.93988875544879       26.03309193256217        6.75314127764936
C           -7.79606384140648       24.94799838032909        4.85829437029141
C           -7.70607874143977       24.58969886227997        3.45403326911669
C           -6.47040873161448       24.05304127170238        3.25308421929017
C           -5.80038900670631       24.08988221763668        4.53044395501365
C           -4.50709062588098       23.65262107477442        4.76652654658438
H           -3.91649173068249       23.37083374594564        3.90099263342129
C           -3.83639166065095       23.64179573898499        9.54295262301753
H           -3.10664555277456       23.20587364610174       10.21503810689685
C           -7.82854204718649       26.28879711773014       10.08387853971678
H           -8.26940281326902       26.84781819838591       10.90106312692008
C           -8.88370854898447       25.57908001055549        5.45501327124657
H           -9.75953039356163       25.75074270040679        4.84078425971977
C           -1.27306415858129       22.31727384361199        8.33213195235404
H           -0.40611177052322       22.27857815496939        7.66619529906873
H           -1.48508795798334       21.30042300060002        8.68280566045640
H           -1.02107252425534       22.94444290286323        9.19257500205148
C           -1.65710989270579       22.43801136931279        5.16230949704077
H           -1.10588048765288       23.28207894763042        4.72862509519516
H           -2.20610043044351       21.94115913504044        4.35644724161108
H           -0.92773740262766       21.73130277039804        5.57112575808507
C           -3.99498159915671       24.20820315642879       12.59883115420326
H           -3.18118183679403       24.93640474326214       12.71114595519656
H           -3.55309820984207       23.24210411284053       12.33689155132347
H           -4.50340740717872       24.11183174321359       13.56394247311249
C           -6.70182649816639       26.00718683441308       12.89091187579380
H           -7.77342416435282       26.19586620292568       12.88067821192253
C           -6.01418552787716       26.34579647261512       13.97595556755513
H           -4.94400212601169       26.19914172291347       14.02862131950066
H           -6.50295866744588       26.79712465124245       14.83216558163993
C          -10.39007922170045       27.99313056265683        9.59660721935099
H           -9.72982837273602       28.28107138158876       10.42013384983816
H          -11.25573490662715       27.46643229298112       10.01778432742528
H          -10.73675328096874       28.91044269812311        9.10968553792185
C          -11.12764734462740       27.38987858625646        6.49376307213616
H          -11.10410360452780       27.21888922987459        5.41837288549277
C          -12.18692919931992       28.03541228379883        6.97255945795338
H          -12.29943268239307       28.23702310443207        8.02712873042661
H          -12.98164918498958       28.37353266475018        6.31610729186433
C           -8.84153079608849       24.81719895949094        2.48810794483813
H           -9.10504576700391       25.88062458744465        2.45814987792469
H           -9.72492845357651       24.25440684885806        2.81036049390007
H           -8.56305676814000       24.50080801579296        1.47951974845617
C           -5.86468834164784       23.48886960046204        1.97785629842629
H           -5.19146558162663       24.21864111138748        1.51162071192444
H           -6.64792293753295       23.23844921516086        1.25622040740732
H           -5.28670031815792       22.58325751013882        2.19095921179369
O           -7.23926402299387       22.86610885094212        7.72619619569608
H           -7.36892308855675       22.71243775820657        8.65905476965697
H           -7.50661063007859       22.25351684276255        7.06559452428381
C           -3.60674416673213       26.96320779514077        6.76124199379148
H           -3.07308450607100       27.84073793765955        7.14173793076281
H           -3.57432860344806       26.97014899633792        5.66839709465239
H           -3.13606500739806       26.05081280814560        7.13440297100399
S           -5.34558227549173       26.99462574449166        7.28637178638795
H           -5.07842735760769       26.82016189822402        8.57922921093254
72
 energy: -105.968358022523 gnorm: 0.024239064358 xtb: 6.7.1 (edcfbbe)
Fe          -6.26324917516249       24.81725540655353        7.44637057176980
N           -4.49898965254650       23.86568811675319        7.19371399974767
N           -5.93627927225105       24.88104474722615        9.44184011077420
N           -8.01543397851377       25.76050798803141        7.71139668814975
N           -6.62786846004881       24.62639338034520        5.48960254811141
C           -3.91540040459414       23.52843163521786        6.01091582517680
C           -2.61982628851252       22.92259361893473        6.23737966907834
C           -2.45367824186161       22.87335964469913        7.58914231821825
C           -3.63704536358616       23.46980404167887        8.17398164722375
C           -4.88779079178832       24.33818337478329       10.12167860498548
C           -4.97951620419844       24.64765314435683       11.53240295716570
C           -6.11241203663530       25.41183992509294       11.68660239422925
C           -6.69425044259509       25.54271791672439       10.36590299762862
C           -8.44498287013976       26.38658350541548        8.84193931098301
C           -9.66542618712784       27.11963869073001        8.59309986287381
C           -9.99653965364961       26.87866424740420        7.28085364971802
C           -8.93810198559371       26.03173443597814        6.75189266091678
C           -7.78577582873032       24.94208034997806        4.85950982368149
C           -7.71578684236060       24.58592168827846        3.45639586538579
C           -6.47427376180379       24.06025478882397        3.25543377342108
C           -5.80485350825924       24.10372450229109        4.53918271185506
C           -4.51418871907852       23.66215670069706        4.77112651625409
H           -3.93470994632521       23.35566637333929        3.91070866151878
C           -3.83805139583458       23.64510922885670        9.53473092306470
H           -3.09407574643868       23.23232512125728       10.20052283469541
C           -7.82569294547382       26.28644632037678       10.07942946182163
H           -8.27574067692589       26.82584476281713       10.89926723141629
C           -8.87156281351352       25.57525323851493        5.44680173136899
H           -9.73135494716348       25.76481552420808        4.82171189596849
C           -1.28279014365505       22.32465159079457        8.33322317260818
H           -0.41534726061453       22.28010560391018        7.68141270818673
H           -1.49090684084393       21.31642328619385        8.68968434110062
H           -1.03254615325631       22.94270888938678        9.19015390710120
C           -1.68105165411342       22.44995379987670        5.17705276143606
H           -1.13163097376307       23.28565607522265        4.74228478205006
H           -2.21658976203102       21.95013582896041        4.37435122131003
H           -0.95636765300178       21.74816715557320        5.58103697109506
C           -4.01254134268439       24.20431989751706       12.57715423608906
H           -3.20279037809894       24.92681216477877       12.69156134741199
H           -3.56800793326316       23.24606115425507       12.32420504925032
H           -4.51177877100115       24.10570782274466       13.53784189530288
C           -6.68253598644292       25.99871011283049       12.87939858427237
H           -7.75020711222363       26.17453009234459       12.85300555452279
C           -6.00718411264698       26.34575828385817       13.97016539043902
H           -4.94380641989275       26.22409446920215       14.04086674628062
H           -6.49756524715774       26.78122099248500       14.82301796867965
C          -10.36661824621535       27.98006195762063        9.58798722378525
H           -9.71356180101788       28.25802611479230       10.40903633185906
H          -11.23410243902988       27.46653929577219       10.00519015360008
H          -10.70958159429036       28.89726959759136        9.11501726457546
C          -11.11209442143532       27.37677141470938        6.51087085704951
H          -11.06224680861738       27.20524928336138        5.44267979886657
C          -12.18258964146640       28.01930373752073        6.97452091685780
H          -12.33379369603369       28.22078380850160        8.01530297874231
H          -12.95939182233651       28.36459535598031        6.31431304471290
C           -8.82943121798706       24.80966535069831        2.49305243989958
H           -9.09255947534132       25.86540754155616        2.45892190674161
H           -9.71438315229086       24.25513900297144        2.80102440530538
H           -8.55531910176126       24.49624853500843        1.49160506105093
C           -5.87863334734956       23.50688417689052        2.00232066567608
H           -5.20533850998551       24.22624788170355        1.53659703473274
H           -6.65172808520421       23.25620992864719        1.28139168606952
H           -5.30797117916953       22.60394717732174        2.20876326235294
O           -7.22755862560706       22.89102049177718        7.74449102640042
H           -7.38782428767644       22.67641957609791        8.66531806097279
H           -7.50785435295409       22.25949226274202        7.08016244056038
C           -3.58581693959554       26.95798741739406        6.75771963831412
H           -3.07742295770971       27.83729945470245        7.13903073917550
H           -3.57678739729950       26.96486797020653        5.67441605673456
H           -3.12663977976194       26.04996119434648        7.12612670804166
S           -5.33110824389717       27.00900541739700        7.27808856059879
H           -5.06713699056283       26.89088641539058        8.58509785298499
72
 energy: -105.970910808091 gnorm: 0.018893367856 xtb: 6.7.1 (edcfbbe)
Fe          -6.26934822791668       24.80526438170096        7.44470239077761
N           -4.50155502108001       23.86945470210415        7.19447864539241
N           -5.93538577166987       24.88299602542123        9.43805076435690
N           -8.01798856241614       25.75852001102036        7.70575607530093
N           -6.62784927299499       24.63022531458311        5.49368084955213
C           -3.92408597174804       23.52887369148133        6.01382672145605
C           -2.62906940331948       22.92565989224918        6.23877607087355
C           -2.45669545137303       22.87859078788129        7.58917553132823
C           -3.63983461562132       23.47554951662814        8.17174266468249
C           -4.88789700835461       24.33684159593023       10.11609216564649
C           -4.97975184840899       24.64312200749491       11.52235520087900
C           -6.10927234595863       25.41265977528193       11.67979154873765
C           -6.69066322058886       25.53992699606250       10.35891154072606
C           -8.43994793143981       26.38291325788064        8.83777589376552
C           -9.65783655893468       27.11420191925798        8.59520242497537
C           -9.99735721514468       26.87650348296521        7.28410942030391
C           -8.93713807834177       26.03194505376069        6.75064336639436
C           -7.78604378865283       24.94708399462889        4.86371282234392
C           -7.71786610386828       24.58828298582355        3.46293129890087
C           -6.47632502004091       24.06752151734861        3.26193734954524
C           -5.80810457995294       24.10867808601505        4.54634123729786
C           -4.52022319266672       23.65849242139897        4.77250650684623
H           -3.94688852444515       23.33983517992752        3.91380435023648
C           -3.83499614175042       23.65172112847061        9.53032487398015
H           -3.07715725331841       23.25628363156936       10.19117929304742
C           -7.82429316427047       26.28033732649690       10.07580347676313
H           -8.28260201536542       26.80623319728675       10.89919071699212
C           -8.86855158596851       25.58369604815111        5.44294616532508
H           -9.71620782830119       25.78674445059560        4.80590719023118
C           -1.29106974030763       22.33138382473124        8.33938480672312
H           -0.41772201654353       22.28036716333733        7.69378206203217
H           -1.50435809059400       21.32535735847735        8.70291665895394
H           -1.04517028398676       22.95418961055907        9.19577687124302
C           -1.69534753998540       22.45517697497944        5.17827794099160
H           -1.15236081458668       23.29525949494737        4.74250410881350
H           -2.23349953220164       21.95160877888286        4.37850459623265
H           -0.96963046905067       21.75738731410970        5.58846727943001
C           -4.02014010379474       24.19288628736521       12.56557992242156
H           -3.21129233842462       24.91701340403061       12.68067892147048
H           -3.57736789058366       23.23407889370566       12.30699230461577
H           -4.52531112058500       24.09372970425747       13.52395449610060
C           -6.67317611192145       25.99109920548889       12.87489454698288
H           -7.74277603407075       26.15834978139527       12.84581700359401
C           -6.00368460619282       26.34236604493122       13.96944578586297
H           -4.93440865624636       26.25278314458989       14.04239640848282
H           -6.50305338487278       26.76949746368382       14.82188592241788
C          -10.34814046095786       27.97586447789095        9.59161346492206
H           -9.68817270374449       28.23649514376927       10.41419848695412
H          -11.22268727659767       27.46789251704674       10.00256111510572
H          -10.67841561421432       28.90051348114806        9.12161276038662
C          -11.10604046884527       27.37289779141681        6.51331791648649
H          -11.03588524183434       27.20560545019666        5.44532914768005
C          -12.18949973228744       28.00518326303553        6.96466147690432
H          -12.37841602669192       28.18413890151272        8.00737932534790
H          -12.95366321996221       28.35148838210831        6.28982999391157
C           -8.82562306138781       24.80481393837568        2.49331506058609
H           -9.08734408367101       25.86165480767603        2.45171191005350
H           -9.71454375091496       24.25084362934015        2.79524106039346
H           -8.54139635467571       24.48560363689699        1.49501131029932
C           -5.88300506406878       23.51894117406851        2.01123619993902
H           -5.20585609744400       24.23985858357949        1.55190914448314
H           -6.66011253795681       23.27624088007083        1.29072096432561
H           -5.31820943613469       22.61192373300329        2.21947975732392
O           -7.22999044222015       22.88303014016500        7.76447394911803
H           -7.41438892317806       22.63100913009644        8.67445935760343
H           -7.52065283839071       22.25254153110894        7.10248403106838
C           -3.56953298966704       26.95378187355543        6.75275077408027
H           -3.06597064103690       27.83991695397338        7.12465143676054
H           -3.57140108888964       26.95031509417756        5.66866472862550
H           -3.10693430112463       26.04922548632692        7.12671838669230
S           -5.31684951642186       27.00654372503027        7.27888651139754
H           -5.03996368982034       27.00498344554074        8.60386553652391
72
 energy: -105.972269505006 gnorm: 0.014300165777 xtb: 6.7.1 (edcfbbe)
Fe          -6.26052746008051       24.81860429989606        7.44647425784084
N           -4.50694208880191       23.87506218350822        7.19738550236122
N           -5.93017227437573       24.89121401685197        9.43205226048364
N           -8.01508133712131       25.75834330432811        7.70059272196287
N           -6.62895085836559       24.63376446753364        5.50476442663562
C           -3.93380760850775       23.52770303317496        6.01763678310530
C           -2.63916703091414       22.92627524441189        6.24086364654418
C           -2.46086228974996       22.88558554265672        7.58949750668292
C           -3.64199329664034       23.48456268144965        8.17101381712970
C           -4.88522516331750       24.34105998327139       10.11046012277250
C           -4.97851277517756       24.64094848685197       11.51330870405039
C           -6.10469992266737       25.41238414856165       11.67303490482543
C           -6.68681389070423       25.53909039973854       10.35227730692600
C           -8.43541017470507       26.37697219823255        8.83599220715013
C           -9.65265833424631       27.10564574559924        8.59857900627301
C           -9.99674255874484       26.87243857663112        7.28881816955582
C           -8.93558803283129       26.03303282205586        6.75036180577496
C           -7.78689446848240       24.95207557820166        4.87178302639369
C           -7.71873871482909       24.59147328643840        3.47258228672027
C           -6.47845088980640       24.07337463106309        3.27212859699811
C           -5.81180931179758       24.11134713531582        4.55681945594628
C           -4.52708770498707       23.65216480160911        4.77528666405360
H           -3.96063578315325       23.32264720866389        3.91770955574922
C           -3.82782704087229       23.66408472384715        9.52716585616092
H           -3.05902468362594       23.28330607156925       10.18305110833178
C           -7.82455942827295       26.27238670267635       10.07383158746483
H           -8.29112490343832       26.78457854487254       10.90073168818940
C           -8.86641381291581       25.59523123699582        5.44051517545227
H           -9.70140472923845       25.80979595704731        4.79097126127304
C           -1.30007456655639       22.34137683230042        8.34873536907258
H           -0.42126155285184       22.27999728804375        7.70998207561121
H           -1.52070179201914       21.33946506165338        8.72261511708456
H           -1.05748427046478       22.97251982935617        9.20160147222006
C           -1.70962513441409       22.45787496026806        5.17681407101090
H           -1.17671175431152       23.30214650569754        4.73542434993757
H           -2.25063503474253       21.94807588161367        4.38218275249035
H           -0.97761560508321       21.76706530420729        5.58839083603780
C           -4.02626734497845       24.17902076265197       12.55675071881733
H           -3.21434946105357       24.89920416816239       12.67793450484488
H           -3.58872808436183       23.21863140556917       12.29175033575341
H           -4.53829998297312       24.07820613167154       13.51181816415496
C           -6.66539420653603       25.98569955475510       12.87167490430661
H           -7.73931544132181       26.13193749788340       12.84962013006500
C           -5.99790463228515       26.34838425059874       13.96380040213098
H           -4.92736834721064       26.27322031194315       14.04291017476568
H           -6.50793587058711       26.75443393874252       14.82183971871356
C          -10.33656857555026       27.97118745070022        9.59483824532432
H           -9.67159541532214       28.22025746317320       10.41833753577255
H          -11.21660049865436       27.47138298661815       10.00379432271134
H          -10.65776009069325       28.89921808811349        9.12385265093995
C          -11.10322097326089       27.36745066408669        6.51489942939090
H          -11.00813902740266       27.22275958116691        5.44456904309720
C          -12.20176620359394       27.97786833889495        6.95929573821495
H          -12.40827897033155       28.15184797610599        7.99969122386865
H          -12.95167959722904       28.33154618542435        6.27044889160886
C           -8.82119370413367       24.80060993889522        2.49400041491275
H           -9.08336363881136       25.85764007787250        2.43938956878237
H           -9.71307044496100       24.24722122777835        2.79073760346894
H           -8.52610424842501       24.47223910175129        1.50034803032957
C           -5.88500695255600       23.53141648219735        2.01943573596315
H           -5.20151713566027       24.25301688493669        1.56940808164957
H           -6.66354447599800       23.30172226260403        1.29526470381407
H           -5.32807712344601       22.61801849986719        2.22311933329465
O           -7.22055405301972       22.87451762877599        7.78356566579723
H           -7.44463043145001       22.59726915840333        8.67854092356240
H           -7.54291797072633       22.24964294218989        7.12902646134220
C           -3.55178086829564       26.95176289547942        6.74507785050248
H           -3.04263137693805       27.83815623234810        7.10731250266010
H           -3.55918314692720       26.93751352066768        5.66056296087346
H           -3.09141347640030       26.04680068630687        7.12470767694094
S           -5.30231825885597       27.02696335902441        7.26920995494788
H           -5.03428369123539       27.06155766844541        8.59003094040436
72
 energy: -105.972964806334 gnorm: 0.012106016681 xtb: 6.7.1 (edcfbbe)
Fe          -6.25849801564928       24.81838043360942        7.45052492741112
N           -4.50895510751864       23.88262827097379        7.19993732662330
N           -5.92248220600368       24.90283763975397        9.42610305261930
N           -8.01061622066532       25.75879271087891        7.69930716318686
N           -6.63136016058536       24.63534377807936        5.51198912750910
C           -3.93800231279356       23.52800263419896        6.01955524800278
C           -2.64373702085712       22.92548964839840        6.24171331851499
C           -2.46124557066131       22.89372166040280        7.58924992987152
C           -3.63837747920457       23.49806665712977        8.17122077022876
C           -4.87828271213784       24.35307986266258       10.10658512716493
C           -4.97588223883931       24.64267066907896       11.50970785403794
C           -6.10139638252902       25.41014302879980       11.67030098692879
C           -6.68227060280921       25.54378120322195       10.34889487838403
C           -8.43300815635567       26.37370457964246        8.83764935216550
C           -9.65176823004472       27.10060849157450        8.60225575460216
C           -9.99324774756041       26.87351975896470        7.29200905154539
C           -8.93343985345048       26.03766051872568        6.75061104276809
C           -7.78786596608301       24.95773674323871        4.87610853088000
C           -7.71785605420898       24.59625839570417        3.47731038240900