87
 energy: -124.534612297777 gnorm: 0.340382851632 xtb: 6.7.1 (edcfbbe)
Fe           2.73500000000000       21.17300000000000       13.30600000000000
N            4.16400000000000       20.07900000000000       12.43700000000000
N            1.99000000000000       21.64900000000000       11.43400000000000
N            1.11500000000000       22.00900000000000       14.12200000000000
N            3.20400000000000       20.36499999999999       15.13700000000000
C            4.86000000000000       19.03600000000000       13.01900000000000
C            5.62500000000000       18.32100000000000       12.01000000000000
C            5.27700000000000       18.87200000000000       10.79600000000000
C            4.34700000000000       19.93300000000000       11.02600000000000
C            2.70800000000000       21.52300000000000       10.27000000000000
C            1.99300000000000       22.26100000000000        9.21700000000000
C            0.84500000000000       22.65900000000000        9.73800000000000
C            0.84400000000000       22.31400000000000       11.15600000000000
C            0.06600000000000       22.57500000000000       13.46100000000000
C           -0.64800000000000       23.45300000000000       14.40300000000000
C           -0.10300000000000       23.28400000000000       15.62300000000000
C            0.96600000000000       22.31500000000000       15.46900000000000
C            2.73700000000000       20.77900000000000       16.36700000000000
C            3.34300000000000       19.91500000000000       17.40600000000000
C            4.18900000000000       19.08900000000000       16.81200000000000
C            4.07900000000000       19.32900000000000       15.37100000000000
C            4.85000000000000       18.76900000000000       14.36800000000000
H            5.55300000000000       18.00400000000000       14.69500000000000
C            3.88200000000000       20.80800000000000       10.06200000000000
H            4.43800000000000       20.93800000000000        9.13500000000000
C           -0.16800000000000       22.58700000000000       12.06500000000000
H           -1.16700000000000       22.81600000000000       11.69500000000000
C            1.76200000000000       21.76900000000000       16.50600000000000
H            1.59700000000000       22.16000000000000       17.51000000000000
C            5.78600000000000       18.43300000000000        9.41100000000000
H            6.01800000000000       17.34700000000000        9.42800000000000
H            6.71000000000000       18.99400000000000        9.15500000000000
H            5.00300000000000       18.62200000000000        8.64600000000000
C            6.54000000000000       17.12100000000000       12.26600000000000
H            5.92600000000000       16.19900000000000       12.35500000000000
H            7.10200000000000       17.27200000000000       13.21200000000000
H            7.24900000000000       17.00200000000000       11.41900000000000
C            2.53400000000000       22.35600000000000        7.76600000000000
H            2.45300000000000       21.36300000000000        7.27400000000000
H            3.60100000000000       22.66400000000000        7.78300000000000
H            1.93500000000000       23.09300000000000        7.19000000000000
C           -0.26200000000000       23.47200000000000        9.06500000000000
H           -0.59400000000000       24.45700000000000        9.41900000000000
C           -0.89100000000000       22.80300000000000        7.83400000000000
H           -0.54300000000000       21.81600000000000        7.49600000000000
H           -1.69600000000000       23.30400000000000        7.27700000000000
C           -1.79700000000000       24.39600000000000       13.92200000000000
H           -2.73600000000000       23.81200000000000       13.81400000000000
H           -1.53200000000000       24.83800000000000       12.93800000000000
H           -1.95900000000000       25.20200000000000       14.66900000000000
C           -0.51100000000000       23.93000000000000       16.96700000000000
H            0.24800000000000       24.23900000000000       17.70000000000000
C           -1.97700000000000       24.14700000000000       17.29100000000000
H           -2.75700000000000       23.84800000000000       16.57600000000000
H           -2.27600000000000       24.60600000000000       18.24500000000000
C            2.99700000000000       20.08299999999999       18.90000000000000
H            1.89300000000000       20.10800000000000       19.02500000000000
H            3.42400000000000       21.03600000000000       19.27900000000000
H            3.40500000000000       19.22700000000000       19.47800000000000
C            5.11800000000000       18.03100000000000       17.45000000000000
H            4.65500000000000       17.02600000000000       17.35500000000000
H            5.26400000000000       18.26000000000000       18.52700000000000
H            6.09800000000000       18.02700000000000       16.92600000000000
C            5.31400000000000       25.89700000000000       12.74200000000000
H            5.84100000000000       25.94800000000000       11.76500000000000
H            5.99100000000000       26.27600000000000       13.53700000000000
H            4.39900000000000       26.52600000000000       12.69100000000000
N            5.91200000000000       23.52900000000000       13.12900000000000
H            6.89800000000000       23.66000000000000       13.02800000000000
C            4.94800000000000       24.52100000000000       13.02400000000000
C            5.25300000000000       22.35500000000000       13.39400000000000
H            5.75100000000000       21.40500000000000       13.58500000000000
N            3.96600000000000       22.57000000000000       13.37800000000000
C            3.74500000000000       23.90800000000000       13.11100000000000
H            2.74000000000000       24.29799999999999       13.00800000000000
C            0.40300000000000       17.74900000000000       15.27800000000000
H           -0.02600000000000       17.70700000000000       16.30200000000000
H            1.31600000000000       17.11600000000000       15.25000000000000
H           -0.34900000000000       17.35400000000000       14.56200000000000
C            0.75200000000000       19.16500000000000       14.92300000000000
H            1.49800000000000       19.55100000000000       15.65000000000000
H           -0.16000000000000       19.79500000000000       14.99300000000000
S            1.47400000000000       19.23200000000000       13.12500000000000
C           -0.18800000000000       19.63400000000000       12.47800000000000
H           -0.72100000000000       20.34400000000000       13.14700000000000
H           -0.80200000000000       18.71200000000000       12.39800000000000
H           -0.10600000000000       20.10400000000000       11.47500000000000
87
 energy: -124.646018735716 gnorm: 0.158655664136 xtb: 6.7.1 (edcfbbe)
Fe           2.70505660951858       21.11345426943362       13.29818590317967
N            4.13693154834261       20.04192332532678       12.41577238593341
N            2.00717730498855       21.67048915017200       11.43160205907616
N            1.12374895610248       22.03539669960269       14.13497089177164
N            3.24453881073329       20.39447835154307       15.14540768886640
C            4.86268026082222       19.03950681397773       13.00866593033351
C            5.62128750576025       18.31408382346708       12.00661445260192
C            5.29208430614796       18.86941408587075       10.79648091803550
C            4.37485514050072       19.94512351561492       11.04348276421951
C            2.71374188141160       21.55184749152108       10.27024636674954
C            1.99653821244261       22.25030345335449        9.19994817018469
C            0.82115831626006       22.67169840792812        9.72354227099040
C            0.84775474449335       22.31855193742316       11.14843942028764
C            0.08481777569823       22.61534321636981       13.47111760292117
C           -0.67477831039493       23.44822196488192       14.40481148107282
C           -0.12404210598011       23.28693833088583       15.64814809797282
C            0.98592342510456       22.34430167918149       15.47365643858521
C            2.74616032156036       20.79065179452749       16.36186085341228
C            3.33824513311719       19.94341496633634       17.41159215691231
C            4.19100333423882       19.08575448741644       16.80554750118031
C            4.10410925672753       19.35766893386680       15.37192697858937
C            4.86150576186842       18.76973586667240       14.36909181323259
H            5.54952974185466       17.99658355608843       14.69457295109757
C            3.87863336536224       20.81927596924637       10.08011323309606
H            4.41245235272121       20.91714339006738        9.13861733138857
C           -0.14791518970953       22.60209805296224       12.07710209203562
H           -1.14279053466701       22.84012248944400       11.70640113709658
C            1.76867246718188       21.78310125189989       16.49892687678292
H            1.58552074232614       22.15005860034149       17.50427560751177
C            5.78109487809386       18.43555772811241        9.42604084844964
H            6.01370932506095       17.36327826876698        9.42816182385198
H            6.69449464138547       18.98600671462830        9.15802762302207
H            5.01630598002474       18.62166298414364        8.66117082063615
C            6.52932781563599       17.13245624451586       12.26435748274054
H            5.93462005978737       16.21204054616023       12.35501611492294
H            7.09381212331201       17.27005290995233       13.19593594742303
H            7.23728684728416       17.00588195007652       11.43510098806103
C            2.52699639777008       22.35467055074808        7.77937374251192
H            2.45400886670360       21.37718131614661        7.28323028147737
H            3.58155423530931       22.66087304965635        7.78473590642662
H            1.94181046904824       23.08192254045841        7.20279473519232
C           -0.27686973377244       23.41047281844073        9.01608718053877
H           -0.58985933012138       24.39560904354489        9.38936643029864
C           -0.86329845041959       22.83617219861572        7.88616061307461
H           -0.54180751286310       21.85635128820372        7.52950832654804
H           -1.66448614176715       23.30947083390194        7.31560691566703
C           -1.78693886867563       24.38194722537366       13.93182536243055
H           -2.72292426931371       23.81886809644575       13.81525343583166
H           -1.53208543292932       24.82718539664518       12.96006748087252
H           -1.95234280316125       25.18572297356198       14.66020274976762
C           -0.57033144157697       23.91903265688201       16.94555526523565
H            0.20306124657543       24.21987622525562       17.66594742666357
C           -1.90998664766170       24.13736313843427       17.26880419797958
H           -2.71144342871992       23.84877925710522       16.58881128732896
H           -2.23240757647674       24.58953600449474       18.21130776809977
C            2.99877482868578       20.08457190930017       18.88478570533279
H            1.90946181173374       20.10916144065043       19.02082139618026
H            3.41797024222976       21.02159696434353       19.27492802137747
H            3.39960522482683       19.24316811607344       19.46505876890180
C            5.10212339838133       18.04200878439778       17.43912483340477
H            4.65972242333124       17.04005499531216       17.35375480689507
H            5.25933425548999       18.25913021644995       18.50422435204299
H            6.07853493391351       18.02967202894493       16.93588385342085
C            5.31764548894706       25.90575983378846       12.73585625425168
H            5.84000056143442       25.96215456735718       11.77207044840727
H            5.98417796537161       26.28292136471671       13.52345315025938
H            4.41504770811492       26.52491939496823       12.69113484984926
N            5.90389098161918       23.52944059270234       13.14151313716973
H            6.89520938510241       23.66045671311935       13.03839725763331
C            4.94838851731078       24.51181535862955       13.01011910734771
C            5.24654973428101       22.36214213862816       13.39576900637642
H            5.74459933675329       21.42409233555468       13.58331053907734
N            3.94850427419493       22.55436793996374       13.37210256406943
C            3.74329386093684       23.89251545023370       13.11879046824158
H            2.74812334067687       24.28909845703076       13.01888479210815
C            0.39524440202404       17.72919892839595       15.27929806581213
H           -0.02382058001788       17.69901184041671       16.29262453900687
H            1.30065571322539       17.11273764743060       15.24980802744214
H           -0.34422254823379       17.34007528366249       14.57224988211384
C            0.73393393514259       19.14495101696509       14.93120698843049
H            1.47731298515563       19.53232168450982       15.62616909465249
H           -0.14959227183802       19.79065215254814       14.98091175690846
S            1.41820234435900       19.23371435944583       13.17150262403593
C           -0.20891272824337       19.62725057278069       12.46307751784689
H           -0.71572318321470       20.33327877354887       13.12925845789397
H           -0.79901489014290       18.70950120592363       12.39355093164252
H           -0.10292383461780       20.08760009651199       11.47778667169649
87
 energy: -124.678874976535 gnorm: 0.107142177268 xtb: 6.7.1 (edcfbbe)
Fe           2.67789663031134       21.07336195567394       13.29064233544318
N            4.10921149444349       20.00871486525606       12.40004229613276
N            2.02065544714411       21.68792491108501       11.43463548012845
N            1.13647819231211       22.06794421530365       14.14706004692055
N            3.27121216867277       20.42047765742012       15.14165578465001
C            4.85146705656271       19.03557025377917       13.00193271301161
C            5.61668994518348       18.31078119385457       12.00638679180034
C            5.30835235918829       18.87364607822813       10.79933247417575
C            4.38743312403300       19.95236929971052       11.06598222503230
C            2.71902654429874       21.57910882066142       10.27707445981737
C            1.99951214219509       22.23853224056253        9.19586451364567
C            0.80675796832124       22.66809209631768        9.71673421312789
C            0.85662712575239       22.32665844329230       11.14534773918119
C            0.10692498184260       22.65711025486823       13.48108622587263
C           -0.68824549328180       23.44576689019109       14.40658273233524
C           -0.13746759615573       23.28789344881712       15.66257405588209
C            1.00292874939880       22.37067237949099       15.47578285193867
C            2.76428306204933       20.81255649022424       16.34836223271535
C            3.33826657659790       19.97639651126407       17.40378951634595
C            4.19525086513748       19.09951453286187       16.79409535320502
C            4.12998047840227       19.39432016288746       15.36887316629123
C            4.86887565741842       18.76964401268192       14.36879145457797
H            5.54352222528144       17.98848243010467       14.69255216887964
C            3.87058819476411       20.82358568597579       10.10464123620176
H            4.37848739661766       20.88048804596268        9.14577611109037
C           -0.11803957221872       22.63173441790521       12.09204910277279
H           -1.10554351917362       22.89103032108357       11.72191961048282
C            1.77840370724651       21.80154554107760       16.49012422179820
H            1.56951186088492       22.13456122793965       17.50071712096555
C            5.78041666902204       18.44253325700080        9.44224699190747
H            6.01054561610417       17.37779009425974        9.43596896453493
H            6.68599881418048       18.98499726316210        9.15994351039282
H            5.02251490239217       18.62641435907605        8.68195044473670
C            6.51829917164768       17.14330975266519       12.26358896888790
H            5.93655885005897       16.22327218447980       12.35601556412866
H            7.08394638520065       17.27470080734010       13.18566937318785
H            7.22555105264957       17.01394001509612       11.44512329293923
C            2.51665142887985       22.35191262405549        7.79701674883212
H            2.45347297652493       21.38610564619774        7.29111594022443
H            3.56344077390401       22.65969004630341        7.79243270656675
H            1.93995512372367       23.07350547981458        7.22002416798310
C           -0.27883342966460       23.35675582833488        8.98519700667770
H           -0.58323056005813       24.33476535362827        9.37796050554768
C           -0.83434971163285       22.85208800408287        7.94013313692809
H           -0.53713288781703       21.88158873007414        7.55461714534013
H           -1.62527998138450       23.31993954111666        7.36091321096880
C           -1.77919554830708       24.36337263675168       13.94705322500547
H           -2.71793511424827       23.82028621440459       13.81935632102540
H           -1.52560563404619       24.81142508174149       12.98411228897651
H           -1.94428515424605       25.16729949669731       14.66292345638310
C           -0.60539903219048       23.90161672737227       16.92126662632662
H            0.17822013685157       24.19087319017409       17.62976459854479
C           -1.84946365496814       24.11643146920031       17.23605304694286
H           -2.67530306105732       23.84217160246087       16.58875988011208
H           -2.17753737975443       24.57420333807698       18.16794495503290
C            3.00121719226127       20.09085672263692       18.86104896958706
H            1.92090084933180       20.11194689061470       19.00945165496946
H            3.41308181195219       21.01519849158352       19.27050944401761
H            3.39982214915814       19.25616441371082       19.43800268033775
C            5.08182106382989       18.06056312092463       17.42534407001026
H            4.65301657214194       17.05889266657086       17.34530268819865
H            5.24484022061839       18.26768984537781       18.48357318806140
H            6.05781371272279       18.03909033225509       16.93785515947367
C            5.31980023974508       25.91462166129701       12.72898642285051
H            5.84096999770084       25.97937467596263       11.77485743361258
H            5.97802450611669       26.28893186972295       13.51320416666901
H            4.42538909414560       26.52692838428717       12.68947172877805
N            5.89564675210869       23.53037086682671       13.15589077828338
H            6.88986664783179       23.65950877747705       13.05462366917685
C            4.94844230366949       24.50632081456989       12.99587854337316
C            5.24301892678399       22.36966130827464       13.39480293987157
H            5.73780801676333       21.43837994522980       13.58136862602473
N            3.94119399139212       22.54904543288033       13.36696549313370
C            3.74373905555258       23.88025980418977       13.12164235992153
H            2.75493122199465       24.28255997703990       13.02987639807242
C            0.37979045050339       17.70666302472794       15.28215801748705
H           -0.02850320452226       17.67923361733216       16.29007808081674
H            1.28302744545631       17.10398938843713       15.24889961313431
H           -0.34881585336791       17.31065277804801       14.58339692966977
C            0.71122354512338       19.12638678859814       14.92338349398711
H            1.45883034743131       19.50826043190848       15.59901752842795
H           -0.15450242171090       19.78061066492237       14.97820485997835
S            1.37934405464342       19.23046166087635       13.20948664868684
C           -0.22841641719059       19.61444056743381       12.45759014931559
H           -0.72854398308726       20.32765216230169       13.10394218100430
H           -0.80513607825699       18.70030248929215       12.38440279616023
H           -0.09071073583821       20.05950729664112       11.48022297435206
87
 energy: -124.694491646640 gnorm: 0.028410870394 xtb: 6.7.1 (edcfbbe)
Fe           2.66714173267745       21.05577298255636       13.28695151324865
N            4.08497177848708       19.98300423621635       12.40022785184799
N            2.04092321038899       21.70541442449017       11.44697081867268
N            1.16541770438454       22.10015333430049       14.14528212951154
N            3.30430754352233       20.45892514929980       15.13272067732881
C            4.84128657163047       19.02466028906020       13.00354466048643
C            5.61234788832220       18.30820613900794       12.00956428029443
C            5.31804285596316       18.87983670764896       10.80584620291064
C            4.39041924196915       19.95263038366355       11.07563458909954
C            2.73376426134089       21.59111857855451       10.28896216596721
C            2.00871845444295       22.22932887716888        9.20525524219998
C            0.82203769236979       22.65809027488611        9.73200103085475
C            0.88095921417336       22.34432525065264       11.15674430578089
C            0.14046862617308       22.69568336004870       13.48271752165499
C           -0.68314380323455       23.44380260456064       14.40942525166435
C           -0.12666991662075       23.28054733952176       15.65588133775965
C            1.02953044070444       22.39357009583351       15.46938881224633
C            2.78893935454661       20.84684818614161       16.33508349644964
C            3.35134657943646       20.01249060106609       17.38937952604427
C            4.20605821590554       19.13261623836191       16.78346352309133
C            4.15716560125363       19.43060680187318       15.36373425917971
C            4.87725035336167       18.77376627610955       14.36977568163308
H            5.53686243141140       17.97956040243206       14.69378531565003
C            3.87194923997908       20.82020355317983       10.11730466048298
H            4.34739128236907       20.83357739859853        9.13887034576315
C           -0.08081651995267       22.67854802862244       12.10170810339912
H           -1.05721787918958       22.97790048854445       11.73500069614871
C            1.79681156812259       21.82473597846942       16.48310631366988
H            1.55179089566493       22.11910983696242       17.50048427277506
C            5.78547031259475       18.45141195485029        9.45270930624855
H            6.01138209583703       17.38704329190085        9.44666952922397
H            6.68808549513631       18.99145152186090        9.16193162119287
H            5.02259241571020       18.63682807174358        8.70018621941899
C            6.51290875537273       17.14690813025977       12.26671896831627
H            5.93355781029204       16.22709356404344       12.35986521989209
H            7.07787489074555       17.28182616325151       13.18662534726114
H            7.21916789901555       17.02178884630953       11.44912578221524
C            2.51130528876126       22.34673943515094        7.80675008007760
H            2.45103513077263       21.38423600360087        7.29645368420543
H            3.55452657844024       22.66141601925656        7.79977148556100
H            1.92728499547351       23.06829123115465        7.23958063226163
C           -0.26208082525549       23.33899366345571        9.02255537043671
H           -0.57192587735727       24.30559241552917        9.41498814445383
C           -0.83189948827414       22.84428746278007        7.92144341839443
H           -0.54564959891104       21.87467947348540        7.53892192146839
H           -1.61943816402499       23.33711118763825        7.37139872312190
C           -1.77978831685932       24.35103917662812       13.96247942467527
H           -2.71847668375358       23.81113224770590       13.82845945896312
H           -1.52067922047451       24.80236286027068       13.00463561126776
H           -1.94130052455082       25.14999873854390       14.68213427501250
C           -0.57888243642856       23.87533288914003       16.90442403249029
H            0.20084504589418       24.15803456141413       17.60731926575784
C           -1.84864875896551       24.11353505932706       17.22091561840975
H           -2.67119389637795       23.82977927726633       16.58173425574742
H           -2.14642326151638       24.57441687688441       18.15271798681523
C            3.00326962660274       20.10778019439415       18.84100209589192
H            1.92364867864709       20.12114977152601       18.98706061036772
H            3.41064365281302       21.02490989809031       19.26911272408310
H            3.40397694295407       19.26608422671057       19.40308825710067
C            5.06675718026446       18.08007917309320       17.41292971670681
H            4.62982332238710       17.08361229390105       17.32610725983908
H            5.22359444516865       18.28372116194007       18.47052427822398
H            6.04458215981880       18.05208971966040       16.93315451108815
C            5.31676876045437       25.91776539243801       12.72241164580731
H            5.84219468184086       25.99666478057384       11.77154308488367
H            5.97177476596924       26.29559584156988       13.50649690895729
H            4.42572841947892       26.53314890627218       12.68376669949814
N            5.88906035477532       23.53283058295708       13.16777472169468
H            6.88411166817731       23.66252252994724       13.08052507227531
C            4.94280027545937       24.50599104029337       12.98748430481266
C            5.23828467249054       22.37112173562466       13.39560707210249
H            5.73378984501306       21.44310792867062       13.58563668341770
N            3.93684745755026       22.54440726452957       13.35836698931838
C            3.73945940909339       23.87403403566411       13.11756039207643
H            2.75104503721623       24.27677655573783       13.03881452752743
C            0.35451392903209       17.66976019280978       15.28981938259829
H           -0.04505554884162       17.63915300431809       16.29976122090147
H            1.26306463265402       17.07592378897498       15.25023549684250
H           -0.37158729036682       17.25951934137743       14.59650897578997
C            0.67700097544775       19.09478175907761       14.92968610085498
H            1.44454550922888       19.47875184356909       15.58522994180377
H           -0.18145395800830       19.75833627367344       14.98831778670045
S            1.33610790444317       19.21669354886838       13.22855205178759
C           -0.25688647938393       19.59072067978563       12.43873565682721
H           -0.76519184696177       20.32070911243178       13.05917851450847
H           -0.83016335776378       18.67428623941872       12.36598698322509
H           -0.08076010655420       20.01560724081791       11.45669036378239
87
 energy: -124.703030414837 gnorm: 0.022977671959 xtb: 6.7.1 (edcfbbe)
Fe           2.66331044857611       21.05807146695902       13.28287696540674
N            4.06262706080578       19.96417876641739       12.40361032567048
N            2.05423105646104       21.70903501117751       11.46018183575706
N            1.19359779591444       22.12499369744716       14.13814922036592
N            3.30689120188692       20.47731230915665       15.11102385148813
C            4.82247877071140       19.01151984128554       13.00618953988876
C            5.60752070569061       18.30588999586369       12.01613475966702
C            5.32740155206838       18.88476968050978       10.81548096512050
C            4.38184725082433       19.94281727312928       11.08663668873682
C            2.73908903709325       21.58566036434294       10.29871207977649
C            2.01691605081226       22.21361437030157        9.21542216922069
C            0.83444100413441       22.64865057464797        9.74486916986122
C            0.90297834560091       22.35842974879502       11.16690483197543
C            0.16954679068794       22.72661213622857       13.48160049239587
C           -0.66847419675488       23.44631235356907       14.40857638757436
C           -0.11153409315765       23.27405547774556       15.64989091392482
C            1.05023646484482       22.40730306820992       15.45914091468862
C            2.80308398134492       20.87359085190821       16.31288361868921
C            3.36435343816737       20.05342062565193       17.36968459092614
C            4.21753068057409       19.17148709492954       16.76775029625815
C            4.16635463658977       19.45667793694594       15.35202884436640
C            4.87268193494742       18.77158904678416       14.36975452196365
H            5.52600581622474       17.97572765628248       14.69867113028343
C            3.86209413841437       20.79677581678121       10.12551848901508
H            4.31497355203606       20.78058161313798        9.13986026000977
C           -0.04413686514883       22.72866838211457       12.10802744941894
H           -1.00058497586031       23.09308329057105       11.74173824701479
C            1.80765736557118       21.83915516077817       16.47325500166883
H            1.54660559342407       22.10929837913737       17.49103029356475
C            5.79555890249669       18.46428950104496        9.46349148220914
H            6.02173602846261       17.40003625371188        9.45770880598465