87
 energy: -128.070668087932 gnorm: 0.332932435433 xtb: 6.7.1 (edcfbbe)
Fe          13.71300000000000       28.90700000000000       74.83600000000000
N           15.20200000000000       29.74000000000000       73.83100000000000
N           12.43000000000000       30.00700000000000       73.85700000000000
N           12.20900000000000       28.04700000000000       75.82899999999999
N           14.99300000000000       27.85600000000000       75.83300000000000
C           16.54700000000000       29.43700000000000       73.89700000000001
C           17.35000000000000       30.32900000000000       73.08899999999998
C           16.49500000000000       31.16600000000000       72.50500000000000
C           15.14900000000000       30.78700000000000       72.95300000000000
C           12.70100000000000       31.07900000000000       73.02599999999998
C           11.48300000000000       31.73500000000000       72.59600000000000
C           10.45000000000000       31.02700000000000       73.14000000000000
C           11.04300000000000       29.95100000000000       73.90000000000001
C           10.86200000000000       28.16400000000000       75.59300000000000
C           10.09000000000000       27.33800000000000       76.51900000000001
C           10.98500000000000       26.79200000000000       77.39100000000001
C           12.30400000000000       27.21800000000000       76.91499999999999
C           14.76300000000000       27.02700000000000       76.91599999999998
C           15.99300000000000       26.42700000000000       77.39700000000001
C           16.98700000000000       26.85100000000000       76.58000000000000
C           16.37100000000000       27.74700000000000       75.63600000000000
C           17.08000000000000       28.48600000000000       74.71899999999998
H           18.15100000000000       28.29800000000000       74.64200000000000
C           13.97500000000000       31.41900000000000       72.59099999999998
H           14.05600000000000       32.26000000000000       71.90199999999999
C           10.31900000000000       29.05600000000000       74.67400000000001
H            9.23600000000000       29.05099999999999       74.55200000000001
C           13.49600000000000       26.76500000000000       77.42200000000000
H           13.44300000000000       26.13700000000000       78.31100000000001
C           18.86900000000000       30.35300000000000       72.95099999999999
H           18.97100000000000       29.30000000000000       72.61100000000000
H           19.08400000000000       30.40200000000000       74.04000000000001
H           19.59300000000000       30.98400000000000       72.39200000000000
C           16.86500000000000       32.31300000000000       71.57700000000000
H           16.37200000000000       33.11600000000000       72.16500000000001
H           16.18700000000000       32.00100000000000       70.75400000000000
H           17.81500000000000       32.70600000000000       71.15700000000000
C           18.44900000000000       26.39400000000000       76.61700000000000
H           18.59500000000000       26.70900000000000       77.67200000000000
H           19.40100000000000       26.53900000000000       76.06200000000000
H           18.15800000000000       25.32200000000000       76.59799999999998
C           16.17000000000000       25.48800000000000       78.59000000000000
H           16.23500000000000       24.40900000000000       78.38599999999998
C           17.00400000000000       26.04000000000000       79.73999999999999
H           16.97600000000000       27.11200000000000       79.98599999999999
H           17.64300000000000       25.37300000000000       80.33700000000000
C           10.69000000000000       25.92500000000000       78.60199999999999
H           11.30100000000000       26.53500000000000       79.30100000000000
H           11.27700000000000       25.03400000000000       78.29399999999998
H            9.76000000000000       25.60700000000000       79.12000000000000
C            8.59000000000000       27.07000000000000       76.41199999999999
H            8.26100000000000       26.86100000000000       75.39400000000001
C            7.71000000000000       27.58599999999999       77.53400000000001
H            8.13000000000000       27.76900000000000       78.53400000000001
H            6.64200000000000       27.78300000000000       77.36000000000000
C            8.95900000000000       31.31400000000000       72.99100000000000
H            7.98200000000000       31.05099999999999       73.44900000000000
H            8.93500000000000       31.04700000000000       71.91300000000000
H            9.13000000000000       32.40500000000000       73.10800000000000
C           11.37600000000000       32.95700000000000       71.67400000000001
H           10.68300000000000       33.46900000000000       72.37500000000000
H           10.77900000000000       32.39700000000000       70.92300000000000
H           12.00500000000000       33.72000000000000       71.16700000000000
C           12.92000000000000       32.89700000000000       78.75000000000000
H           13.56300000000000       33.80200000000000       78.77600000000000
H           12.88800000000000       32.44900000000000       79.76599999999999
H           11.89700000000000       33.19100000000000       78.43200000000000
N           14.74400000000000       31.35800000000000       77.88799999999999
H           15.41900000000000       31.59600000000000       78.58700000000000
C           13.48700000000000       31.90900000000000       77.77900000000000
C           14.89300000000000       30.46099999999999       76.90300000000001
H           15.80000000000000       29.87200000000000       76.76500000000000
N           13.81300000000000       30.39800000000000       76.14900000000000
C           12.92200000000000       31.31700000000000       76.69799999999998
H           11.94600000000000       31.46300000000000       76.25200000000000
C           13.70400000000000       23.99700000000000       72.05599999999998
H           14.55100000000000       23.85100000000000       71.35200000000000
H           12.76200000000000       23.68500000000000       71.55599999999998
H           13.87600000000000       23.37600000000000       72.96100000000000
N           13.41800000000000       26.46700000000000       71.53900000000000
H           13.31800000000000       26.35500000000000       70.54999999999998
C           13.61800000000000       25.44200000000000       72.44199999999999
C           13.38400000000000       27.62200000000000       72.22499999999999
H           13.23800000000000       28.59300000000000       71.75200000000000
N           13.54800000000000       27.41200000000000       73.51600000000001
C           13.69700000000000       26.03400000000000       73.65699999999998
H           13.84900000000000       25.60000000000000       74.63800000000001
87
 energy: -128.213179736978 gnorm: 0.191294177377 xtb: 6.7.1 (edcfbbe)
Fe          13.71042654106996       28.90421535022025       74.83495609562900
N           15.22253664513784       29.74726404073403       73.81653308171326
N           12.42350275465869       30.00725383247492       73.84686711013403
N           12.18792088237420       28.04329952660894       75.84323058398039
N           15.00416876612367       27.83982210618936       75.84475035345207
C           16.56061168937361       29.44150295717946       73.89162323995104
C           17.35468679601266       30.33259270404410       73.08392597828778
C           16.49215873212091       31.17714856849764       72.49846295588404
C           15.15779547036118       30.80397337762717       72.94817326239897
C           12.70774726712305       31.07543518847195       73.02768360928255
C           11.50813334900381       31.72442783972063       72.60636407410313
C           10.46208453078844       31.01188359949249       73.16147029798026
C           11.04613758273899       29.94773470310432       73.90971816032618
C           10.84771849992353       28.14773182609787       75.58265868967396
C           10.06697013521004       27.33994703101318       76.50728318508648
C           10.97020971043017       26.79759065747859       77.38311516325894
C           12.28787845180979       27.21369646348193       76.92770816883665
C           14.76321316674055       27.02135863853657       76.92905146023220
C           15.98743168228074       26.42858274979816       77.41427624910591
C           16.98205907753864       26.86093286700433       76.56545593350754
C           16.36998949216722       27.74029784598340       75.63062684196747
C           17.09091687394604       28.47578711009677       74.71222679751821
H           18.15571402767615       28.29665241345654       74.64927121712891
C           13.97992214446213       31.42990674659724       72.58759874433136
H           14.05201783413088       32.26227308365778       71.89932908909802
C           10.31180381291011       29.04495609377077       74.66862011070796
H            9.23493046565214       29.05665527317992       74.55617572747231
C           13.49485838672822       26.76175002668515       77.44124281025771
H           13.44712933287304       26.12716000385103       78.31534515912072
C           18.86231667754575       30.31272427713071       72.97961116080886
H           19.01480219025784       29.28874164488284       72.62015851567095
H           19.12717183791309       30.38834574953179       74.04076433223725
H           19.52310900494395       30.98332378745222       72.40002317458622
C           16.81288708233829       32.32234923870787       71.57480986184191
H           16.36445805789332       33.15030800380954       72.13462650250084
H           16.18118562894221       32.04338017005155       70.72488343316010
H           17.79787545299371       32.65315555330281       71.19756009221355
C           18.42221423199180       26.37845960941717       76.65126040369420
H           18.63088095120599       26.67963681309059       77.68574549995058
H           19.33093946007499       26.56840334031214       76.05063190405328
H           18.20421534273545       25.30302672262001       76.61720942468888
C           16.24349356991812       25.53179068060263       78.59852031101073
H           16.23191708417468       24.44660854764954       78.40699770765973
C           16.98031300299114       26.01951761924477       79.69141457023038
H           16.97235664885735       27.07974370324590       79.95553522727373
H           17.59521152073577       25.37408424893828       80.32434455221831
C           10.73539350561016       25.93094913686487       78.59845045595327
H           11.30855248122759       26.50528776923814       79.33673259451894
H           11.28106459935522       25.01799046383533       78.32835962182580
H            9.77409321325395       25.64234623083075       79.06100319062347
C            8.58817716751827       27.14829821489906       76.44761758363839
H            8.24546896060735       26.87987280701507       75.44106809053157
C            7.74285686890097       27.56783782360759       77.48857581235710
H            8.13585656118654       27.76569285385634       78.48791109726002
H            6.67337833670466       27.74705495013039       77.35066498958228
C            8.98965632235318       31.33864604147126       72.96184358949812
H            8.05518902530757       31.02580118496143       73.46467847064550
H            8.89799041558450       31.07426345396231       71.89916785799969
H            9.08017270801419       32.42567896128130       73.08193942553508
C           11.33357294387280       32.93366296848770       71.69041131477950
H           10.65876610037634       33.50510078631044       72.34155334501730
H           10.75595389167855       32.43691576543514       70.89915435448880
H           12.02305946687975       33.65601313055492       71.21310225147718
C           12.92484526663219       32.89659355847768       78.74620687156109
H           13.55494633716229       33.79561831671048       78.77921901885910
H           12.88624301246655       32.45815866102600       79.75360031364532
H           11.91284048237433       33.18533504913508       78.43797526074707
N           14.74066293360817       31.36308344374023       77.89305922671835
H           15.41953195873756       31.60051176062861       78.59354453897232
C           13.48319249349372       31.90746027132601       77.77925237334844
C           14.89497051538810       30.46617808652817       76.90590547347573
H           15.79286875045512       29.88303925326412       76.76620703121601
N           13.81545859708528       30.39448211487171       76.16128251093592
C           12.92458501330523       31.30616208270085       76.69350684530048
H           11.95479856428692       31.45479584628884       76.25127898494348
C           13.70451395790121       24.00285501368590       72.05447618852618
H           14.54079410071536       23.84891772120399       71.35841445121237
H           12.77483611904281       23.68468373610384       71.56219764307173
H           13.87160177067040       23.38649709780408       72.94627272087882
N           13.41786731854793       26.46136117377494       71.53971261372934
H           13.31740688349804       26.35102301190784       70.54644050477049
C           13.61694072737648       25.44123267303569       72.44338850838896
C           13.38567574863783       27.61961865791985       72.22458064169957
H           13.24058226666981       28.58367349226591       71.75916999508603
N           13.55414222364838       27.40984662566658       73.50918048330408
C           13.69625740574966       26.04417146042773       73.65947499520989
H           13.84721313723509       25.60985601371887       74.63257793444050
87
 energy: -128.285882880169 gnorm: 0.116993179884 xtb: 6.7.1 (edcfbbe)
Fe          13.70356370656293       28.90128625719504       74.83287872376425
N           15.24480025913607       29.75486776547417       73.80241489297983
N           12.41342713867952       30.01021479590556       73.83643626856031
N           12.16625921698117       28.03495897065825       75.85804094285386
N           15.01651458575924       27.82037790842805       75.85743386634284
C           16.57431175129150       29.44680566468899       73.88541668097781
C           17.36243399778041       30.33521899067555       73.07908694360135
C           16.49072967941672       31.18923138983122       72.49286711921954
C           15.17078954297659       30.81948715700453       72.94451707970153
C           12.70895378780962       31.07738446177784       73.02489622589636
C           11.52478317622040       31.72179914965267       72.60899835050400
C           10.46423907696771       31.00232868652255       73.17535940778349
C           11.04338512330774       29.94939985082884       73.91496051379498
C           10.83221919389321       28.13266196626708       75.58228007371066
C           10.05101620496145       27.33692389372962       76.50565915474210
C           10.96405315414747       26.79945207098520       77.38418351797675
C           12.27291963563108       27.20783995187936       76.94009480997694
C           14.76449427644310       27.01770965083396       76.94591439006318
C           15.97858942628131       26.43499738961800       77.43550512373962
C           16.97974084124661       26.86571388233461       76.55789556798902
C           16.37072264702859       27.72727008130231       75.62754524395790
C           17.10060070397041       28.46390577108746       74.70337284284382
H           18.16171094151488       28.29377688825811       74.65671838873705
C           13.98474041787183       31.44113393089728       72.58471403190302
H           14.04745122767576       32.26680400964488       71.89622900395932
C           10.30293304785421       29.03242490629851       74.66384373979443
H            9.23060412023081       29.06231392774326       74.56044290957354
C           13.49228330301264       26.76137221035167       77.46084202061199
H           13.44941190278227       26.11684842929157       78.32183087701875
C           18.85498039032996       30.27423800449476       73.00652961484901
H           19.06098671651757       29.27515476205214       72.63136917492086
H           19.17212945649351       30.37165728488803       74.04268989852280
H           19.44442698887136       30.98686146680587       72.40448206083627
C           16.76149849566950       32.33138196431452       71.57348026949806
H           16.35313400577659       33.18998782565380       72.09952400153033
H           16.17247064590008       32.09139716941253       70.69297001356291
H           17.78262419819137       32.59253539675829       71.24404557660213
C           18.39378534745137       26.36137991747308       76.68728756784903
H           18.66662395042129       26.65183520967429       77.70077838091809
H           19.24859834686909       26.60781886962808       76.03167030023977
H           18.24837972520147       25.28158014898882       76.63836093730548
C           16.31151130701256       25.56803335184430       78.60330475516263
H           16.23570038708289       24.48229830706141       78.41507259777046
C           16.95149641609036       26.00336656683671       79.64241683271237
H           16.98558237175524       27.05837849832638       79.91465229903358
H           17.53038373425196       25.37164103567302       80.32048306152235
C           10.77834773841159       25.93502024015526       78.59521012000366
H           11.31733910182209       26.47487541939056       79.37160886381272
H           11.28770463608910       25.00104882198409       78.36159098098692
H            9.78174626202096       25.68334267196289       78.99443012787646
C            8.58532491281552       27.20885429647547       76.47652015803369
H            8.22676866768577       26.91115663694497       75.47937172420062
C            7.78550923857161       27.56191677802040       77.44091193741690
H            8.14665674680234       27.77922222810313       78.44532082101843
H            6.70586333868011       27.69484321006257       77.34125447587323
C            9.02068159020574       31.36318527915418       72.93206356722803
H            8.14092564454833       30.99021496263808       73.48978908290077
H            8.86559266042966       31.10151130574242       71.88398384558167
H            9.03552983236993       32.44526308701497       73.05557814372766
C           11.29108125289486       32.90964897607622       71.70683086679331
H           10.63479275647936       33.53676028425102       72.31092906258529
H           10.73135611957978       32.47276846395490       70.87826518157182
H           12.05418600070065       33.58075228922551       71.26822143665757
C           12.92818490478418       32.89683365646472       78.74282664039802
H           13.55084094541010       33.79088633677453       78.78009458452227
H           12.88568345692450       32.46418624521714       79.74432205999925
H           11.92345541635716       33.18107384237128       78.44076752605075
N           14.73725928070543       31.37072789204859       77.89954271791279
H           15.41893344694718       31.60664065896616       78.60078754211386
C           13.47925333215881       31.90643080468035       77.77981094884426
C           14.89873737308061       30.47111973926468       76.91259455576328
H           15.79009522494078       29.89389865984393       76.76884038859465
N           13.82017531524953       30.39300221914812       76.17334887876147
C           12.92805924258449       31.29290216803453       76.69081738791874
H           11.96198494701207       31.44470369819465       76.25199978910049
C           13.70460633562073       24.00769236979728       72.05345317623922
H           14.53369826975769       23.84966872539128       71.36242872384680
H           12.78314999250895       23.68562252428876       71.56615113346325
H           13.86826589027671       23.39550521550578       72.93710903805490
N           13.41746644391762       26.45426302259037       71.53922898230586
H           13.31674103867910       26.34591439217337       70.54341255903009
C           13.61585821275180       25.44055763488136       72.44447748035165
C           13.38828251428132       27.61734545939816       72.22056839708719
H           13.24385999270356       28.57678753003229       71.76299567382993
N           13.55874703272695       27.40746043161406       73.50141578882213
C           13.69721905202323       26.05553137031690       73.66071438824594
H           13.84604126716856       25.61880466279284       74.62791518705993
87
 energy: -128.320528291997 gnorm: 0.052439799390 xtb: 6.7.1 (edcfbbe)
Fe          13.70064925025031       28.89983075438790       74.83043611842308
N           15.25370299866528       29.75769200769539       73.79445640628130
N           12.40957948208715       30.00888068691792       73.83018376271328
N           12.16312481833506       28.03177059190902       75.86420252908013
N           15.02053158269982       27.80876346599487       75.86097759065107
C           16.57927399348412       29.44526811539672       73.88009892478618
C           17.36382679169646       30.33329154700359       73.07704426281614
C           16.48571199253539       31.19643972474449       72.49130699016182
C           15.17551180014662       30.82745088963895       72.94548723269702
C           12.70859610520182       31.07945729038110       73.02117318406351
C           11.52412934790688       31.72090908700403       72.60826963593709
C           10.46354543149618       31.00135166113532       73.17523783083639
C           11.04035608824951       29.94942629948107       73.91455176443577
C           10.83295653904126       28.12606545414567       75.57944221871961
C           10.06347727227611       27.33889814526997       76.50407010165105
C           10.97405861466376       26.79910866971963       77.38754355446649
C           12.27290096036323       27.20872969201536       76.94769009467061
C           14.76323739118816       27.02004590540378       76.95698559900134
C           15.97017449197128       26.43969970236188       77.43420921218794
C           16.97805335265585       26.86258858422340       76.56061936726512
C           16.37173467780778       27.71459828423096       75.62271586638549
C           17.10310553482217       28.45215665949192       74.69333362011434
H           18.16711886068179       28.28941606855503       74.66298726910425
C           13.98607902385985       31.44853738991899       72.58584713885720
H           14.04278523388342       32.27298825613131       71.89447271837234
C           10.30102043423808       29.02238830055843       74.65802462266291
H            9.22713187694510       29.06721112165153       74.56660558016219
C           13.49166533850119       26.76590516111195       77.47658489564736
H           13.45133892456949       26.10751901180232       78.32978444293428
C           18.85009233972029       30.24775527452175       73.02256380886716
H           19.11276844367468       29.25793855672103       72.64451737078403
H           19.22206340962983       30.34966925206163       74.04468565347058
H           19.36848993518329       30.99664450925873       72.40069069417534
C           16.72506773291432       32.33950101545361       71.57069997698304
H           16.33714212593054       33.23600166838285       72.05723828131774
H           16.15866027429097       32.14664112326044       70.65773711993889
H           17.77457575769054       32.53422040393744       71.28715149945288
C           18.37572348663394       26.35044712194469       76.71140703906012
H           18.70696354621462       26.61982170090424       77.71813856971100
H           19.16908560934402       26.65733472654814       76.00190283306959
H           18.29826676835038       25.25788763353846       76.66446145202990
C           16.32558622954693       25.56498413428424       78.56321818908427
H           16.23995260464154       24.48869940638411       78.38901668547504
C           16.93331182869493       26.00587364988806       79.66771562338208
H           17.02095915007660       27.06693830352864       79.88830857480498
H           17.46328055182430       25.35938274821748       80.36359261483372
C           10.80667705336259       25.93653489084111       78.59305998451966
H           11.32822235837910       26.43859722683595       79.41240263021832
H           11.29756554266425       24.98034691273324       78.39961257665357
H            9.77705260761130       25.72497077259059       78.92556578765156
C            8.60714353570305       27.25310141332781       76.45227149199386
H            8.21943884378648       26.95592682867818       75.47401574047784
C            7.77831565446422       27.54051822630287       77.45722740972012
H            8.15435177280115       27.81698387555431       78.43664847422193
H            6.70216259586384       27.63093470457505       77.34941290509163
C            9.04060983320186       31.37667761251165       72.91293223704244
H            8.22344254923114       30.94327252553571       73.52377374069370
H            8.82919598995141       31.13258166334848       71.86632376160672
H            8.98449968831643       32.46492574915096       73.02585588999486
C           11.26501187117721       32.89324997374923       71.71710278600575
H           10.60883637557910       33.57140445450258       72.27505690330311
H           10.70210185911032       32.51353665960998       70.85624434153783
H           12.10123250240073       33.50557386699501       71.32265038750911
C           12.92966550454806       32.89791476842370       78.73947898918216
H           13.55058128478812       33.79127574413680       78.77842138879986
H           12.88540233874035       32.46925658758574       79.74043966935989
H           11.92647457116255       33.18010870435261       78.43952985282795
N           14.73687252595997       31.37867671033355       77.90734751269262
H           15.41689866098375       31.61776722977437       78.60970301635453
C           13.47739053409032       31.90489830488805       77.78111794807387
C           14.90616705378960       30.47638045762570       76.92325450412970
H           15.79926662075676       29.90715429122819       76.77555790162064
N           13.82787692893213       30.38665917955035       76.18480067268681
C           12.93172932848744       31.28017913922567       76.69398212389237
H           11.96718013062604       31.42843342818353       76.25272542368415
C           13.70371843543074       24.01132149167422       72.05360761901686
H           14.53069391720542       23.85052819833276       71.36324138218055
H           12.78506036086168       23.68560913256458       71.56769021013969
H           13.86589816723407       23.40085899803629       72.93558481133131
N           13.41665031501251       26.44899491415973       71.53624029463269
H           13.31502670754839       26.33839454280655       70.54051866300186
C           13.61464614433704       25.44138704018554       72.44509410439343
C           13.39168692806122       27.61557656777875       72.21275049240622
H           13.24769413984311       28.57404432719861       71.75858105219035
N           13.56414431132038       27.40978238050719       73.49396728441967
C           13.69849712787392       26.06306526357685       73.65928474868151
H           13.84554932421706       25.62846548390968       74.62653476453330
87
 energy: -128.333434928573 gnorm: 0.049835658869 xtb: 6.7.1 (edcfbbe)
Fe          13.69732580689592       28.89844659906762       74.82859421340862
N           15.25445829550328       29.75723310175374       73.79099826941494
N           12.40294568290149       30.01004798160047       73.82557945990106
N           12.16670960689175       28.02991061275486       75.86373997422292
N           15.02482573914554       27.79642357105832       75.86384229101589
C           16.57793610674617       29.44006173685029       73.87649302011735
C           17.36249323201987       30.32883499707345       73.07589331385526
C           16.47888806624339       31.20257958559071       72.49252974052939
C           15.17494288601352       30.83082046723646       72.95045491582216
C           12.70378446181102       31.08301565344952       73.01571685879442
C           11.51471403853553       31.72073857869454       72.60112242140420
C           10.45660040635872       31.00013508946902       73.16502579255994
C           11.03323325840812       29.94826846380504       73.90961594324683
C           10.83718237878162       28.12129418600552       75.57759386492117
C           10.07263878098540       27.34379099517293       76.51060456484070
C           10.98721517189925       26.80469643039812       77.39789787622918
C           12.27808546696741       27.21299642683637       76.95141178316965
C           14.76391458079812       27.01955281884140       76.96753214034273
C           15.96489661966369       26.44073375899574       77.44449079030618
C           16.97817344208750       26.84846940770018       76.57047472923477
C           16.37449213225625       27.69830635731435       75.62186062993138
C           17.10059270475022       28.43843053024911       74.68484383973038
H           18.16719478655651       28.28177004101164       74.66548158650748
C           13.98381558686771       31.45362644103890       72.59018904627204
H           14.03935978737338       32.27940019453295       71.89843903000178
C           10.30079118416494       29.01313389156082       74.65317978814367
H            9.22531872327209       29.06700920971372       74.57434190932936
C           13.49245177557974       26.77198233095780       77.49021094709826
H           13.45211332947548       26.10602700379727       78.33956384854633
C           18.84591167515859       30.23570465852713       73.02597222586053
H           19.14971219340650       29.25577245935366       72.64630718137721