78
 energy: -115.937715560899 gnorm: 0.344099902569 xtb: 6.7.1 (edcfbbe)
Fe          -5.76400000000000       57.00599999999999      111.72599999999998
N           -6.50500000000000       56.10200000000000      113.41599999999998
N           -6.79100000000000       58.70300000000000      112.30500000000001
N           -4.98200000000000       57.91499999999999      110.07599999999999
N           -4.67900000000000       55.29999999999999      111.21500000000000
C           -6.25600000000000       54.81800000000000      113.74100000000000
C           -6.74700000000000       54.52200000000000      114.97799999999999
C           -7.37100000000000       55.70000000000000      115.42799999999998
C           -7.16400000000000       56.65100000000000      114.44199999999999
C           -7.43900000000000       58.94700000000000      113.44499999999999
C           -8.00900000000000       60.23100000000000      113.43100000000000
C           -7.60800000000000       60.79000000000000      112.21599999999999
C           -6.79100000000000       59.83300000000000      111.61499999999999
C           -5.17400000000000       59.21399999999999      109.76100000000000
C           -4.39100000000000       59.62100000000000      108.68100000000000
C           -3.58600000000000       58.50300000000000      108.41600000000000
C           -4.03700000000000       57.47100000000000      109.25399999999999
C           -3.96900000000000       55.11199999999999      110.09999999999998
C           -3.70700000000000       53.76900000000000      109.89200000000000
C           -4.28400000000000       53.11000000000000      110.96899999999999
C           -4.85900000000000       54.10300000000000      111.76099999999998
C           -5.55100000000000       53.89200000000000      112.95699999999999
H           -5.54200000000000       52.86899999999999      113.33199999999999
C           -7.58200000000000       57.99499999999999      114.47900000000000
H           -8.06300000000000       58.33400000000000      115.39599999999999
C           -6.05100000000000       60.05100000000000      110.45500000000000
H           -6.17700000000000       61.03900000000000      110.01600000000001
C           -3.60600000000000       56.14299999999999      109.23600000000000
H           -2.89900000000000       55.88099999999999      108.45000000000000
C           -8.08600000000000       55.95600000000000      116.76200000000000
H           -8.05400000000000       55.03499999999999      117.38300000000000
H           -9.14700000000000       56.22699999999999      116.57299999999999
H           -7.57600000000000       56.77700000000000      117.30999999999999
C           -6.55300000000000       53.15700000000000      115.63200000000001
H           -5.46700000000000       52.95199999999999      115.74700000000000
H           -7.00300000000000       52.36700000000000      114.99299999999999
H           -7.02900000000000       53.15100000000000      116.63600000000000
C           -8.95500000000000       60.76599999999999      114.49200000000000
H           -8.36900000000000       61.26500000000000      115.29300000000001
H           -9.53300000000000       59.92800000000000      114.93700000000000
H           -9.64800000000000       61.50599999999999      114.03800000000000
C           -7.87300000000000       62.01899999999999      111.59200000000000
H           -7.38400000000000       62.19000000000000      110.62400000000000
C           -8.69600000000000       63.09700000000000      112.03400000000001
H           -9.23400000000000       63.03300000000000      112.99100000000000
H           -8.80200000000000       64.00500000000000      111.42300000000000
C           -4.41100000000000       61.01799999999999      108.02200000000001
H           -4.50100000000000       61.79800000000000      108.80799999999999
H           -5.28100000000000       61.09699999999999      107.33499999999999
H           -3.46700000000000       61.18100000000000      107.45900000000000
C           -2.58300000000000       58.32099999999999      107.46099999999998
H           -1.85200000000000       57.52300000000000      107.64899999999999
C           -2.38000000000000       59.06800000000000      106.22600000000000
H           -3.06100000000000       59.88700000000000      105.95000000000000
H           -1.54400000000000       58.82100000000000      105.55499999999999
C           -2.95100000000000       53.11900000000000      108.75600000000000
H           -1.85900000000000       53.21200000000000      108.93699999999998
H           -3.20200000000000       53.62499999999999      107.80000000000000
H           -3.21600000000000       52.04199999999999      108.69600000000000
C           -4.23900000000000       51.60199999999999      111.25100000000000
H           -3.29800000000000       51.17600000000000      110.84200000000000
H           -5.10300000000000       51.10300000000000      110.76200000000000
H           -4.26800000000000       51.42400000000000      112.34699999999999
O           -4.37900000000000       57.56500000000000      112.83300000000000
H           -4.57700000000000       57.21299999999999      113.70099999999998
H           -3.67200000000000       58.05799999999999      112.61400000000000
C           -9.17900000000000       55.03199999999999      107.75199999999998
H           -9.72900000000000       55.79200000000000      107.15699999999998
H           -9.87100000000000       54.19900000000000      107.99899999999998
H           -8.32600000000000       54.65200000000000      107.15099999999998
N           -9.33700000000000       56.25100000000000      110.02800000000001
H          -10.33100000000000       56.35500000000000      110.03699999999999
C           -8.65600000000000       55.67399999999999      109.04700000000000
C           -8.51700000000000       56.65600000000000      110.96700000000000
H           -8.82800000000000       57.14599999999999      111.88899999999998
N           -7.29600000000000       56.37100000000000      110.60099999999998
C           -7.34600000000000       55.78100000000000      109.43000000000001
H           -6.43800000000000       55.46800000000000      108.93100000000000
78
 energy: -116.012556048988 gnorm: 0.140002558926 xtb: 6.7.1 (edcfbbe)
Fe          -5.78075295980451       56.99530908339715      111.70768557188740
N           -6.48953450074024       56.10804381351164      113.39247351435907
N           -6.77406665387784       58.68491927355298      112.30162566741409
N           -4.97337274676523       57.92275618107464      110.10311223839949
N           -4.70195535112174       55.31780166831858      111.21209427636059
C           -6.24329724342201       54.81763618544060      113.72789647914111
C           -6.76049895645211       54.52010273162954      115.00091805006828
C           -7.36560467301528       55.68624513825103      115.45073065630919
C           -7.16411742111097       56.65586262715061      114.43300112560384
C           -7.45111682085784       58.92540191431603      113.44678521077108
C           -8.02195796066179       60.23302824105704      113.43084265937308
C           -7.61857455844867       60.80900022862195      112.22901418344418
C           -6.78296297681173       59.82955172281366      111.60008656793221
C           -5.18767225443894       59.21959587162285      109.76686391897373
C           -4.38458671853671       59.62534006148796      108.67047177865541
C           -3.59197923368602       58.51592963125949      108.37756209065323
C           -4.02303853315638       57.47141622111774      109.26460483820441
C           -3.97802379232639       55.12634100283000      110.08924348062931
C           -3.70040898478833       53.74806879110560      109.89603154286226
C           -4.26832644655742       53.09351217516628      110.96660726724915
C           -4.87497202785475       54.10294733887925      111.76606937453897
C           -5.55277264148259       53.88616265182129      112.95515806220396
H           -5.54262913378785       52.87120949184510      113.33136134246902
C           -7.58961562529852       57.98825896485408      114.47625710796338
H           -8.06607784016680       58.32596685221269      115.38914549883899
C           -6.06084366669206       60.05783524529837      110.44211753840742
H           -6.16731624203955       61.04227645819883      110.01073287023981
C           -3.59419061444097       56.14863931921749      109.23012840861398
H           -2.89988482260703       55.87948978968139      108.44416432710661
C           -8.07795786637074       55.94559163362600      116.75623556937244
H           -8.05651960991893       55.04619230697713      117.37914712771889
H           -9.12548700856266       56.22231213640679      116.57648799601465
H           -7.58711895342962       56.76219733383144      117.30138853213866
C           -6.56538120656049       53.17110239495005      115.64241502104188
H           -5.49176337627752       52.95929341183572      115.74956992318735
H           -7.00178458231945       52.38349146645078      115.01325969786630
H           -7.02820972127336       53.14402008588591      116.63169741858606
C           -8.94783768968000       60.76442780475688      114.48686292615751
H           -8.37849159491947       61.26044212723384      115.28408738770644
H           -9.52469923931707       59.94451744755828      114.93053884847994
H           -9.64272431811112       61.48808362284262      114.05216575524800
C           -7.89574483318609       62.05805969464542      111.60802548878776
H           -7.41004834458892       62.20990523814098      110.64394263985793
C           -8.68316757938287       63.08118659748474      112.03135858319816
H           -9.21882485925687       63.03906915235752      112.97084194940653
H           -8.79710049134884       63.97793163529143      111.43202901693397
C           -4.40462007899585       61.00047676597445      108.03377858980802
H           -4.49838495054844       61.78199665475080      108.79812896501122
H           -5.26036054118822       61.08980615074739      107.34950022576564
H           -3.48157456717324       61.17771639940599      107.47312522651191
C           -2.56741977499215       58.34381486032171      107.41231109919114
H           -1.85651587039053       57.54175563398922      107.61969195472746
C           -2.37983717341262       59.05349704293663      106.25622995787526
H           -3.05033371396267       59.85337691061018      105.96074757134042
H           -1.56109976969293       58.81888136686173      105.58413314156635
C           -2.95124521212234       53.12020498572411      108.76043139365176
H           -1.87007329080963       53.20967081967574      108.92911025805853
H           -3.19666108703200       53.61350195075301      107.81244770354817
H           -3.20859622022961       52.05848989212211      108.69024677372504
C           -4.23565245166170       51.61118637655907      111.24736311611952
H           -3.31153784088031       51.17877463484873      110.84898764083137
H           -5.08945120175287       51.11003412677734      110.77249934045209
H           -4.26954815336602       51.42472502639502      112.32642005613509
O           -4.37021535911736       57.56308654323862      112.84790319244402
H           -4.55053904964240       57.22224481287413      113.72584263020555
H           -3.62044983746482       58.08404666313101      112.62867661305819
C           -9.18426983876221       55.04004026521996      107.75937815824184
H           -9.72647200787471       55.78224835674258      107.16234197261616
H           -9.86242607653692       54.21095455987251      107.99353517247685
H           -8.34395987409536       54.66139154794207      107.16939739097479
N           -9.36087400993466       56.24070241470036      110.01468842993430
H          -10.35814288266266       56.34655877946808      110.02533133410638
C           -8.65025060094045       55.66403267832874      109.02155399154927
C           -8.52498655662777       56.65720450795960      110.96913962265147
H           -8.82803643593117       57.14171976680482      111.88035692649481
N           -7.29410237778352       56.37894158126679      110.61361929004924
C           -7.34099100509558       55.77406930622542      109.42245191074488
H           -6.43935951386503       55.46437585176241      108.92979081975717
78
 energy: -116.033142560871 gnorm: 0.048504699968 xtb: 6.7.1 (edcfbbe)
Fe          -5.78362774198129       56.98835567161576      111.69935359084401
N           -6.48077315349189       56.10567770340747      113.36753935363230
N           -6.74125340498385       58.67504890042738      112.29620011226167
N           -4.96244969337199       57.93000567499640      110.13153994899130
N           -4.74623867994563       55.32831968595772      111.19296812730948
C           -6.23506291139089       54.81516577591719      113.71379514361577
C           -6.76859241198291       54.52382342468477      115.01415189280142
C           -7.35497376966993       55.67661792236208      115.45917011023924
C           -7.16124158852896       56.65705587021225      114.41609497841162
C           -7.45455291813842       58.90314334317606      113.43688357239927
C           -8.03294907215419       60.22457908450704      113.42024737157823
C           -7.63252803463088       60.81100253786266      112.23625857216153
C           -6.79576076034963       59.82050998657412      111.57719549992662
C           -5.19708032095553       59.22215404848831      109.77755009355026
C           -4.37909148076047       59.61994834319723      108.66522448100986
C           -3.60368671539065       58.52163484735781      108.35650067139406
C           -4.01558872542479       57.47095981723674      109.27711690135058
C           -3.99728320174244       55.13906160873582      110.07587844563686
C           -3.69650437556087       53.73779741737451      109.90213814937798
C           -4.25553051912789       53.08833295867182      110.96361895368776
C           -4.89982185263059       54.10489669099056      111.76105533668004
C           -5.55884983023825       53.87755573450600      112.95075128757489
H           -5.54110992131954       52.86850809329262      113.33189184158071
C           -7.59530168012324       57.97631479400010      114.46348692090923
H           -8.07981873354802       58.30875130399936      115.37103309620557
C           -6.07871598939306       60.06682659096509      110.42518755110183
H           -6.16716182666528       61.05184086470960      109.99872812947760
C           -3.58855921217145       56.15286243001475      109.22334595840741
H           -2.90174958608633       55.87876691928960      108.43656213418610
C           -8.06563648932006       55.93699006757463      116.74580251989482
H           -8.05502016809476       55.05136799122614      117.37434190785058
H           -9.10514634821643       56.21717311719505      116.56951667553008
H           -7.59034799419351       56.75202631869669      117.29245315044453
C           -6.58185529731822       53.18901346023883      115.65577008437084
H           -5.51615975245935       52.97249319100689      115.75937172680199
H           -7.01330523633029       52.40256561449583      115.03487269974562
H           -7.03787662238915       53.14718880434972      116.63794348120842
C           -8.94024993557403       60.75639925720930      114.47872571961467
H           -8.37750006191146       61.25445125536778      115.26997558149640
H           -9.51463437772097       59.94961846377024      114.92963262618149
H           -9.63991019707024       61.47201961671845      114.06039897984856
C           -7.91590912599844       62.08128422687871      111.62159710185689
H           -7.42998851157379       62.21926537270625      110.66128277905752
C           -8.67774309961528       63.07454385176279      112.04081627145992
H           -9.21182513332465       63.05575797531139      112.97132048781563
H           -8.80140407091207       63.96308177982343      111.44493478495761
C           -4.39719493928322       60.97857317917820      108.04526555931591
H           -4.49555653169931       61.75792966907269      108.80034607941481
H           -5.24293440044434       61.07571264005651      107.36016523340903
H           -3.48412912124851       61.16704506956998      107.48929342769986
C           -2.56156520310314       58.35377227290462      107.37798664566918
H           -1.86118105143808       57.55441537498557      107.60566520755393
C           -2.38655734449859       59.03596430307046      106.26915136671741
H           -3.04645033685512       59.82663938434067      105.95873239847718
H           -1.56556861436456       58.82519590208224      105.60406797502823
C           -2.94891537034261       53.12553512280612      108.76641873154357
H           -1.87302588417399       53.21254690270914      108.92280234731945
H           -3.19486305441584       53.61142203097133      107.82443749150038
H           -3.19903188542803       52.07106842659275      108.68478192206949
C           -4.23065556483104       51.62370734898737      111.24635177167902
H           -3.31896546360384       51.17989157989737      110.85371179309320
H           -5.08062345932203       51.12241314371424      110.78034385053567
H           -4.27102951486205       51.42959442527609      112.31521475939910
O           -4.32630773793675       57.56607004170199      112.86866422139481
H           -4.48201501431260       57.25504601509599      113.76472661249834
H           -3.56342114426436       58.10433475380157      112.66264867529331
C           -9.18582906128448       55.04823770337064      107.76805579690236
H           -9.72841706164591       55.77922098377353      107.17144941144097
H           -9.85896997353114       54.22317404436878      107.99563559706129
H           -8.35843053648522       54.66716833607938      107.17793847074067
N           -9.38112359687811       56.22771431542469      110.00103578864102
H          -10.38177474375391       56.33017729302028      110.00951070229060
C           -8.63811670562237       55.65775801069297      109.00547043198856
C           -8.53764527433268       56.65731759412973      110.96554032002302
H           -8.83965687635269       57.13784002619423      111.86945455589499
N           -7.29572561619118       56.39718832898922      110.62818718551885
C           -7.33688808114608       55.77687599768638      109.42314874278767
H           -6.43806030256686       55.46569137059205      108.93557212265908
78
 energy: -116.040163287686 gnorm: 0.030798145429 xtb: 6.7.1 (edcfbbe)
Fe          -5.77019778718572       56.99182305238847      111.70723341080443
N           -6.47449650111209       56.09715201629290      113.35349087126282
N           -6.73890625956375       58.66887700728457      112.27868594748625
N           -4.95453653230096       57.93247414837474      110.14792274279979
N           -4.78491803570609       55.32743858756471      111.17299397685004
C           -6.23389623803252       54.80795862343845      113.70495597999977
C           -6.77056433817794       54.52453026430325      115.01691616741263
C           -7.34685366801250       55.67525537767581      115.45579906968995
C           -7.15740860899717       56.65302524683544      114.39957113012223
C           -7.46271267061661       58.88712416906741      113.41675502794440
C           -8.04485424903365       60.21030562197405      113.40497504616526
C           -7.64500373342689       60.80446139033488      112.23104879619139
C           -6.80098384680315       59.81821388441728      111.56299247788526
C           -5.19558956753565       59.22062706788355      109.78546619616718
C           -4.37364503834220       59.60983918814016      108.66610920288255
C           -3.60916172796046       58.51459842374959      108.35366782840971
C           -4.01575166017314       57.46716985103148      109.28440379147375
C           -4.01881806578877       55.14202845516093      110.06456134363621
C           -3.69792280804610       53.73684002076273      109.90150106252959
C           -4.25441388122051       53.08843016763969      110.95875753942308
C           -4.92375617705942       54.10305510570863      111.74833272768596
C           -5.56822333749239       53.86611881325986      112.94311527274111
H           -5.53858782395178       52.85977225441476      113.32994774129182
C           -7.60520222942094       57.96268490337918      114.44261635135355
H           -8.10735139911093       58.28679845824797      115.34310142269381
C           -6.08211520461945       60.07330526875256      110.41434024287281
H           -6.16928001445629       61.05487323950213      109.97967386702204
C           -3.59330417519991       56.15115471646109      109.21826758826695
H           -2.90788297806541       55.87635546162949      108.43072961384797
C           -8.05674042725907       55.93669729981657      116.73823242789409
H           -8.05022139349807       55.05302637918275      117.36932522271117
H           -9.09404071217949       56.21643457236005      116.55682213599468
H           -7.58531210064286       56.75177262677931      117.28582768361591
C           -6.60067100250918       53.19906070635665      115.67396113860958
H           -5.53835052554313       52.97765658557032      115.78277448062276
H           -7.03863057058436       52.41253382579443      115.06061168729447
H           -7.05981621468586       53.16566470666604      116.65498213812283
C           -8.93767636499446       60.74131469035673      114.47369478418555
H           -8.36593932921656       61.24501203465637      115.25390046641773
H           -9.50414114713150       59.93735721634842      114.93696339944765
H           -9.64693454785609       61.45213968973138      114.06454741911382
C           -7.93122660454079       62.08671814609331      111.62895674861424
H           -7.45424267440845       62.22860768295546      110.66785175713314
C           -8.68998999557315       63.08472086903628      112.06309944660156
H           -9.21109850623758       63.08113092004491      113.00014367123856
H           -8.81534764935396       63.97211462935378      111.46717160564820
C           -4.38636985595078       60.96550956742590      108.05424358242593
H           -4.49123304513180       61.73819701598508      108.81343190267769
H           -5.22590842498654       61.06327451352323      107.36360865623129
H           -3.46958079227468       61.15633456089676      107.50721725341346
C           -2.56076838006209       58.34499094333663      107.37185284541692
H           -1.85835214395630       57.55268300608250      107.60631798675831
C           -2.38422865923400       59.03893745807364      106.25426463298848
H           -3.06134920506675       59.80698743716113      105.92640020398167
H           -1.55653108133264       58.83848132767448      105.59544217241847
C           -2.94156587639859       53.13420734799229      108.76769737124664
H           -1.86640356072351       53.22595193695086      108.92035837251539
H           -3.19205931366375       53.62027060648818      107.82844909648574
H           -3.18364212769183       52.07876626790995      108.67871801947901
C           -4.22652907415091       51.62871143594639      111.24783300594233
H           -3.31783226228887       51.17897224897780      110.85657452663379
H           -5.07848780093747       51.12944393923581      110.78499483700119
H           -4.26920043976367       51.43641352541820      112.31574283587668
O           -4.25325987506651       57.55951755018274      112.88663326189236
H           -4.39860593503895       57.30341342119011      113.80591427272611
H           -3.49998114077072       58.12544341124884      112.69364348418880
C           -9.18486938587838       55.05174150609857      107.77171689512686
H           -9.73312151066759       55.78314811419256      107.18131422739222
H           -9.85916730729358       54.22970556744485      108.00402302255803
H           -8.36663625324761       54.66765076415415      107.17266464290718
N           -9.39181491739752       56.21787895955467      109.99433866963477
H          -10.39521710784316       56.30779167138500      109.99704454720418
C           -8.62781784848550       55.65740770067988      109.00315633101640
C           -8.55242771595263       56.66111956012217      110.96220584341977
H           -8.86384157988754       57.13926452589526      111.86377286979119
N           -7.30180619469194       56.41960521222722      110.63931945693577
C           -7.33353470335238       55.79087868460010      109.42974042381962
H           -6.43213815718557       55.47904684516613      108.94656609971504
78
 energy: -116.045728230275 gnorm: 0.037354623498 xtb: 6.7.1 (edcfbbe)
Fe          -5.76390664125858       56.99080935398111      111.70822647189554
N           -6.45705511063446       56.08946496962161      113.34440416710417
N           -6.72266197863479       58.66948584136287      112.26602266398208
N           -4.94572554281467       57.93517222411067      110.16194576123223
N           -4.81936542125232       55.32503143892396      111.15514541949400
C           -6.22810879539221       54.80063102634966      113.69824682324888
C           -6.76926356278840       54.52506002164294      115.01710736046137
C           -7.33748776458934       55.67818996759620      115.44819643705775
C           -7.14468836858422       56.65050893842854      114.38279850189966
C           -7.46272955636146       58.87412815981643      113.39576764008004
C           -8.05691474172632       60.19191189243604      113.38768323476701
C           -7.65581913093022       60.79540061065468      112.22331834575640
C           -6.79705816396913       59.82064065701309      111.55309254458098
C           -5.18790480140587       59.22036193743600      109.79539691846811
C           -4.36900412309313       59.59942878238168      108.66636379876178
C           -3.61581784518808       58.50354132435834      108.34990812231221
C           -4.01751122107786       57.46278720890895      109.28964516125922
C           -4.04054155013596       55.14399138509940      110.05492198104204
C           -3.70044740526052       53.73963317615917      109.89933795150299
C           -4.25650467468733       53.09108035426669      110.95312472060908
C           -4.94533332907079       54.10157222753314      111.73483966668616
C           -5.57569364582720       53.85295879323143      112.93537911756695
H           -5.53729220693778       52.84784599363380      113.32517825407211
C           -7.61394465560951       57.94853800920634      114.41818473951299
H           -8.14623916011152       58.25943193843469      115.30651934561797
C           -6.07967923676519       60.08267026542384      110.40456633202399
H           -6.17843758167016       61.05638157986633      109.95403705623374
C           -3.60167449986478       56.14758289763347      109.21246890584078
H           -2.91782680535886       55.87267600542447      108.42378909770883
C           -8.04956001632721       55.94409033588628      116.72855241672247
H           -8.04517990089332       55.05912021798028      117.36038175186607
H           -9.08658345116239       56.22260562867738      116.54107593669941
H           -7.57787882590155       56.75832054124911      117.27798131925529
C           -6.62146621879460       53.20663195856879      115.69312476496727
H           -5.56326090087299       52.97304618439257      115.81602618063012
H           -7.07071418352332       52.41749253054711      115.09074198144053
H           -7.09018291659743       53.19777896073184      116.67296553313979
C           -8.93903257203992       60.72019203862805      114.46616304820024
H           -8.35285448582004       61.23571612938684      115.22952096929558
H           -9.48998619015937       59.91532302557814      114.94892989822168
H           -9.66070144649801       61.42404019405380      114.06182858714760
C           -7.94946556046769       62.08586054528782      111.63719818768395
H           -7.49311253443519       62.23535791325123      110.66859818578884
C           -8.69733530441413       63.09044726526746      112.09593839637846
H           -9.20350654838626       63.09463684235827      113.04208748267141
H           -8.82562136766225       63.97885266789574      111.49937993704377
C           -4.37206046323733       60.95659726090003      108.05978615301980
H           -4.48354954579224       61.72257541883491      108.82543867736665
H           -5.20311052264636       61.05770922732930      107.35902770446532
H           -3.44547928743620       61.14257539709539      107.52484408429599
C           -2.56642457131159       58.33277870000262      107.36541603590700
H           -1.84792680203858       57.56007610869173      107.60569648833760
C           -2.39803264645359       59.02550010743711      106.23966000821993
H           -3.08052091979770       59.78669927058095      105.91181255625965
H           -1.55131129644890       58.84309087178723      105.59781864090587
C           -2.93165278327678       53.14858031049143      108.76693282355787
H           -1.85683310012632       53.24990192692183      108.92102690690959
H           -3.18719200085989       53.63759892083173      107.82952619863696
H           -3.16214095832214       52.08935825308159      108.67154093460924
C           -4.22412257492361       51.63251078385751      111.25051370572749
H           -3.31707673426254       51.17941606731053      110.85670417517881
H           -5.08044328981693       51.13330956171561      110.79299143060481
H           -4.26195757580136       51.44535361704908      112.32029859186579
O           -4.14666182364528       57.51985007534499      112.90153754251790
H           -4.30236759559128       57.38264165249026      113.85787767749930
H           -3.43847678425923       58.16565757669885      112.74333813322997
C           -9.18676200632393       55.05169011014586      107.77130630428491