87
 energy: -124.416634707031 gnorm: 0.371751022328 xtb: 6.7.1 (edcfbbe)
Fe         -19.85700000000000       -3.63200000000000        4.12800000000000
N          -18.42000000000000       -2.85200000000000        3.05200000000000
N          -19.96800000000000       -5.17600000000000        2.85000000000000
N          -21.28100000000000       -4.44400000000000        5.23900000000000
N          -19.77400000000000       -2.06200000000000        5.38500000000000
C          -17.70500000000000       -1.66600000000000        3.31500000000000
C          -16.75600000000000       -1.41100000000000        2.26700000000000
C          -16.84700000000000       -2.43900000000000        1.36800000000000
C          -17.91600000000000       -3.29100000000000        1.85500000000000
C          -19.39300000000000       -5.25500000000000        1.58900000000000
C          -19.83100000000000       -6.44200000000000        0.83400000000000
C          -20.69500000000000       -7.07700000000000        1.74000000000000
C          -20.79400000000000       -6.27700000000000        2.95400000000000
C          -21.77900000000000       -5.75400000000000        5.15400000000000
C          -22.61100000000000       -6.07000000000000        6.30600000000000
C          -22.69400000000000       -4.93100000000000        7.05300000000000
C          -21.82900000000000       -3.95100000000000        6.39500000000000
C          -20.59500000000000       -1.78900000000000        6.45000000000000
C          -20.29500000000000       -0.51200000000000        7.05200000000000
C          -19.28500000000000       -0.01000000000000        6.37200000000000
C          -18.93600000000000       -0.96100000000000        5.32000000000000
C          -17.95800000000000       -0.79900000000000        4.35800000000000
H          -17.33200000000000        0.09100000000000        4.42900000000000
C          -18.41700000000000       -4.42300000000000        1.15500000000000
H          -17.97600000000000       -4.64000000000000        0.18200000000000
C          -21.57300000000000       -6.56500000000000        4.07400000000000
H          -22.06800000000000       -7.53600000000000        4.08900000000000
C          -21.51800000000000       -2.71000000000000        6.90900000000000
H          -22.07500000000000       -2.41500000000000        7.79700000000000
C          -15.83200000000000       -0.20400000000000        2.15800000000000
H          -15.34800000000000       -0.34600000000000        3.14800000000000
H          -16.63400000000000        0.55900000000000        2.25500000000000
H          -15.06700000000000        0.13900000000000        1.42900000000000
C          -16.03500000000000       -2.74300000000000        0.12500000000000
H          -16.86400000000000       -2.73200000000000       -0.61500000000000
H          -15.80900000000000       -3.79600000000000        0.39600000000000
H          -15.14000000000000       -2.26700000000000       -0.32900000000000
C          -18.56300000000000        1.26800000000000        6.51500000000000
H          -17.86200000000000        1.97800000000000        6.02600000000000
H          -18.13300000000000        0.95000000000000        7.48900000000000
H          -19.53600000000000        1.77800000000000        6.67800000000000
C          -21.02600000000000        0.02600000000000        8.21800000000000
H          -20.66100000000000       -0.16800000000000        9.23700000000000
C          -21.55900000000000        1.43300000000000        7.93100000000000
H          -21.93900000000000        1.69300000000000        6.93200000000000
H          -21.56700000000000        2.19900000000000        8.72100000000000
C          -23.37200000000000       -4.71500000000000        8.35900000000000
H          -23.95100000000000       -3.82800000000000        8.02400000000000
H          -22.48400000000000       -4.37100000000000        8.93200000000000
H          -24.02000000000000       -5.34500000000000        9.00500000000000
C          -23.20400000000000       -7.43400000000000        6.54200000000000
H          -22.53000000000000       -8.25000000000000        6.31200000000000
C          -24.71700000000000       -7.47300000000000        6.64800000000000
H          -25.28300000000000       -6.56200000000000        6.89100000000000
H          -25.26400000000000       -8.41300000000000        6.48300000000000
C          -21.48200000000000       -8.32300000000000        1.48400000000000
H          -22.28600000000000       -8.96200000000000        1.90800000000000
H          -20.53800000000000       -8.90700000000000        1.45000000000000
H          -21.77300000000000       -8.01200000000000        0.45800000000000
C          -19.49400000000000       -6.86100000000000       -0.53900000000000
H          -20.54900000000000       -7.10000000000000       -0.79300000000000
H          -18.99500000000000       -7.78200000000000       -0.17000000000000
H          -18.97900000000000       -6.49000000000000       -1.45100000000000
C          -16.51500000000000       -5.09400000000000        8.35500000000000
H          -15.49800000000000       -4.66700000000000        8.22600000000000
H          -16.42300000000000       -6.13700000000000        8.72700000000000
H          -17.07500000000000       -4.47700000000000        9.09000000000000
N          -16.77300000000000       -5.75800000000000        5.92400000000000
H          -15.98500000000000       -6.37300000000000        5.91900000000000
C          -17.23600000000000       -5.08700000000000        7.02900000000000
C          -17.54900000000000       -5.45100000000000        4.86800000000000
H          -17.40400000000000       -5.83500000000000        3.85900000000000
N          -18.48500000000000       -4.62500000000000        5.27600000000000
C          -18.30900000000000       -4.36800000000000        6.60300000000000
H          -18.96700000000000       -3.69100000000000        7.13300000000000
C          -22.85600000000000       -4.12500000000000        1.18700000000000
H          -23.80399999999999       -4.68900000000000        1.05300000000000
H          -22.00700000000000       -4.83900000000000        1.12900000000000
H          -22.77100000000000       -3.37600000000000        0.37100000000000
C          -22.85200000000000       -3.43100000000000        2.52300000000000
H          -22.94500000000000       -4.19100000000000        3.32700000000000
H          -23.73000000000000       -2.75300000000000        2.58200000000000
S          -21.30500000000000       -2.47300000000000        2.74300000000000
C          -21.92700000000000       -1.02100000000000        3.61100000000000
H          -22.40400000000000       -1.30000000000000        4.57500000000000
H          -22.68700000000000       -0.50000000000000        2.99100000000000
H          -21.09400000000000       -0.31900000000000        3.83100000000000
87
 energy: -124.568887779846 gnorm: 0.206013217371 xtb: 6.7.1 (edcfbbe)
Fe         -19.85959450133643       -3.62832615694897        4.12568598373074
N          -18.40471026707337       -2.84101838123743        3.04159910652676
N          -19.97320284940426       -5.16910853409535        2.84928465876984
N          -21.28700682980329       -4.46175498580027        5.25059888552289
N          -19.77654631566529       -2.06325057794216        5.38484248042034
C          -17.70531145155579       -1.66736309998145        3.30048730084472
C          -16.74556135222740       -1.41808293752235        2.25107068446418
C          -16.84416610843114       -2.43774393633903        1.36711118056654
C          -17.90986852413456       -3.29329214327594        1.85301163297594
C          -19.38766929707638       -5.24848499808575        1.60886231376598
C          -19.84832726317102       -6.41066493434545        0.87370799434202
C          -20.71025356882149       -7.04568515278183        1.75517102688301
C          -20.78460625111693       -6.26367459925212        2.95931331180701
C          -21.77044323943032       -5.75712361490186        5.15698531793428
C          -22.61447442343340       -6.08448624405812        6.30062143587447
C          -22.68575580059134       -4.95210293355593        7.04829035556398
C          -21.83003453956351       -3.96275364268100        6.39868466376583
C          -20.59697928169597       -1.80961269312943        6.44734780394497
C          -20.31021640656929       -0.52361175017264        7.04139597173775
C          -19.27520634379883       -0.02450051713968        6.32900011476272
C          -18.93772935813800       -0.98167183596545        5.30691445637427
C          -17.95421659750256       -0.80747322572943        4.35325866625727
H          -17.33819277459667        0.08530782155143        4.42855860382295
C          -18.40442064337821       -4.40927846136795        1.16003842278370
H          -17.97602313236282       -4.63288275150560        0.18737627235641
C          -21.56520826973024       -6.57038353445492        4.07031717722480
H          -22.06596781944907       -7.53398066867312        4.08093124058202
C          -21.53184989939593       -2.71400576322615        6.91549725669807
H          -22.07821964178446       -2.41175005786267        7.80180025776522
C          -15.85079440810102       -0.19953494938840        2.19725508233330
H          -15.33117973703599       -0.30733896160262        3.15666623283462
H          -16.60969007495622        0.59019206402696        2.26404949538307
H          -15.10709268291504        0.08752037329764        1.43224422912762
C          -16.06187028432312       -2.76943469495514        0.12470647611986
H          -16.84825023205408       -2.74833856142229       -0.63996103348198
H          -15.79466108052368       -3.80744049205182        0.35779416719603
H          -15.17326710202157       -2.25460332645603       -0.27992887831053
C          -18.58483300025026        1.27581543489582        6.55371347480145
H          -17.88143248161473        1.92129866627743        6.00405498472637
H          -18.12143043905376        1.00160711260658        7.51214056235789
H          -19.51533893112925        1.83566415233411        6.71590044768230
C          -20.99932107489194        0.11172002597007        8.18712399680039
H          -20.68304738733955       -0.15394275218624        9.20846628708073
C          -21.53593296686172        1.39343500218888        7.94583719878391
H          -21.91481777263407        1.67109118583442        6.95838259408834
H          -21.58903096340518        2.16159835130758        8.71931051373381
C          -23.36008174113827       -4.68009266537886        8.35244825649902
H          -23.96319593803650       -3.80955987952888        8.06319783352222
H          -22.50519824174865       -4.35656683113696        8.96141303556569
H          -23.99116944793749       -5.35494187264837        8.95506915136566
C          -23.26547829084832       -7.40207560201723        6.50282688551848
H          -22.58286593724378       -8.23766037093487        6.32004851599498
C          -24.65842658879690       -7.47659948116266        6.64227514000487
H          -25.24546972857889       -6.58386893568253        6.87367396978368
H          -25.22755039443762       -8.39965793578437        6.50384851997873
C          -21.44877300553592       -8.32147099967182        1.44991650611911
H          -22.25801857879448       -8.90108390998530        1.93109324358746
H          -20.55350621518500       -8.95663749732176        1.41545633041141
H          -21.78391633894815       -8.06146283637508        0.43668099494540
C          -19.51766703313253       -6.89011525483751       -0.50844124377371
H          -20.54081748301716       -7.13079292430498       -0.83275016851744
H          -18.99710131311972       -7.81273913567738       -0.21337284526492
H          -18.98976426722439       -6.46164026003346       -1.38252819371250
C          -16.51632574936676       -5.09716958339022        8.34967867637407
H          -15.50899294560666       -4.67330395728288        8.23037613678990
H          -16.42296056648779       -6.12477443532797        8.72691882356929
H          -17.06764492780369       -4.48894242145708        9.07782086799578
N          -16.76817666377078       -5.75807278601278        5.92967617695068
H          -15.97809730605950       -6.37698567381745        5.92129870594039
C          -17.22772739753337       -5.08215686098996        7.03153158359389
C          -17.55480436517467       -5.44669629014697        4.87596136887396
H          -17.41105923512730       -5.82784008324583        3.87501851027715
N          -18.49127606041053       -4.61504711646989        5.26688867312102
C          -18.30801020729102       -4.37127433425499        6.59637342178228
H          -18.96116947417043       -3.70100110272161        7.12739334060596
C          -22.85677570949688       -4.12585417341796        1.18236440837296
H          -23.79321738044601       -4.68478255147057        1.05130659977684
H          -22.01795541746375       -4.82902556501822        1.12336292173361
H          -22.76970421874775       -3.38730148265567        0.37529040914283
C          -22.86157742528226       -3.43309291819241        2.52629394457826
H          -22.94071998964102       -4.18048233427898        3.32753378652175
H          -23.72042544091744       -2.75041780722278        2.58717632266587
S          -21.31297161314269       -2.46883096847468        2.74081322524906
C          -21.93883828020629       -1.01483595419151        3.61627978143041
H          -22.39994316038371       -1.30016850325804        4.56931930624783
H          -22.68099726601337       -0.50225569418582        2.99205066723605
H          -21.10287528538331       -0.33326933023010        3.82289599981614
87
 energy: -124.644229706356 gnorm: 0.118191786478 xtb: 6.7.1 (edcfbbe)
Fe         -19.85814859210781       -3.63061823510780        4.12674717316166
N          -18.39039347775038       -2.82680006461822        3.03284741979101
N          -19.97570743024586       -5.16601394639040        2.84773256870796
N          -21.29308597129959       -4.48045215457497        5.26414979472556
N          -19.77782760277423       -2.06611418212088        5.38480796188558
C          -17.70674595858445       -1.66950754762087        3.28706079375364
C          -16.73186162995425       -1.41956820775991        2.23625115019507
C          -16.83756194520642       -2.43697594430240        1.36287403841771
C          -17.90545436762277       -3.29614380093117        1.85190340269306
C          -19.38559617202785       -5.24429555765631        1.62194924384103
C          -19.86129648442667       -6.38977191467433        0.90126553055240
C          -20.72500475473694       -7.02920063891326        1.76360677907860
C          -20.78111491870933       -6.25378583794751        2.96212218650472
C          -21.76561261935642       -5.75708185979533        5.16095769533909
C          -22.62088170893439       -6.09214468354466        6.29944207502747
C          -22.68112270169892       -4.96379135772182        7.04941956752576
C          -21.82562621328259       -3.97385821791206        6.40679705877815
C          -20.59984640917208       -1.82500660465754        6.44207368066099
C          -20.32333783824226       -0.53244009890770        7.02674654680562
C          -19.27063022164927       -0.03418813597444        6.29276101769064
C          -18.94333533038685       -0.99822751013928        5.29612595502626
C          -17.95088064417815       -0.81587615846162        4.34673447880365
H          -17.34528001654892        0.07810416389784        4.42814318923549
C          -18.39499529675784       -4.39530929072033        1.16401200158780
H          -17.97667174803812       -4.62737384163003        0.19373996882783
C          -21.56102329827003       -6.57526997603973        4.06885631251148
H          -22.06425151669077       -7.53232564749934        4.07378344529825
C          -21.54500004632259       -2.71656288286417        6.92245344500998
H          -22.08239393416387       -2.40737752649731        7.80603191369654
C          -15.86881502870513       -0.19522542835622        2.23553055231883
H          -15.31466285244266       -0.26637865588199        3.16820283149413
H          -16.58563909514800        0.62315432507924        2.27633769454316
H          -15.14954176296120        0.02514684007167        1.43023671731575
C          -16.08709182288608       -2.79602312706475        0.12197696713158
H          -16.83308665901812       -2.76719813577323       -0.66950901500169
H          -15.77961671173208       -3.82261551895818        0.31465551596808
H          -15.20676573700104       -2.23333070813265       -0.22227987755643
C          -18.61288553821286        1.27717276836815        6.59851221033241
H          -17.90736383056079        1.84491005392523        5.96993503025780
H          -18.11297360360324        1.05286752576762        7.54026757521836
H          -19.49389869368477        1.89249191284800        6.75720691069779
C          -20.96303484170436        0.19496443888577        8.15442657991710
H          -20.69306864706426       -0.14314374580884        9.17257350715789
C          -21.51330602461058        1.35259865341267        7.95714720407457
H          -21.87399792957038        1.66047349728518        6.97531104646332
H          -21.63083988531594        2.11566900911963        8.72557787091090
C          -23.34816421900248       -4.64527184038728        8.34767236145044
H          -23.97577073909336       -3.79040981596613        8.10288899250493
H          -22.52610968671057       -4.33882385633703        8.99334256324769
H          -23.96123189409445       -5.37480944692416        8.89589245538669
C          -23.31405464470957       -7.37843330576228        6.47225969378057
H          -22.63585296358630       -8.23038695098139        6.31572834104781
C          -24.60164517163604       -7.47213601865378        6.62762666162736
H          -25.21624126069631       -6.59800083552954        6.84510902085175
H          -25.18526720153924       -8.38914433324040        6.53705079614709
C          -21.41450747950084       -8.31901707744321        1.41487065068617
H          -22.22784194054546       -8.82333514025035        1.96779972153996
H          -20.56848198420298       -9.00452486420854        1.37986519502487
H          -21.79058789957663       -8.11143258397701        0.41387646259657
C          -19.54150638745607       -6.92103925894117       -0.47714032403242
H          -20.53290879001274       -7.16097726438785       -0.86582164217354
H          -18.99977417907404       -7.84130479318626       -0.25036190095431
H          -18.99850426440747       -6.41528143310900       -1.29835626594118
C          -16.51835312634628       -5.09963266739085        8.34461824268625
H          -15.51652751620447       -4.67897644540300        8.23363555493661
H          -16.42437700645629       -6.11716009268663        8.72508876673151
H          -17.06443076913177       -4.49809734257748        9.06794501150148
N          -16.76355061489654       -5.75739403933431        5.93309627878030
H          -15.97291409152879       -6.37952242335820        5.92090757759596
C          -17.22102896978240       -5.07659730872412        7.03247561693992
C          -17.55871766536052       -5.44234891864318        4.88331731106430
H          -17.41787306624295       -5.82196731163399        3.88876500820160
N          -18.49553714041436       -4.60715465475827        5.25934868961439
C          -18.30521519262360       -4.37292861881488        6.58994782341414
H          -18.95462762826571       -3.70988394432166        7.12525694032172
C          -22.85956799450505       -4.12672756528061        1.17837135386526
H          -23.78720385242278       -4.68262559623076        1.04903334468948
H          -22.02641884237255       -4.82052594896851        1.11898481317124
H          -22.76921332229990       -3.39419747481582        0.37907354976844
C          -22.86987721065779       -3.43409707151540        2.52893337347592
H          -22.93573564124096       -4.17090445565056        3.32866072429941
H          -23.71226742129333       -2.74593836535253        2.59151089321234
S          -21.31668142929349       -2.46638903499705        2.73864517451568
C          -21.95119729923994       -1.00873790527568        3.62078235953389
H          -22.39893743197327       -1.30188464372002        4.56523473186954
H          -22.67910947624163       -0.50345450390707        2.99167947705437
H          -21.10990907199995       -0.34608089105595        3.81487888358930
87
 energy: -124.680107176261 gnorm: 0.053281643797 xtb: 6.7.1 (edcfbbe)
Fe         -19.85608948166324       -3.63153022682397        4.12619791753107
N          -18.38493766140437       -2.82291100042883        3.02960658972340
N          -19.97711256083242       -5.16224431427881        2.85039390365832
N          -21.28528162772425       -4.48680629332900        5.27257684818625
N          -19.77844818635219       -2.07246307459931        5.38045025051697
C          -17.70748626004250       -1.67319422919299        3.28007676846421
C          -16.72566534502620       -1.42120165950021        2.23380940500250
C          -16.83528316902672       -2.44198899421270        1.35944625738500
C          -17.90235098016966       -3.29926794316729        1.85366404818916
C          -19.38399102860405       -5.24263509442448        1.62926474361510
C          -19.86775748943302       -6.38702517021152        0.91345139996083
C          -20.73144092482398       -7.02743555364695        1.76465910747320
C          -20.78160917955325       -6.25014510925702        2.96498457453934
C          -21.75607776241720       -5.75457847377763        5.16206669657633
C          -22.61470010435104       -6.08213630108858        6.29407084314399
C          -22.67260236315597       -4.95868950972488        7.05357227371534
C          -21.81537331869204       -3.97739485711543        6.41331740237642
C          -20.60147529969446       -1.83350530434256        6.43516837928329
C          -20.31916932287714       -0.54329645863734        7.01153269404088
C          -19.27099092391844       -0.03461842664591        6.27826272393305
C          -18.94602533887410       -1.00575709932263        5.28667823616535
C          -17.94952115284610       -0.82343744616405        4.33957398572681
H          -17.35062941846065        0.07137488695458        4.42540901427265
C          -18.39075589730992       -4.39205857504634        1.16875324832092
H          -17.97674588553085       -4.62385634873589        0.19880358099653
C          -21.55598779755001       -6.57658076885202        4.07059960770225
H          -22.06396426170240       -7.52975960310627        4.06662424704556
C          -21.54951462721617       -2.71764446896721        6.92574381731760
H          -22.08677602566295       -2.40266253719049        7.80752107345972
C          -15.87892326388530       -0.19478781079006        2.26159448760667
H          -15.29526634826442       -0.21930196023697        3.18333055959773
H          -16.55743667432989        0.66034841696353        2.29244375030018
H          -15.18520338244056       -0.04325177364294        1.41967357861674
C          -16.10282426717711       -2.81387730191284        0.11807698927312
H          -16.81590510013049       -2.78937807484436       -0.70649773329193
H          -15.76167330913029       -3.84197996211148        0.26209770538252
H          -15.23419598636663       -2.20025091703156       -0.16227463265000
C          -18.62867445157012        1.27408509374549        6.62216532966123
H          -17.92481106886162        1.76791327384521        5.92674924432377
H          -18.10396106377868        1.10793967721146        7.56657740735230
H          -19.46346633320748        1.95470227275316        6.80330729641398
C          -20.90895063186082        0.19498123774415        8.14316000959444
H          -20.66227978862507       -0.14958120655354        9.15215102708186
C          -21.54936818372559        1.35791668884248        7.96472762932146
H          -21.83746347120191        1.68447099879111        6.96811588296352
H          -21.71641659116443        2.08719501675843        8.75244388276363
C          -23.34020419450151       -4.62415043687814        8.34380816648166
H          -23.98999705795778       -3.76869343274888        8.14863999359695
H          -22.55115644345523       -4.31711930473168        9.03339863160943
H          -23.93641001844992       -5.40740403948115        8.83318472987130
C          -23.30465450018263       -7.36226650112106        6.42914407559404
H          -22.65726211430832       -8.23096512319930        6.28563213468673
C          -24.61195061957978       -7.47656197978182        6.64764967200213
H          -25.22412379574245       -6.59573073671453        6.80962169677609
H          -25.16799361176448       -8.40452714466899        6.59130041947776
C          -21.39349426782609       -8.31650072804046        1.39558934062269
H          -22.20352798893430       -8.74455928517035        2.01737598565016
H          -20.58744214883252       -9.05572078322357        1.33879013276081
H          -21.80007003187641       -8.17117435079626        0.39018906594704
C          -19.55508572167843       -6.93734113518736       -0.45148414259504
H          -20.52139634737733       -7.19331735726577       -0.90149632693597
H          -19.00583116625827       -7.87169971712363       -0.28772870754192
H          -18.99778061830577       -6.35267751333713       -1.20925145946468
C          -16.51966559041258       -5.10246795692943        8.34085250706676
H          -15.51822481990297       -4.68382082330925        8.23795095914584
H          -16.42737716234917       -6.11741241119429        8.72309778571449
H          -17.06689472749513       -4.50443240265010        9.06201845563712
N          -16.75998636064035       -5.75492594205849        5.93217159707299
H          -15.97017369411877       -6.37955241116722        5.91853198005039
C          -17.21685485541085       -5.07194142557078        7.02964710184223
C          -17.56016627571000       -5.43864500149245        4.88649526123371
H          -17.42526924378641       -5.81978285527271        3.89529432514713
N          -18.49551815795102       -4.60042579577573        5.25624250170091
C          -18.30155792869797       -4.37084073432036        6.58657470605721
H          -18.95097410311416       -3.71542163218021        7.12726264813233
C          -22.86397676496624       -4.12475716694319        1.17700377156816
H          -23.78742252436823       -4.68266651266976        1.04467059855449
H          -22.03082892794101       -4.81485516724833        1.11382451542688
H          -22.77050632062612       -3.39539323769011        0.37789676323687
C          -22.87414766870797       -3.43223758893427        2.52891520632047
H          -22.93076833491246       -4.16176727620020        3.33367219024022
H          -23.70752978836553       -2.73636211518576        2.59694534246367
S          -21.32022010174953       -2.46421555074424        2.73425886464097
C          -21.96221566673689       -1.00795264953046        3.61989852124371
H          -22.40316935947971       -1.30543469284644        4.56425884508211
H          -22.68417988627471       -0.50201073514612        2.98767942695647
H          -21.11440777861521       -0.35596206016596        3.80635066429266
87
 energy: -124.694101402776 gnorm: 0.052035880393 xtb: 6.7.1 (edcfbbe)
Fe         -19.85420646708749       -3.63277332718484        4.12851646922314
N          -18.38490138939115       -2.82420579289252        3.03049058452285
N          -19.98016519997590       -5.16387080643850        2.85307441927832
N          -21.27202317139465       -4.48959800751656        5.28059023946317
N          -19.77984369210072       -2.07198513002928        5.37802251016088
C          -17.70960173097820       -1.67862353414610        3.27863037932894
C          -16.72325397486272       -1.42417532968988        2.23652681593727
C          -16.83561373622218       -2.44878367187370        1.35826798072610
C          -17.90323046119206       -3.30269142220216        1.85719302829990
C          -19.38439150876725       -5.24632312164108        1.63291087761185
C          -19.86724451538289       -6.39613921678630        0.92006788288370
C          -20.73154593599200       -7.03808047726326        1.76557504030965
C          -20.78502154580583       -6.25404894425572        2.96871100898076
C          -21.74840880122472       -5.75226823990089        5.16718683395028
C          -22.62030966360062       -6.06986463937207        6.28964441054310
C          -22.66909548724494       -4.94606224342804        7.05740127597628
C          -21.80183127313271       -3.97781211436548        6.42016539054673
C          -20.60456937003195       -1.83298799591062        6.43229104146963
C          -20.32485732927375       -0.54143193867451        7.00267617972241
C          -19.27093756843261       -0.02919981925044        6.28260342000218
C          -18.94867123492593       -1.00361715412907        5.28352530256588
C          -17.95054531482856       -0.82773666375583        4.33600943783875
H          -17.35510419255424        0.06705374642693        4.42219624504550
C          -18.39141740438945       -4.39428072335484        1.17258312863856
H          -17.97659256072953       -4.62389498937153        0.20367424990272
C          -21.55398809632033       -6.57815434733939        4.07568453567241
H          -22.06782606213226       -7.52737365838637        4.06426916587514
C          -21.55074365769698       -2.71478275235533        6.92878824050323
H          -22.09249155498452       -2.39541279029258        7.80632721407991
C          -15.88110971230576       -0.20059443596666        2.27167387986771
H          -15.27555164856290       -0.19007389516883        3.18221384237543