87
 energy: -124.720509786180 gnorm: 0.000039882169 xtb: 6.7.1 (edcfbbe)
Fe         -19.90474578341905       -3.52617697528154        4.10471824715745
N          -18.49482856382156       -2.69490643494698        2.96073894736176
N          -19.96742168182688       -5.10674713115857        2.87598080602812
N          -21.32065254059748       -4.36986947226241        5.25326622080033
N          -19.78760265945167       -1.98442898859773        5.38082925779864
C          -17.87512089922259       -1.50448468199091        3.16792356513955
C          -16.94558504611057       -1.21808246431437        2.09591122571604
C          -17.01894445375867       -2.26883961735736        1.23765760171486
C          -17.99093038214860       -3.18240674306665        1.79871824703023
C          -19.23175202933129       -5.29565960987269        1.74926206013629
C          -19.53575096613787       -6.57554544711887        1.14841908677065
C          -20.47452194448442       -7.15618824340549        1.94314414418646
C          -20.73034298188841       -6.22213908986005        3.01677352984636
C          -21.91865768319404       -5.57299095887048        5.06243577383883
C          -22.90397948001979       -5.82539630225704        6.09550474206035
C          -22.85424149157500       -4.74515527109924        6.93666886042886
C          -21.85339415130492       -3.86036353342735        6.39860682458837
C          -20.49930172123016       -1.81424963864418        6.52472076422477
C          -20.12411432146358       -0.57734817993614        7.18222682303756
C          -19.14855954703866       -0.01755321813219        6.40030683211363
C          -18.96037732990864       -0.91046182346064        5.28585888926197
C          -18.07424946641268       -0.67231495012506        4.24959847637398
H          -17.49960406151755        0.24040105451635        4.28648071128858
C          -18.32111871515947       -4.39617756904531        1.22627571676853
H          -17.82715294107735       -4.66570015963677        0.30513058002286
C          -21.65071313898429       -6.44471129365940        4.02290873061877
H          -22.20435882973626       -7.37046951685002        3.99138022666961
C          -21.48033989451297       -2.66668697687334        6.99349359151916
H          -21.99496241293360       -2.38303336719489        7.89883254584841
C          -16.10679583987194        0.01094595374275        2.01597629680108
H          -15.44746244276438        0.08299975974553        2.88151855209622
H          -16.73533239498305        0.90125589070585        1.99474981507957
H          -15.49333465950192        0.00344593863457        1.11831832655354
C          -16.28350412425574       -2.50256898575091       -0.03746109551453
H          -16.98263642481012       -2.61174003370418       -0.86660911254899
H          -15.68603999709260       -3.41302452751910        0.02275517214047
H          -15.61804146500139       -1.67158236528604       -0.25792307293557
C          -18.36271392583740        1.22252463140228        6.64741407885958
H          -18.75938347702390        2.05736736349622        6.06707102447916
H          -17.32089719987779        1.08040101845049        6.36410163166130
H          -18.40447486427051        1.48716051813362        7.70212426811725
C          -20.68549268554246       -0.10163076694294        8.42692550763548
H          -20.97640384100950       -0.86981316738097        9.13448153314020
C          -20.87284707752673        1.17380146031010        8.75073037725375
H          -20.64804957775041        1.97649162737442        8.07036466774168
H          -21.28510751791143        1.45827280928336        9.70464544249995
C          -23.60456254659626       -4.52409967947831        8.20360461041200
H          -24.44760125680065       -3.84890321446147        8.04598139689665
H          -22.95975091360190       -4.08385272422192        8.96299751734277
H          -23.98797442633750       -5.47042645230379        8.57964484815817
C          -23.72405913190360       -7.01330765163886        6.18120351688764
H          -23.26187816264304       -7.92829956365994        5.82876985389193
C          -24.97100217919764       -7.05723960640170        6.63906872216836
H          -25.49655292627647       -6.17353167813691        6.95678453222202
H          -25.52127888454561       -7.98230375283225        6.68724467305994
C          -21.15086364701071       -8.47579590001120        1.79676849338661
H          -22.22838442950172       -8.34443952099810        1.69345924490501
H          -20.96921189160496       -9.09959050857874        2.67234119574003
H          -20.78529556442562       -9.00290716582657        0.91885679573732
C          -18.90883121970786       -7.08677314446780       -0.10341317205444
H          -19.28864400110786       -8.07513761288519       -0.35022929596171
H          -17.82602357450384       -7.15303460586886        0.00683277947526
H          -19.12246522717922       -6.41924234973082       -0.93874084981059
C          -16.78124801028734       -5.74480731920059        8.16267510925052
H          -15.78892087524242       -5.32654579074428        8.33114594228682
H          -16.70584959712586       -6.83116378328463        8.21040125732671
H          -17.44055023848194       -5.40674348702361        8.95593186020902
N          -16.69256368673395       -5.59282923010436        5.66432972781548
H          -15.83160655340486       -6.10461036254080        5.56206426526511
C          -17.32059513206644       -5.31061461477622        6.84924990772455
C          -17.43717328169995       -5.06140129450617        4.66911385573409
H          -17.18712330284834       -5.12685065674325        3.63048413377203
N          -18.49727603809227       -4.46075409889082        5.15136481930251
C          -18.43903750183856       -4.60692176444489        6.50555008935613
H          -19.19928558123613       -4.19937424398990        7.13860304813821
C          -22.46429133422780       -3.99161920752465        0.77647615363625
H          -23.20909154507705       -4.70570089228935        0.43063018875211
H          -21.49069530775978       -4.47230176421302        0.76648573065890
H          -22.43941786623407       -3.14816186616730        0.09058276689391
C          -22.80580596932870       -3.52286714304055        2.17746914830390
H          -22.84502122728253       -4.35791758509753        2.87484860886316
H          -23.75640408739077       -2.98954278129902        2.18447861479443
S          -21.53169967385996       -2.34038265145286        2.77997401426745
C          -22.58180177780488       -1.41373739219265        3.94093152607481
H          -22.98730396046441       -2.08738177359556        4.68905244742293
H          -23.37614627394275       -0.92217037974884        3.38528167584732
H          -21.94986856135028       -0.67333530643695        4.41874380444764
