78
 energy: -115.979555378882 gnorm: 0.273333521118 xtb: 6.7.1 (edcfbbe)
Fe          13.79100000000000        2.39300000000000        1.05300000000000
N           13.19000000000000        0.67500000000000        1.92700000000000
N           15.47300000000000        2.43900000000000        2.19100000000000
N           14.49600000000000        3.98500000000000        0.06500000000000
N           12.18200000000000        2.24000000000000       -0.23400000000000
C           12.07500000000000       -0.12400000000000        1.58100000000000
C           12.09500000000000       -1.26900000000000        2.47300000000000
C           13.16200000000000       -1.25300000000000        3.25700000000000
C           13.87700000000000       -0.02800000000000        2.93100000000000
C           15.81900000000000        1.51100000000000        3.19800000000000
C           17.02800000000000        1.92400000000000        3.80400000000000
C           17.39900000000000        3.09200000000000        3.21700000000000
C           16.43200000000000        3.41400000000000        2.19800000000000
C           15.65800000000000        4.69900000000000        0.30900000000000
C           15.80200000000000        5.69900000000000       -0.74200000000000
C           14.75400000000000        5.67000000000000       -1.61600000000000
C           13.88800000000000        4.56900000000000       -1.10000000000000
C           11.84000000000000        3.19400000000000       -1.17500000000000
C           10.51700000000000        2.99500000000000       -1.58900000000000
C           10.05900000000000        1.79800000000000       -0.88900000000000
C           11.11200000000000        1.38700000000000       -0.03400000000000
C           11.10700000000000        0.27100000000000        0.72500000000000
H           10.23500000000000       -0.37700000000000        0.63900000000000
C           15.06400000000000        0.38000000000000        3.49100000000000
H           15.46700000000000       -0.26900000000000        4.26800000000000
C           16.49900000000000        4.46700000000000        1.34500000000000
H           17.29900000000000        5.18900000000000        1.50800000000000
C           12.66800000000000        4.20100000000000       -1.62500000000000
H           12.32000000000000        4.76700000000000       -2.48900000000000
C           13.63400000000000       -2.25800000000000        4.33600000000000
H           12.90900000000000       -3.09800000000000        4.40300000000000
H           13.69000000000000       -1.75100000000000        5.32300000000000
H           14.63100000000000       -2.66400000000000        4.06100000000000
C           11.04400000000000       -2.33700000000000        2.45100000000000
H           10.51300000000000       -2.31400000000000        1.47600000000000
H           10.31000000000000       -2.15800000000000        3.26500000000000
H           11.51800000000000       -3.33300000000000        2.58000000000000
C           17.71000000000000        1.12000000000000        4.95500000000000
H           17.47600000000000        0.04000000000000        4.84200000000000
H           17.32600000000000        1.47100000000000        5.93700000000000
H           18.81100000000000        1.25700000000000        4.90700000000000
C           18.54500000000000        3.98800000000000        3.53400000000000
H           18.96500000000000        4.66300000000000        2.77400000000000
C           19.07300000000000        3.97800000000000        4.74900000000000
H           18.67100000000000        3.31200000000000        5.52700000000000
H           19.92000000000000        4.63500000000000        4.99500000000000
C           17.02700000000000        6.60300000000000       -0.81900000000000
H           17.93700000000000        6.01600000000000       -0.57300000000000
H           16.92700000000000        7.43400000000000       -0.08900000000000
H           17.12800000000000        7.01100000000000       -1.84700000000000
C           14.47800000000000        6.39700000000000       -2.89400000000000
H           14.04300000000000        5.86900000000000       -3.75500000000000
C           14.75000000000000        7.68500000000000       -3.01500000000000
H           15.18500000000000        8.24500000000000       -2.17400000000000
H           14.54400000000000        8.21300000000000       -3.95800000000000
C            9.75200000000000        3.91500000000000       -2.53700000000000
H           10.17300000000000        3.82500000000000       -3.56100000000000
H            9.85000000000000        4.96900000000000       -2.19800000000000
H            8.68100000000000        3.62200000000000       -2.56100000000000
C            8.68700000000000        1.18700000000000       -0.95500000000000
H            8.16600000000000        1.54300000000000       -1.87000000000000
H            8.09800000000000        1.49100000000000       -0.06400000000000
H            8.77100000000000        0.08000000000000       -0.99600000000000
O           14.85600000000000        0.87800000000000       -0.33400000000000
H           14.63100000000000        0.01000000000000        0.00100000000000
H           15.37100000000000        1.05300000000000       -1.03700000000000
C           10.38000000000000        6.12400000000000        3.56400000000000
H           10.83500000000000        7.06200000000000        3.94900000000000
H            9.70600000000000        5.70500000000000        4.34100000000000
H            9.80100000000000        6.35600000000000        2.64500000000000
N           12.34100000000000        4.67700000000000        4.19400000000000
H           12.37400000000000        4.97300000000000        5.14900000000000
C           11.44800000000000        5.15000000000000        3.25000000000000
C           13.13500000000000        3.77500000000000        3.61900000000000
H           13.91800000000000        3.22100000000000        4.13500000000000
N           12.80200000000000        3.68400000000000        2.34200000000000
C           11.78500000000000        4.52200000000000        2.10400000000000
H           11.36800000000000        4.60800000000000        1.10800000000000
78
 energy: -116.031057472613 gnorm: 0.114207089305 xtb: 6.7.1 (edcfbbe)
Fe          13.81292230839815        2.38109485778101        1.03335062527887
N           13.20261391169695        0.67277399095430        1.93291993915957
N           15.46573801899848        2.43031799152679        2.20034182875697
N           14.48346204606130        3.98432943166729        0.03552125054712
N           12.19005520426461        2.26235565738530       -0.20786487856972
C           12.08698903925050       -0.10072111857003        1.62039883024341
C           12.09009405221611       -1.27835717455351        2.46698927103933
C           13.17598639805483       -1.24264517247628        3.26406795674089
C           13.87896255892692       -0.01644247652012        2.92236833011795
C           15.81511466572832        1.51790316258502        3.18594823256080
C           17.03039480000713        1.92311741887819        3.81762238316341
C           17.40960357672553        3.09936354270666        3.22565251593402
C           16.42645454230989        3.39592363481966        2.20470024678281
C           15.62897477161689        4.70012648820076        0.28279766681530
C           15.80472367567342        5.70825990509214       -0.74781331984246
C           14.75393433137317        5.64229858538620       -1.61614715183184
C           13.90069811658393        4.55640566345802       -1.09859702250497
C           11.83790112376482        3.18866735720438       -1.15163652951591
C           10.50086056253498        2.97681522498342       -1.58308666233050
C           10.05160670457891        1.83314751721113       -0.90622547843062
C           11.12397581926005        1.41204341649003       -0.06035642292921
C           11.11254583347543        0.27958118266984        0.73090450931355
H           10.24363179516559       -0.36830155870315        0.64242834188277
C           15.06710067568578        0.38721006408618        3.48869084067454
H           15.46494269382812       -0.26017335069416        4.26447666422634
C           16.48740529307751        4.46742763855263        1.33637397338279
H           17.29409208448451        5.17845935628744        1.49114695692712
C           12.67733677179827        4.19837416846915       -1.61669303312531
H           12.32383415377099        4.76687580170672       -2.47253110831826
C           13.62626639136669       -2.23862506973862        4.31812180975104
H           12.92069290238026       -3.07349471171978        4.39584610874343
H           13.69023031860484       -1.75546498537982        5.29945869980839
H           14.61145038014430       -2.64713600832631        4.06398218913078
C           11.03951963812319       -2.34072417732475        2.44303749702330
H           10.50846953550079       -2.32774702568782        1.48784032026992
H           10.31573032074052       -2.17170816972600        3.24957072197695
H           11.49785773157201       -3.32559944803554        2.57864995490824
C           17.70145718496210        1.13103382616193        4.93356413800112
H           17.47800067711526        0.06366115439754        4.83623949325379
H           17.33318246427639        1.46470711140567        5.91233692893572
H           18.78826830830532        1.25686095834605        4.90138993285744
C           18.54457119870002        3.96947520759304        3.54281865401942
H           18.93892515960484        4.63829723512585        2.77879207867597
C           19.08316362342166        3.98051908110823        4.75600572609065
H           18.68951113233927        3.34448992484950        5.53617352415712
H           19.91561936677667        4.62944810771516        5.00029630519351
C           17.01902741339856        6.59761244510705       -0.82092748582524
H           17.92257966326200        6.02772945858271       -0.57674200200353
H           16.93123756118889        7.42390000447278       -0.10498397163054
H           17.12733458062615        7.00768276647683       -1.82953656334670
C           14.48602388065017        6.38633247769998       -2.86329013656383
H           14.04931567610064        5.85299986132507       -3.70836739631426
C           14.75477333265128        7.67993403737060       -3.00500461339295
H           15.17422644401343        8.25256183940985       -2.18755486643681
H           14.55208741036325        8.20396701362859       -3.93548719442560
C            9.75612459600417        3.88886115633710       -2.52645387673046
H           10.16525930713628        3.82110033859349       -3.54292168705616
H            9.84613922930925        4.93416872964898       -2.20120624689818
H            8.69509631102209        3.62650185349343       -2.56235496593010
C            8.69535061454288        1.20162186776172       -0.96468901503760
H            8.16247111005473        1.53591486680258       -1.85958839765886
H            8.10478979729757        1.48113098460696       -0.08211319640344
H            8.76814366351452        0.10703091243553       -0.99652533758946
O           14.84940755625991        0.88515463987034       -0.31495705380929
H           14.63737749027517        0.00488954609700       -0.00950394041534
H           15.39048278701287        1.04687619598194       -1.06558874179792
C           10.38442948195424        6.12954768940892        3.56808177261697
H           10.81958365613347        7.06074483416196        3.94890564347838
H            9.70906809830986        5.72190182570197        4.32970601823398
H            9.80998730704093        6.35295362802550        2.66503660369002
N           12.33029103989998        4.67785062512043        4.19744577353027
H           12.36455957451862        4.97591408442718        5.15700878149730
C           11.45140708045038        5.15172120169145        3.25196534695128
C           13.13262965399764        3.77265140761417        3.61101885957868
H           13.90765268479062        3.22941973602168        4.12299908818775
N           12.81671032492489        3.65537557305150        2.33689156016946
C           11.79107875960872        4.50688664722258        2.10044375058338
H           11.37248205044159        4.59783753450083        1.11442065180322
78
 energy: -116.045669137914 gnorm: 0.033421302419 xtb: 6.7.1 (edcfbbe)
Fe          13.81819751033217        2.37461672379816        1.02279618909574
N           13.20524069772842        0.67422522037595        1.94351722323634
N           15.46160681245254        2.41960403030342        2.19498348792519
N           14.48185024868566        3.97515827777956        0.00753572454687
N           12.19522315229058        2.28061181372323       -0.18223251528516
C           12.09889247174450       -0.07489127255881        1.64835292140343
C           12.08193122490176       -1.27489072099310        2.46209321560449
C           13.18224336870225       -1.22749871872382        3.26348232717821
C           13.87752733461078       -0.00450123837475        2.91399900241177
C           15.80537298463068        1.52536826935550        3.16857532125858
C           17.02338528990398        1.92395859144131        3.82402872352513
C           17.40739033470901        3.10640434295288        3.23247944923443
C           16.42001100014120        3.37991782922768        2.20125105429877
C           15.61422907690209        4.68656636953441        0.26167047496693
C           15.80867018597577        5.71049631089314       -0.74326709493563
C           14.75254584840585        5.61498811194400       -1.60820323669930
C           13.91808749142232        4.53347558955226       -1.09777108554303
C           11.84137429545238        3.19060614244185       -1.12585401545490
C           10.49159917606041        2.96338595418829       -1.57362097873397
C           10.05269616230763        1.85833128152860       -0.91629628079296
C           11.13687583442880        1.43231758978902       -0.06494034625640
C           11.12022626791861        0.29433999897612        0.73986723984389
H           10.25520380852081       -0.35097813605569        0.65079828326870
C           15.06895451185893        0.39335649625096        3.48795254122915
H           15.46313442478561       -0.24976202693636        4.26386662509139
C           16.47935601592532        4.45688858280263        1.32480411543475
H           17.28817294148298        5.16010566810036        1.47007946562711
C           12.68212306942115        4.19448169178895       -1.60826515029860
H           12.32073239622975        4.76903833378519       -2.45220550425031
C           13.62190619967710       -2.21396179070139        4.29672659481979
H           12.91996082154135       -3.04065000762260        4.37321066489657
H           13.69014561088990       -1.74412841650158        5.27702255472281
H           14.60185298968195       -2.62572025351974        4.05538409428966
C           11.03513193593345       -2.33789129149418        2.43537065767865
H           10.50356297713316       -2.33580335978270        1.49048937418805
H           10.31453616810167       -2.17820207727525        3.23733066014230
H           11.48518066441493       -3.31757835687610        2.57654532078015
C           17.68877087940880        1.14323005296314        4.91000214130649
H           17.47246718327602        0.08182676593909        4.81634601088238
H           17.33375376177045        1.46475240877903        5.89117132521012
H           18.76810640318284        1.27019531209866        4.88073580517824
C           18.53136627802009        3.95515247608009        3.55650447122806
H           18.91089548610512        4.60610636473979        2.77888504784958
C           19.09037191404014        3.98889522673127        4.76442358471349
H           18.71069324953933        3.37991210673831        5.56048192811828
H           19.92210015739256        4.62889014464303        4.99485814819736
C           17.00957585997276        6.59268618296949       -0.82007559593408
H           17.90948130102609        6.03066705619695       -0.57864266339279
H           16.92916529413644        7.41819822989830       -0.11296540841346
H           17.11685639866785        7.00333958954837       -1.82003671950006
C           14.49111622161953        6.37271622967996       -2.82495245966984
H           14.04869428793839        5.83007592410909       -3.65346638881840
C           14.75853589423315        7.66673231742926       -2.98769506680309
H           15.16706194348228        8.25893741711755       -2.18967917916632
H           14.55996534030421        8.18155447374719       -3.91374468217064
C            9.76156570746396        3.86518293553433       -2.51654577895605
H           10.16987205667923        3.80251841150832       -3.52588500155297
H            9.84855996763338        4.90402240384397       -2.19457362780635
H            8.70615591033341        3.61431047470512       -2.55942329473692
C            8.70664236120898        1.21327466117256       -0.97373482970973
H            8.16395013840057        1.53650010042914       -1.85685909052972
H            8.11787236837461        1.47887180615581       -0.09368104735519
H            8.78335857181319        0.12730571865171       -1.00123506201598
O           14.86374284231691        0.90559993296629       -0.29730157655917
H           14.65318652155624        0.00506855031055       -0.04413672031701
H           15.39311505448145        1.03509496682208       -1.08521921009062
C           10.38951307339607        6.13339496775969        3.56656322448122
H           10.81465337724576        7.06006516966378        3.94675812600757
H            9.71390538474245        5.73287896049855        4.32123034666281
H            9.81793030000544        6.35221776558070        2.67194018860401
N           12.32152640749687        4.67575302674734        4.20116117638707
H           12.35613501181992        4.97436496982483        5.16275123139355
C           11.45522733206750        5.14923786018993        3.25138127163651
C           13.12765897296723        3.76751516952045        3.60920856267337
H           13.89939818152565        3.23218198701227        4.11903003708034
N           12.82736869802151        3.63468253147979        2.33920244347703
C           11.79431026468632        4.49190605298441        2.10027972223706
H           11.37224233634171        4.58539774411250        1.12138151172525
78
 energy: -116.048906442479 gnorm: 0.022734760248 xtb: 6.7.1 (edcfbbe)
Fe          13.81987398948088        2.36866815857095        1.01990211734654
N           13.20310343843404        0.68020293601297        1.94753478541851
N           15.45682447071111        2.41858126773173        2.19213475416983
N           14.48972658826243        3.96025775078442        0.00151749243179
N           12.19258098690460        2.29457994482412       -0.16111394078033
C           12.09564159994514       -0.05736515361102        1.66105626791577
C           12.07287102314521       -1.26338901171717        2.46250942937835
C           13.17828776426189       -1.21616935786842        3.25936949938575
C           13.87445387030331        0.00285400872454        2.91372150582680
C           15.79438813568307        1.52839606677973        3.16452199943166
C           17.00798664525856        1.92836721176769        3.82961990232536
C           17.39429869590933        3.11106004641155        3.24381167984128
C           16.41636882076427        3.37618292890641        2.20105791821346
C           15.61999766089768        4.66936519147933        0.25689178943457
C           15.81251248007360        5.70077948264414       -0.73621567123372
C           14.75372698578126        5.60202435319933       -1.59837937504018
C           13.92616350508794        4.51959769292302       -1.09574782506483
C           11.84576159421262        3.20123644263990       -1.10985465338188
C           10.49424652119581        2.96795174048947       -1.56749005050986
C           10.05326529879647        1.86485392701441       -0.90889172678790
C           11.13688503788770        1.44593387120341       -0.04636806903273
C           11.11470212777976        0.31123851728475        0.75548982223430
H           10.25058248178759       -0.33161398175260        0.66806376920814
C           15.06612627373145        0.39558931135412        3.49147380620334
H           15.45829690978771       -0.24293059697645        4.26977654724119
C           16.48436942926592        4.44413286608790        1.31900817649751
H           17.29764793061495        5.14203394438579        1.45183932582201
C           12.68135057842417        4.19653867361471       -1.60134548400569
H           12.31424022766555        4.77974008358383       -2.43472408239688
C           13.62074505895845       -2.19937648702594        4.28640200673258
H           12.91474004170678       -3.02240581298199        4.35731692109546
H           13.69073498614837       -1.72811078078835        5.26635048779108
H           14.60128919118428       -2.60788656681315        4.04174410325255
C           11.02897237895162       -2.32944459795106        2.42975332806528
H           10.49799726574620       -2.33359070460222        1.48333278568743
H           10.30330509241216       -2.17609949733234        3.22897800893625
H           11.47998390210166       -3.30926336979412        2.57241562798543
C           17.68167763845549        1.14554175853106        4.90050914129511
H           17.47071345464264        0.08382285832318        4.79660929863268
H           17.33354997698760        1.45885818670177        5.88716314650860
H           18.75938755764175        1.28603770570873        4.85882680008014
C           18.52296084939443        3.94883863704308        3.56668382036533
H           18.89552917155777        4.58497360756688        2.77376607377877
C           19.09968706553637        4.00249256937326        4.76725112488461
H           18.72220688663015        3.42808904673396        5.59466692177742
H           19.93924841263462        4.64254142125258        4.97292936029816
C           17.00445437693080        6.58913526441348       -0.81635572981362
H           17.90861743988326        6.03223463944596       -0.57795030550517
H           16.92345142851248        7.41713237898292       -0.11177237041579
H           17.10364406853737        6.99970150516388       -1.81782742258669
C           14.48892711584874        6.36272145223759       -2.80193127551620
H           14.03441490913418        5.81224882559393       -3.61793790229348
C           14.75971063961031        7.65380029778789       -2.97341780604340
H           15.16475272215134        8.25891759272864       -2.18158697104124
H           14.56171634145357        8.15985873513374       -3.90305300434134
C            9.76745245118722        3.85494839047233       -2.52024606454963
H           10.18425453968449        3.78216500835532       -3.52451372381767
H            9.84945685050670        4.89332069951809       -2.19949949341052
H            8.71357242289806        3.59625380026836       -2.56527437909478
C            8.71282546584955        1.21346776436880       -0.97672195401917
H            8.16932454953003        1.53753167035021       -1.85978269562507
H            8.12240818210310        1.47254185877038       -0.09635922922107
H            8.80249365264638        0.12976798126370       -1.00954089482334
O           14.91894059267557        0.92079363089861       -0.28131317226393
H           14.65767579361988        0.00524825961764       -0.10661402333251
H           15.38100097247524        1.03647068705379       -1.12259635808177
C           10.39638639868028        6.13226458290334        3.55852145677982
H           10.82343174760107        7.05884528689441        3.93818989945562
H            9.71624341656318        5.73895745396458        4.31343264739250
H            9.82707207204564        6.35211884577975        2.66257553306318
N           12.31700489552272        4.66581353439149        4.20320998672839
H           12.34882196844999        4.96491270662982        5.16470502818875
C           11.45732069200309        5.13931120403119        3.24798447130880
C           13.12398597298448        3.75547197622150        3.61371128185228
H           13.89641709423744        3.22336298865440        4.12625012831829
N           12.82992303768542        3.61802689045714        2.34426107979122
C           11.79571635381977        4.47554385094604        2.10071668899404
H           11.37157183242397        4.56639394626339        1.12286790666441
78
 energy: -116.049865889936 gnorm: 0.044594171735 xtb: 6.7.1 (edcfbbe)
Fe          13.82196352203215        2.36390554787999        1.02192520534778
N           13.20184384409928        0.68791321077376        1.94643339931629
N           15.44989106330011        2.42055174500651        2.19182626955225
N           14.49697757852212        3.94393055170505        0.00413019617339
N           12.19697522368648        2.30119500178554       -0.14479052179847
C           12.08931730903144       -0.04068840048804        1.67008209473065
C           12.06098883596634       -1.24788374655991        2.46559024416589
C           13.17064455113958       -1.20486284327424        3.25510638446890
C           13.87091256372086        0.00907778335136        2.91303740534256
C           15.78083852653880        1.53161028640673        3.16521065698136
C           16.98845377945713        1.93476498109216        3.83860969144649
C           17.37758112893956        3.11604440033617        3.25875387790783
C           16.41188517274901        3.37592678399953        2.20447715234097
C           15.62941794584083        4.65024551910977        0.25653536903434
C           15.81605653865167        5.68751463126344       -0.72718627330042
C           14.75353819729242        5.59286855464470       -1.58617473901603
C           13.93107088354087        4.50866749180138       -1.08960046335253
C           11.85330392711785        3.20982974133194       -1.09502338409071
C           10.50182250644183        2.97290905585126       -1.55995385327598
C           10.05751955480145        1.86984905762749       -0.89862634725855
C           11.13818541280013        1.45798490042917       -0.02567807173964
C           11.10421377291347        0.33053900125954        0.77342299220171
H           10.23470391605468       -0.30383432492375        0.69633443899511
C           15.06043109663390        0.39755181903953        3.49721030714369
H           15.45048393721046       -0.23605107095414        4.27857739569537
C           16.49346924681092        4.42987320372786        1.31493471976776
H           17.31351868726303        5.12169599694488        1.43152473534673
C           12.67880559888895        4.20047095194518       -1.59133139086186
H           12.30607441419472        4.79490003587521       -2.41240204061669
C           13.61874719322479       -2.18836021377087        4.27863883873760
H           12.91236858998102       -3.01144195191219        4.34847067153396
H           13.69139633060794       -1.71494734089354        5.25826218336380
H           14.60043108376828       -2.59181477998276        4.02795001885446
C           11.01938409946342       -2.31577830374667        2.42478223220897
H           10.49475500659261       -2.32411457334552        1.47260538573166
H           10.28417753084179       -2.16710218197487        3.21784239103695
H           11.47311317639855       -3.29577015249694        2.56955108944319
C           17.67692672012609        1.14964855640754        4.89782477292326
H           17.47877403811222        0.08592904134999        4.78017299149476
H           17.33569013766049        1.44785119137414        5.89200257347539
H           18.75271524965707        1.31036000487191        4.84297579668686
C           18.51133797473427        3.94768492953551        3.57875684792059
H           18.88864197372163        4.55820023039072        2.76644444041864
C           19.10119345925782        4.02737277162095        4.77100084610893
H           18.74400222317453        3.47494731782654        5.62500671307497
H           19.95912272660591        4.65867942279122        4.94123003431030
C           16.99995830721756        6.58469334744226       -0.81149578787410
H           17.91148502917853        6.03643513410750       -0.57600156540968
H           16.91497983950312        7.41556718032511       -0.10920865673816
H           17.08916255442832        6.99423738191357       -1.81593008997243
C           14.48082870915881        6.35581226278721       -2.78072128262968
H           14.01428291204889        5.79852589760690       -3.58582392828735
C           14.75760130387226        7.64311442176908       -2.95924181509745
H           15.17339673989657        8.25498924347479       -2.17674488564299
H           14.55490883142529        8.14125189919014       -3.89242425592366
C            9.77751343053989        3.84322577366021       -2.52818102429617
H           10.20427550021431        3.75812772694575       -3.52761332121645
H            9.84818506336491        4.88530831484477       -2.21729636537711
H            8.72549020103821        3.57262707884528       -2.57864932593789
C            8.72250239604587        1.21171387815443       -0.97886881130587
H            8.17952860567448        1.54068928761345       -1.86195231576584
H            8.12677381871916        1.45789589908988       -0.09779627298269
H            8.82488901122533        0.12932856124219       -1.02424742196499
O           14.99918581993208        0.93715923718226       -0.25867073924567
H           14.65218981859711        0.01618100724187       -0.18977494561794
H           15.33504535618436        1.03787652309491       -1.18511214238945
C           10.40489184949278        6.12852723117309        3.54633560200077