78
 energy: -116.058074576207 gnorm: 0.000090982395 xtb: 6.7.1 (edcfbbe)
Fe          13.85482607900870        2.36300851025992        1.01942424900566
N           13.22525576155534        0.69484756813758        1.95582355751793
N           15.48799074609164        2.38873302480142        2.16381475076338
N           14.49099268512725        3.97786129991971        0.03976256389583
N           12.22896557634684        2.28660727107402       -0.16576784898495
C           12.06348872258574        0.01986392054845        1.74119770922612
C           11.94768582924540       -1.09904830964694        2.64851629217176
C           13.06648862073867       -1.08189655989308        3.42286005870043
C           13.85001605619248        0.04832707913838        2.97882582195499
C           15.82097874996524        1.50363826316181        3.14247097131654
C           17.06947000652358        1.86849707082208        3.76303402441983
C           17.48687890182805        3.01388802289497        3.13971508168467
C           16.48272193533895        3.31026911720329        2.13489869429053
C           15.61966950172803        4.69017386487063        0.29886431572448
C           15.73829047058648        5.81099687031255       -0.60023479280971
C           14.64314497763023        5.76301728498736       -1.42022510321891
C           13.88120681767683        4.60205349617749       -0.99906352169537
C           11.90555315778242        3.15569224084284       -1.16127950121249
C           10.63468678636728        2.80483290583918       -1.75352812242812
C           10.19245854140690        1.70529908630839       -1.08522522585867
C           11.19974690339621        1.39895385648309       -0.09487086267522
C           11.11412585083973        0.33899333291543        0.78788487915957
H           10.23513774479829       -0.28455957923041        0.73316868964179
C           15.06346256722875        0.41084903805213        3.52997841491599
H           15.44224758873029       -0.19811236656409        4.33672658627959
C           16.54354125493221        4.39612632082365        1.28473691194343
H           17.38325591480215        5.06561017785404        1.39175081538058
C           12.67312569922377        4.23313336707302       -1.56228060880646
H           12.28958254186493        4.84098996798133       -2.36748275393315
C           13.47083138564454       -2.00652313181349        4.51974323396052
H           12.72137828296316       -2.77966242734537        4.66997833790004
H           13.59420272332138       -1.46213192792940        5.45644609926199
H           14.41919667144031       -2.48988987107120        4.28358788714228
C           10.79764130674129       -2.04662750087734        2.67252903511766
H           10.69621620470604       -2.55220247045767        1.71179660182761
H            9.86734671280063       -1.51486008649261        2.87354034411816
H           10.93397949343603       -2.80146450279662        3.44305814078228
C           17.76540923597838        1.08121102183388        4.81835712666618
H           17.65471319578860        0.01300108818270        4.63791569239416
H           17.35587617654912        1.30136024995775        5.80600393798613
H           18.82585261262414        1.32451386948369        4.82536137694373
C           18.68652594877061        3.78970667236056        3.36288186634357
H           19.10991353570446        4.25989637270156        2.48311820185244
C           19.28426793477252        3.96666535284176        4.53680037593585
H           18.88418956551125        3.56365151245265        5.45088749711226
H           20.18723129016896        4.54746376579919        4.62725300239709
C           16.88587282819711        6.75822981511109       -0.64297379884551
H           17.82425622202949        6.23246939171092       -0.47383017049723
H           16.78579426261103        7.52649471676718        0.12562554306618
H           16.93101057061616        7.24664650016791       -1.61421856089178
C           14.27848094812765        6.63525791184069       -2.51464693537018
H           13.77004102873774        6.15788899133151       -3.34456468363456
C           14.50989303866362        7.94297950492347       -2.56870695506880
H           14.96824760891597        8.47739482084020       -1.75496073236752
H           14.22393874119001        8.53106197555186       -3.42508263895538
C            9.99666411681321        3.54912605389026       -2.87589136871543
H           10.64349343129451        3.54792362780769       -3.75364307295664
H            9.81358310497951        4.58614475131233       -2.59343651614890
H            9.04704523690683        3.09640007031608       -3.15036244904513
C            8.93863303997832        0.92337348821203       -1.27903162703756
H            8.34018155614615        1.34506951536335       -2.08279249109062
H            8.34045777765104        0.92703214496116       -0.36755240320265
H            9.16652907235257       -0.11326018217416       -1.52899391298573
O           14.85134686800979        0.96545433079455       -0.50275466618292
H           14.72801304832182        0.12335185532066       -0.05134036705056
H           14.20240714529052        1.00380639758809       -1.21380633172148
C           10.70050492556805        6.23385382599552        3.49593929206551
H           11.19100553244525        6.95606783536514        4.14839750095602
H            9.78069124042607        5.90640975482051        3.98050858709713
H           10.44620577758180        6.72518189692565        2.56208688412025
N           12.08394253409555        4.27502056303282        4.21763022182439
H           11.90033504695883        4.37840885097870        5.20209882653447
C           11.59313044682788        5.07928659209568        3.22266589842535
C           12.85569515909767        3.32903097411160        3.63663731210766
H           13.37042356939583        2.56002686148478        4.17485161677803
N           12.88281171294329        3.48518147786858        2.33528454432864
C           12.10206296029083        4.56988425710358        2.06256317692563
H           11.95953318106339        4.90904729860838        1.05754547342996
