78
 energy: -116.058077409537 gnorm: 0.000057110747 xtb: 6.7.1 (edcfbbe)
Fe         -11.68647313929235        2.50439876172083        1.43685749938391
N          -12.28454516124846        0.85814017029672        2.42961837745617
N          -10.03001170272606        2.57706301298873        2.58474509436203
N          -11.05579789413737        4.09880845881557        0.42009724127590
N          -13.29918659899596        2.38319757056223        0.27482480453571
C          -13.43830165592658        0.16462704557483        2.23827961639895
C          -13.53779928617097       -0.93102731337673        3.17518485260956
C          -12.41537494529341       -0.88252543723810        3.94287171304597
C          -11.64710363993188        0.24533734102424        3.46670187787034
C           -9.69445986564083        1.73198542965019        3.60121200908243
C           -8.46324065433213        2.14172736345964        4.22269441706165
C           -8.05914969226599        3.27587137774631        3.56670510367548
C           -9.05319482636461        3.52125709779124        2.54158189212290
C           -9.93265622271079        4.82923130727860        0.65828345246589
C           -9.82722277341330        5.92693184645582       -0.27063423441427
C          -10.92465454589797        5.84674618914263       -1.08491130589394
C          -11.67349110637399        4.68939594608174       -0.63196858816381
C          -13.62283369546243        3.20763219116697       -0.75402087825007
C          -14.88148320229143        2.81393908726785       -1.35140621259075
C          -15.31094555719050        1.73040801257664       -0.65303786324824
C          -14.30779212951153        1.47731861891306        0.35975535994618
C          -14.38833217404700        0.44510323112670        1.27408331854147
H          -15.25662039013648       -0.19429863263918        1.23080969275827
C          -10.43927375121082        0.63744663001804        4.01082129795807
H          -10.05828672439874        0.05837604676984        4.83815856450084
C           -9.00607926311543        4.57873319862293        1.65423565751565
H           -8.18024278338680        5.26724290130401        1.74623386662491
C          -12.87483643431298        4.28617302569994       -1.18472104959593
H          -13.26241747235875        4.85993986041493       -2.01277181274653
C          -11.99599914870129       -1.77441355758961        5.06123650399689
H          -12.73401053218283       -2.55447499257788        5.23067839864963
H          -11.88016135771375       -1.20615525700460        5.98473054977168
H          -11.04089360133950       -2.24997243509253        4.83619298905153
C          -14.67682335975429       -1.89036766281567        3.22847797283627
H          -14.77444418173299       -2.42220554502391        2.28175293377444
H          -15.61235202896644       -1.36349314231026        3.41725619115328
H          -14.53038978102340       -2.62268311227382        4.01872232716783
C           -7.76536738086823        1.40515557902374        5.31285305813510
H           -7.86649063698114        0.32912683736841        5.17845005466502
H           -8.18099987230379        1.66350010417541        6.28851027050095
H           -6.70689475259029        1.65756618705663        5.31429384387190
C           -6.87836643302158        4.08237631885674        3.78085757412635
H           -6.45743126675349        4.54067813800503        2.89347907181104
C           -6.29531884009561        4.30169227336312        4.95500068330216
H           -6.69460204387387        3.91321515441751        5.87559155716248
H           -5.40638298662628        4.90472219451274        5.03805880972011
C           -8.68938364778870        6.88450957300627       -0.34178041918345
H           -7.74446732022378        6.37435622354123       -0.16062252983554
H           -8.79601612292617        7.67280154094094        0.40540392603133
H           -8.65175873073074        7.34632382206773       -1.32623707077349
C          -11.30073065039457        6.68705495342757       -2.20030516428846
H          -11.80521066919700        6.18275550550996       -3.01633840277381
C          -11.08342195410644        7.99536333785959       -2.28755524196554
H          -10.62969993989763        8.55508467418821       -1.48823890621791
H          -11.37770704255101        8.55893117021552       -3.15745850234250
C          -15.51658399341669        3.50757368905214       -2.50729656510102
H          -14.86006753292305        3.47891139423678       -3.37707652947478
H          -15.71424898362543        4.55266022959827       -2.26730340091651
H          -16.45806253957824        3.03346843191143       -2.77365290523597
C          -16.54535135627411        0.91575991460199       -0.83628902244295
H          -17.14634681369369        1.30333239905780       -1.65518109461009
H          -17.15130273378257        0.92801507008404        0.07004524334712
H          -16.29068180729192       -0.12069358223171       -1.05882880620341
O          -10.50883692744407        1.08447943224307        0.07248641967283
H          -10.84320369180459        0.24144653094002        0.39762358693373
H           -9.62546528372904        1.19912788217205        0.43938846554957
C          -14.79812158577953        6.45119128248622        3.84795887473052
H          -14.28375561673269        7.20452191986386        4.44452842953523
H          -15.69620502717041        6.14608392817933        4.38487757206666
H          -15.09165203530099        6.89707411854098        2.90290803141144
N          -13.39695251869634        4.51835510411466        4.60449901729654
H          -13.55440773189925        4.65813211295934        5.58899548537458
C          -13.91370590559674        5.28597090566625        3.59381439398222
C          -12.64086500439479        3.55101273389738        4.03855781181127
H          -12.11239765624725        2.80216251040335        4.59128853967116
N          -12.64764246576758        3.65918086801450        2.73224444331101
C          -13.43549628813668        4.73382323852290        2.44013691927999
H          -13.60351493019764        5.03578166361427        1.42698084739782
