78
 energy: -115.953477254281 gnorm: 0.257704977915 xtb: 6.7.1 (edcfbbe)
Fe         -11.72500000000000        2.59300000000000        1.56500000000000
N          -12.20300000000000        0.75800000000000        2.40700000000000
N           -9.94500000000000        2.56000000000000        2.66200000000000
N          -11.04900000000000        4.20500000000000        0.44500000000000
N          -13.31900000000000        2.28900000000000        0.15100000000000
C          -13.35100000000000        0.03300000000000        2.14900000000000
C          -13.34600000000000       -1.12300000000000        3.02100000000000
C          -12.23400000000000       -1.07800000000000        3.78200000000000
C          -11.49000000000000        0.10900000000000        3.41700000000000
C           -9.59700000000000        1.67900000000000        3.66400000000000
C           -8.41500000000000        2.19600000000000        4.32700000000000
C           -8.06600000000000        3.35300000000000        3.72300000000000
C           -9.02900000000000        3.60500000000000        2.65600000000000
C           -9.89300000000000        4.89000000000000        0.69900000000000
C           -9.70800000000000        5.84600000000000       -0.39200000000000
C          -10.76600000000000        5.74200000000000       -1.24000000000000
C          -11.62600000000000        4.69400000000000       -0.71100000000000
C          -13.64700000000000        3.25400000000000       -0.79700000000000
C          -15.01000000000000        3.02100000000000       -1.25300000000000
C          -15.49400000000000        1.80400000000000       -0.46900000000000
C          -14.37500000000000        1.40800000000000        0.36900000000000
C          -14.35400000000000        0.34100000000000        1.23700000000000
H          -15.21100000000000       -0.33200000000000        1.20700000000000
C          -10.28000000000000        0.50500000000000        3.96600000000000
H           -9.82400000000000       -0.16200000000000        4.69800000000000
C           -9.04900000000000        4.67400000000000        1.78200000000000
H           -8.30600000000000        5.45000000000000        1.96500000000000
C          -12.81700000000000        4.26000000000000       -1.25000000000000
H          -13.14700000000000        4.77800000000000       -2.15000000000000
C          -11.78500000000000       -2.09300000000000        4.86400000000000
H          -12.53500000000000       -2.90900000000000        4.94000000000000
H          -11.70600000000000       -1.58300000000000        5.84800000000000
H          -10.80300000000000       -2.53100000000000        4.58400000000000
C          -14.46900000000000       -2.18100000000000        3.03100000000000
H          -14.79700000000000       -2.38300000000000        1.98900000000000
H          -15.33500000000000       -1.80300000000000        3.61500000000000
H          -14.09200000000000       -3.12500000000000        3.47900000000000
C           -7.71900000000000        1.47500000000000        5.50800000000000
H           -7.86500000000000        0.37800000000000        5.41100000000000
H           -8.16200000000000        1.81400000000000        6.46900000000000
H           -6.63000000000000        1.69600000000000        5.49300000000000
C           -6.87600000000000        4.29300000000000        4.05400000000000
H           -6.42600000000000        4.92100000000000        3.27000000000000
C           -6.37300000000000        4.36100000000000        5.29200000000000
H           -6.79700000000000        3.74800000000000        6.10100000000000
H           -5.52900000000000        5.03100000000000        5.51600000000000
C           -8.49200000000000        6.79400000000000       -0.47900000000000
H           -7.61200000000000        6.31400000000000        0.00000000000000
H           -8.71800000000000        7.74400000000000        0.05200000000000
H           -8.25300000000000        7.00200000000000       -1.54400000000000
C          -11.05500000000000        6.50600000000000       -2.55800000000000
H          -11.55300000000000        5.98100000000000       -3.38700000000000
C          -10.72800000000000        7.79600000000000       -2.75300000000000
H          -10.22900000000000        8.37100000000000       -1.96000000000000
H          -10.95600000000000        8.29100000000000       -3.70800000000000
C          -15.83600000000000        3.83200000000000       -2.26800000000000
H          -15.53800000000000        3.54800000000000       -3.30000000000000
H          -15.64700000000000        4.91700000000000       -2.12400000000000
H          -16.91700000000000        3.61400000000000       -2.13200000000000
C          -16.88300000000000        1.15800000000000       -0.59000000000000
H          -17.27100000000000        1.30400000000000       -1.62100000000000
H          -17.58299999999999        1.63500000000000        0.12900000000000
H          -16.81000000000000        0.06900000000000       -0.38300000000000
O          -10.46200000000000        0.80300000000000        0.22100000000000
H          -10.69100000000000       -0.03700000000000        0.61900000000000
H           -9.92000000000000        0.92500000000000       -0.47300000000000
C          -15.31700000000000        6.34400000000000        3.83700000000000
H          -14.90000000000000        7.35300000000000        4.04300000000000
H          -15.93600000000000        6.02600000000000        4.70300000000000
H          -15.94300000000000        6.39300000000000        2.92000000000000
N          -13.25000000000000        5.11000000000000        4.59800000000000
H          -13.22300000000000        5.53700000000000        5.50200000000000
C          -14.19900000000000        5.37500000000000        3.63400000000000
C          -12.39800000000000        4.21200000000000        4.13300000000000
H          -11.54600000000000        3.82400000000000        4.69000000000000
N          -12.76200000000000        3.88300000000000        2.90400000000000
C          -13.87800000000000        4.60300000000000        2.56400000000000
H          -14.34100000000000        4.50000000000000        1.59100000000000
78
 energy: -116.014950762305 gnorm: 0.109829697778 xtb: 6.7.1 (edcfbbe)
Fe         -11.67969402921815        2.54126881579776        1.51443391342493
N          -12.21819422364881        0.77918048634290        2.42957352295061
N           -9.95765133872029        2.58313385732212        2.67470816904510
N          -11.05092958541983        4.18671351902881        0.43937448340057
N          -13.32598630918084        2.32092576489088        0.18640223588640
C          -13.34620975299736        0.04330775120193        2.15764703842900
C          -13.35527681360474       -1.12887733811626        3.01848385460750
C          -12.23198242287478       -1.08575318317327        3.78307195112198
C          -11.50319210808520        0.11391366638014        3.40691063572000
C           -9.59819088853131        1.69861957475501        3.65628625666451
C           -8.40625901515367        2.19253607604395        4.32724553465023
C           -8.05573540985321        3.36927997110097        3.72378287599827
C           -9.03835381780523        3.60614955841304        2.66571526921509
C           -9.90609946470764        4.88601164134664        0.68622915369828
C           -9.71180214735268        5.86091117751556       -0.38631008834329
C          -10.76834878049245        5.74340910557059       -1.25038525187524
C          -11.61878280783525        4.68106260652551       -0.71076479174516
C          -13.66949651385544        3.23564400847478       -0.77975506941516
C          -15.02418029731533        2.98263409056871       -1.23020157902012
C          -15.47546291120496        1.83591317137067       -0.49970884505450
C          -14.37383884780030        1.44687962606735        0.35874783873730
C          -14.34419949732354        0.36047504209682        1.23517057774696
H          -15.19755610744126       -0.31328024536764        1.20632236561574
C          -10.28929024120334        0.52031801904811        3.95303254198478
H           -9.84177479292331       -0.14222279921340        4.69061070189747
C           -9.05495528490545        4.67352197608032        1.77654676395040
H           -8.29979337443124        5.43615605188708        1.94719410210278
C          -12.82585543192707        4.25102757027352       -1.24454781261472
H          -13.15758743767201        4.77695691623287       -2.13579802364035
C          -11.79089783382445       -2.07827015267074        4.84693655475834
H          -12.52051291966575       -2.89002163033615        4.93719992948027
H          -11.70531752251900       -1.58782421476613        5.82398625614141
H          -10.81977731911816       -2.51700689958885        4.58800096570530
C          -14.45602218825333       -2.17015867406811        3.02780151236167
H          -14.78993835764439       -2.38035036892753        2.00610993633654
H          -15.31652868151619       -1.80972652796008        3.60492927260731
H          -14.10071938394308       -3.10574699125897        3.47188029074196
C           -7.72777472792835        1.48008703775823        5.48604371641984
H           -7.86529688875831        0.39649652972582        5.40825705263699
H           -8.15420989810072        1.80708985631748        6.44427578497974
H           -6.65267112043643        1.69072874787063        5.48850155423226
C           -6.90168929862126        4.27041631940207        4.05924094265340
H           -6.46776266750948        4.88863428069991        3.27156465439442
C           -6.38322157722666        4.35470020192504        5.28279103555558
H           -6.78885538072942        3.77323116884891        6.09992246264090
H           -5.54845602309424        5.01529268545242        5.50545739584460
C           -8.50842485942400        6.78062402392794       -0.47820192578850
H           -7.63209495392444        6.31904954441561       -0.00909596343277
H           -8.71464251906915        7.72574538451198        0.04039928487411
H           -8.26521881007313        6.99795545093874       -1.52440528475037
C          -11.04061619077053        6.49749766014180       -2.52492694292959
H          -11.54122090848537        5.96689346574660       -3.33776178550617
C          -10.72371237325438        7.77546579334994       -2.73578719363692
H          -10.23908216214536        8.36766470405775       -1.96968882727446
H          -10.95000796519619        8.26970372334927       -3.67898404652543
C          -15.81633496113194        3.80162344275330       -2.23901018696992
H          -15.53692466020335        3.54543311034865       -3.27169519250159
H          -15.64454229257870        4.88028644156832       -2.11464772067713
H          -16.89055500813959        3.61425590919090       -2.12866672096073
C          -16.84395653911511        1.18064896775956       -0.59580800171486
H          -17.25835891317942        1.30420482334915       -1.60342772059921
H          -17.55551791346013        1.62837098281977        0.11409861929913
H          -16.79754957908854        0.10361881813167       -0.38526563375785
O          -10.48644330409249        0.82918325326214        0.24364299297721
H          -10.69125551499212       -0.02631296484177        0.61699691070187
H           -9.90757407171411        0.92776545536979       -0.49023871594872
C          -15.31086550612847        6.34349124902620        3.83871595796338
H          -14.91222617232693        7.34474202731602        4.04233154056236
H          -15.93261572408993        6.03705550176475        4.68869541938994
H          -15.93169647922109        6.39064499874711        2.93945212565518
N          -13.25773213406167        5.11308504934464        4.59449686336921
H          -13.22805322963592        5.54220122192713        5.50407561787162
C          -14.19848440547566        5.37500549023583        3.63157394621714
C          -12.40073848032194        4.20034508165254        4.11176507445772
H          -11.55842351430226        3.82043385772092        4.66692916522619
N          -12.74241510849570        3.85744490470117        2.88282751742492
C          -13.86095088574519        4.58826077727258        2.56815065886023
H          -14.32743341778319        4.49222400325051        1.60454252549419
78
 energy: -116.036297545069 gnorm: 0.044133457837 xtb: 6.7.1 (edcfbbe)
Fe         -11.65857469557229        2.50451771258854        1.48541152394376
N          -12.22043334927451        0.79393464042718        2.43105565407472
N           -9.97213606331188        2.59857852203260        2.67009281117652
N          -11.03823447548559        4.14416275093531        0.42271019246431
N          -13.32165784068199        2.34705822655856        0.22022883240427
C          -13.34226315299025        0.06308337017284        2.16537396780514
C          -13.36077298062096       -1.12359699448962        3.01132793053263
C          -12.23038208091555       -1.08232122316975        3.77708463743562
C          -11.51813537712197        0.12906796120935        3.39628167251615
C           -9.61079514773056        1.71813364225587        3.64381456173413
C           -8.41536435279599        2.18995180046102        4.32252055631621
C           -8.06471057331988        3.38171528884897        3.72353878594677
C           -9.05576608252039        3.60569354396038        2.66790980113052
C           -9.91344863534771        4.86852599742049        0.67445614877865
C           -9.71867898708544        5.86346380415773       -0.37291056258892
C          -10.77371832226027        5.73481115397512       -1.24773399275853
C          -11.60762393959720        4.65360392389252       -0.70998753422815
C          -13.67650843325255        3.22970602090254       -0.75238343427954
C          -15.02649999629238        2.94891973084286       -1.20723744340798
C          -15.45159609639361        1.86671401931839       -0.51910502697528
C          -14.36469828195397        1.48463546040147        0.36766704487780
C          -14.33655641816938        0.38938040926067        1.24293816659886
H          -15.18373738990942       -0.28660906930074        1.20535364238176
C          -10.30671746035511        0.54311238124198        3.94373920019412
H           -9.86608795163817       -0.11429169600600        4.68530769350982
C           -9.05967866456843        4.66825061481537        1.76732308849049
H           -8.29033728563719        5.41646049725135        1.92101570703502
C          -12.83184000592368        4.24400518707374       -1.23269599966316
H          -13.17253983098438        4.77857633675371       -2.11226374548657
C          -11.79456412498127       -2.05796395286862        4.82506740970091
H          -12.51353045242931       -2.86762596451671        4.92402301185849
H          -11.70521437577023       -1.57637938054300        5.79826950810123
H          -10.82749373292753       -2.49694735393667        4.58083186761290
C          -14.44264191059161       -2.15427915256764        3.02184823973249
H          -14.78160005533993       -2.37270249305287        2.01212510524349
H          -15.30144440021505       -1.80569540378633        3.59632751597664
H          -14.09743417988711       -3.08384533104673        3.46755806766822
C           -7.74142963495083        1.48452465656426        5.45712087188761
H           -7.87500729922618        0.40778791867454        5.39042692686886
H           -8.15550871005198        1.80580651242590        6.41576766638132
H           -6.67347134547913        1.69244237201598        5.46853348235405
C           -6.94398789963329        4.24534764704119        4.05791867237005
H           -6.52472980486262        4.85255491558518        3.26175484559564
C           -6.40196453147042        4.34848484682736        5.27035441311934
H           -6.78786477636264        3.79766597853290        6.10705040005656
H           -5.56736868562585        4.99901632652036        5.48012003453145
C           -8.53121642117504        6.76703547764395       -0.47277631086884
H           -7.65549833801866        6.31272660508930       -0.01436316820699
H           -8.71953319011872        7.71283544840971        0.03732033605940
H           -8.29308472568028        6.98757232183075       -1.51156656675648
C          -11.03493025830071        6.47732828762699       -2.47735520103457
H          -11.53579771124472        5.93712997850800       -3.27611368120696
C          -10.71907642746261        7.74896339985862       -2.70859553433889
H          -10.24415934237235        8.36442385667766       -1.96629798309686
H          -10.94096634660463        8.23566014260997       -3.64773283839432
C          -15.79459731683976        3.76857871387040       -2.20999014909958
H          -15.51664515951113        3.52368179349525       -3.23862336247496
H          -15.62205937734486        4.83918238285054       -2.08339618174688
H          -16.86548172959682        3.59801889293853       -2.11245025192834
C          -16.80078819260808        1.20289114732501       -0.60129613142956
H          -17.23016011186098        1.31494040374670       -1.59604395106284
H          -17.50966845445202        1.63919973500966        0.10882004944124
H          -16.75480197477424        0.13544936655154       -0.38436266689145
O          -10.51480830216284        0.87571275346333        0.25117821964919
H          -10.68141873295331       -0.00054343537115        0.60327844983802
H           -9.90696825217590        0.92938773579485       -0.48991492966662
C          -15.30503610105569        6.34067976732877        3.83602802360888
H          -14.91473584196672        7.33638477858320        4.04032280118514
H          -15.92631601475427        6.03984808020247        4.67841317085108
H          -15.92375328591323        6.38699307680444        2.94723470229662
N          -13.25964439009822        5.11177291437640        4.59066637719685
H          -13.22542137482539        5.53998014393995        5.50293282409390
C          -14.19652144516669        5.37281614822548        3.62675135012307
C          -12.40278363643037        4.19056096370506        4.09463635283097
H          -11.56662463894693        3.81274035592461        4.64635024721256
N          -12.73432923450695        3.84415668717877        2.87250518445281
C          -13.84963507326865        4.57772049843896        2.56966314567457
H          -14.32078880629341        4.48673542170048        1.61284575467161
78
 energy: -116.043874037442 gnorm: 0.024560871872 xtb: 6.7.1 (edcfbbe)
Fe         -11.65379245693121        2.49250525750750        1.47386821490732
N          -12.23180928535822        0.81654025828851        2.43846217389315
N           -9.99279270829004        2.60512316107306        2.66430260894044
N          -11.02548644539393        4.11093017431295        0.41767228964736
N          -13.31835203825042        2.36755694107340        0.25309914234623
C          -13.34687724207888        0.08230209200475        2.17462262320543
C          -13.36425981892914       -1.10841765478920        3.00835628806748
C          -12.23410101341365       -1.06714382943532        3.77090689434793
C          -11.53056531689059        0.14632987828472        3.39394903335368
C           -9.63371374613101        1.72754104640580        3.63821247984975
C           -8.44275107771167        2.18965975809667        4.31772975278303
C           -8.09318590185021        3.38270442048937        3.72434217474780
C           -9.07301842115832        3.60318819292342        2.66422422849754
C           -9.90891317282792        4.84485354167925        0.67195251057700
C           -9.72391194398170        5.85238757839668       -0.35476406355221
C          -10.77697689087317        5.72039003465312       -1.22718944013379
C          -11.59720807895315        4.62954170400469       -0.70333814500403
C          -13.66313113806992        3.23918615928870       -0.73038482010604
C          -15.00780828578462        2.95617983879182       -1.19659355577479
C          -15.43614059707236        1.86594537724828       -0.50513535395243
C          -14.35504568694806        1.50066331048219        0.39420015054808
C          -14.33788149994061        0.40759113940310        1.25804847855343
H          -15.18451088370391       -0.26471606519710        1.21328479544440
C          -10.32543190642695        0.55821633560384        3.94367490207577
H           -9.89300096785552       -0.08933294109494        4.69524372143011
C           -9.05545703299021        4.65614718543187        1.75840125718586
H           -8.27256382389712        5.39255420011620        1.89432136794400
C          -12.82678134519823        4.24254208564158       -1.22106780032824
H          -13.18301619579019        4.79111882767130       -2.08496990826773
C          -11.79105611804788       -2.03924233867050        4.81097076066630
H          -12.50859363203997       -2.84980623732734        4.91019643248428
H          -11.70094831237787       -1.55375621957657        5.78199372439661
H          -10.82229214595554       -2.47276104327462        4.56405936050069
C          -14.43894680946303       -2.14094896865044        3.01438324389582
H          -14.77565825082151       -2.36303722360098        2.00456953780493
H          -15.29920704039690       -1.79489258209179        3.58832011236578
H          -14.08868695779453       -3.06676379330366        3.46389795613186
C           -7.75837579194429        1.47985162170754        5.43489514579947
H           -7.89195595401090        0.40357363382669        5.36275131632270
H           -8.16333197149542        1.79940506667775        6.39775044090072
H           -6.69161167260807        1.69388988727480        5.43382329178745
C           -6.97770306701735        4.23735399980988        4.05133845358979
H           -6.57288757616283        4.83502384958612        3.24201890765370
C           -6.41828667490763        4.35110636942487        5.25576888124982
H           -6.80032991045350        3.82775151478825        6.11486439463385
H           -5.57495999814666        4.99535328804615        5.44148831231399
C           -8.54657086323770        6.75859681838739       -0.46286483712559
H           -7.66625763042061        6.30267423553794       -0.01551628860211
H           -8.72990351491451        7.70517709080877        0.04726349157851
H           -8.32726342621045        6.97760962852407       -1.50632696645186
C          -11.03852502641633        6.45567529580136       -2.44405601555619
H          -11.54814297345624        5.90611225609407       -3.22881387074829
C          -10.71588124942764        7.72383963969702       -2.68486090762708
H          -10.24793494793515        8.35255828293445       -1.94807373551166
H          -10.93535402672879        8.19902491593608       -3.62758548907573
C          -15.77096338003071        3.75971858892551       -2.20000813024721
H          -15.48214795780818        3.50330931564023       -3.22021831992183
H          -15.59295604557652        4.82490348780970       -2.06105519882790
H          -16.83915583137972        3.58156086824176       -2.09833898028027
C          -16.77362555029815        1.20333592191921       -0.59606829797319
H          -17.19589380108401        1.32070894538646       -1.59189587309697
H          -17.47203394703208        1.64675324929576        0.11676860507079
H          -16.71095503167738        0.14004739473898       -0.37792811411823
O          -10.54919529066084        0.91894749810145        0.22000018988698
H          -10.66119381234213        0.03648009173388        0.58793467666099
H           -9.89969898855211        0.95370637172939       -0.49164066156636
C          -15.29609620748331        6.33350265505119        3.83022027582077
H          -14.90710992214345        7.32966643976868        4.03561123476375
H          -15.91839531614391        6.03446637607886        4.67261668217747
H          -15.91676838244131        6.38086318366902        2.94287589670608
N          -13.25244979796227        5.10058319625869        4.58213758455549
H          -13.21501988694500        5.52768012108245        5.49458464005818
C          -14.18982323942762        5.36385663842172        3.61821876574044
C          -12.39892427820914        4.17690354883073        4.08139212945922
H          -11.56349298293687        3.79479249485741        4.62966589463822
N          -12.73193226242408        3.83455927020463        2.86211692529863
C          -13.84498962413055        4.56767603947735        2.56175380142688
H          -14.32002799821809        4.47852130605293        1.60756861916405
78
 energy: -116.048048350556 gnorm: 0.035289547271 xtb: 6.7.1 (edcfbbe)
Fe         -11.66288675694198        2.49485048095673        1.47827300511435
N          -12.23844442526686        0.83541643641027        2.43372186037372
N          -10.01572978518328        2.60305698814405        2.64817873038094
N          -11.01557901636139        4.07578980481899        0.42052176706205
N          -13.29909942362074        2.37976390226554        0.28639229340750
C          -13.35314081141037        0.10058813195348        2.18108727507116
C          -13.36977613088226       -1.09019852761547        3.00568874816666
C          -12.24028195012868       -1.04921808438800        3.76391461050938
C          -11.54369873946104        0.16343984476427        3.39052399924879
C           -9.66113946062655        1.73309528255187        3.63102583370144
C           -8.47828867276634        2.18965864542750        4.31281238796779
C           -8.12662205761473        3.37978598631762        3.72241538123383
C           -9.09236979015148        3.59634550126163        2.65713286370372
C           -9.90247815317771        4.81600328826287        0.67247563127576
C           -9.72944424386802        5.83428657752212       -0.33472486667456
C          -10.78290527669989        5.70177140605530       -1.20221526499869
C          -11.58956382975916        4.60550503139383       -0.68936322635572
C          -13.64257853260258        3.24625758702329       -0.70138407493663
C          -14.97940505993508        2.96011867208437       -1.17939171593611
C          -15.41113705681462        1.86969297418525       -0.48375167333178
C          -14.33760587868161        1.51591299854662        0.42244099322413
C          -14.34467555575973        0.42687748755726        1.27496216356050
H          -15.19691331194089       -0.23496931131681        1.22628836073149
C          -10.34830595762699        0.57191787959459        3.94944645616025
H           -9.92540219696032       -0.06300591261129        4.71457702859100
C           -9.04697484893861        4.63900786582575        1.74844232276616
H           -8.25398951120501        5.36429586082128        1.86920011656134
C          -12.82395725344818        4.24416502417109       -1.20180216875307
H          -13.19364968946998        4.80294361785456       -2.05157356231948
C          -11.78419964584376       -2.01856745823423        4.79933346959478
H          -12.49739116992867       -2.83331600538941        4.90060757536078
H          -11.69175203269472       -1.52903589958669        5.76895030358760
H          -10.81305624471782       -2.44356805230796        4.54420990733800
C          -14.44062408955025       -2.12594304472933        3.00568916595880
H          -14.76945787080586       -2.35114178319878        1.99313041901438
H          -15.30562024386241       -1.78158530757827        3.57491571251082
H          -14.08454960869887       -3.04850907369623        3.45946219085970
C           -7.78024940525408        1.47378787770515        5.41525334032214
H           -7.91102317924011        0.39715626171339        5.33200541168187
H           -8.17178667429543        1.78471044055306        6.38686365699826
H           -6.71429540413758        1.69635326141569        5.39514352890158
C           -7.00999431836781        4.23523762921357        4.04018337746193
H           -6.61367865476386        4.81925631951548        3.21708278044252
C           -6.44065462802521        4.36253874857887        5.23759557841422
H           -6.80748994904017        3.85122807366345        6.11105942386278
H           -5.58689293330150        5.00082060779322        5.39627413201168
C           -8.56112323253318        6.74902475397861       -0.45032387572312
H           -7.67095659117197        6.29540233511475       -0.01839498522287
H           -8.74233538606492        7.69386223537659        0.06431058647509
H           -8.36448073973624        6.97047958406000       -1.49919797114471
C          -11.05276460506149        6.43480779776110       -2.41465767499198
H          -11.56821524924812        5.87702107021589       -3.18867801008875
C          -10.71975484008614        7.69921737706283       -2.66128638718378
H          -10.24544931540740        8.33041283238831       -1.93060699827106
H          -10.93366796170198        8.16284248921187       -3.61001609538348
C          -15.73767607631966        3.75130674298785       -2.18915583866924
H          -15.44006057681088        3.48739336076467       -3.20410319436899
H          -15.56159541247031        4.81549492224647       -2.04957237898734
H          -16.80555675584704        3.56755418392053       -2.09063229063030
C          -16.74054558657498        1.20437386232015       -0.58424603440841
H          -17.15798558832915        1.32432044196960       -1.58178934620193
H          -17.43925471274202        1.64471404141577        0.12952211628298
H          -16.66695265905686        0.14215119565200       -0.37030819690114
O          -10.62981506535923        0.95852430338212        0.14145928110630
H          -10.60981417736017        0.07631988892474        0.57430478549547
H           -9.87083872034914        0.99182489282749       -0.47762754549282
C          -15.28647091632270        6.32586514635114        3.82485494637006