78
 energy: -115.973680723099 gnorm: 0.263187134282 xtb: 6.7.1 (edcfbbe)
Fe          27.74100000000000       90.77700000000000       52.49399999999999
N           28.73200000000000       92.44799999999999       51.89000000000000
N           28.83100000000000       90.77100000000000       54.15799999999999
N           26.72900000000000       89.12000000000000       53.09700000000000
N           26.53900000000000       90.88899999999998       50.81799999999999
C           28.49100000000000       93.14799999999998       50.71900000000000
C           29.26600000000000       94.36499999999998       50.75200000000000
C           29.94900000000000       94.38700000000000       51.90100000000000
C           29.63200000000000       93.18800000000000       52.63699999999999
C           29.80900000000000       91.68100000000000       54.53399999999999
C           30.43400000000000       91.20999999999999       55.74200000000000
C           29.83700000000000       90.06699999999999       56.09100000000000
C           28.83600000000000       89.76199999999999       55.09399999999999
C           26.96200000000000       88.43899999999999       54.26700000000000
C           25.92300000000000       87.44499999999998       54.42499999999999
C           25.09000000000000       87.55000000000000       53.37900000000000
C           25.59700000000000       88.58700000000000       52.52300000000000
C           25.57500000000000       89.93600000000001       50.49199999999999
C           25.16000000000000       90.13799999999999       49.12100000000000
C           25.95400000000000       91.31500000000000       48.60899999999999
C           26.78600000000000       91.71899999999999       49.72099999999999
C           27.66300000000000       92.77199999999999       49.68700000000000
H           27.70800000000000       93.35800000000000       48.76900000000000
C           30.14200000000000       92.83499999999998       53.86400000000000
H           30.85500000000000       93.51200000000000       54.33500000000000
C           28.01000000000000       88.66399999999999       55.12899999999999
H           28.20000000000000       87.91499999999999       55.89800000000000
C           25.06300000000000       88.97000000000000       51.32900000000000
H           24.15000000000000       88.46700000000000       51.00899999999999
C           30.91400000000000       95.49799999999999       52.37400000000000
H           30.70100000000000       96.43599999999999       51.81700000000000
H           31.96400000000000       95.19199999999999       52.17700000000000
H           30.77000000000000       95.68299999999999       53.46000000000000
C           29.27500000000000       95.43599999999999       49.64500000000000
H           28.48200000000000       96.18699999999998       49.84899999999999
H           29.07600000000000       94.95999999999998       48.66100000000000
H           30.26100000000000       95.94799999999999       49.62599999999999
C           31.55900000000000       91.95999999999999       56.48500000000000
H           31.55500000000000       93.02900000000000       56.18200000000000
H           32.54300000000000       91.51499999999999       56.22399999999999
H           31.39200000000000       91.89599999999999       57.58100000000000
C           30.13100000000000       89.13899999999998       57.28300000000000
H           29.35700000000000       88.44599999999998       57.64500000000000
C           31.30900000000000       89.14200000000000       57.90600000000000
H           32.11200000000000       89.81800000000000       57.57800000000000
H           31.49300000000000       88.46800000000000       58.75600000000000
C           25.83400000000000       86.50099999999999       55.63800000000000
H           26.26000000000000       87.00499999999998       56.53200000000000
H           26.41300000000000       85.57500000000000       55.43600000000000
H           24.77100000000000       86.24799999999999       55.84000000000000
C           23.83200000000000       86.73500000000000       53.02600000000000
H           23.04200000000000       87.19499999999998       52.41400000000000
C           23.64500000000000       85.47499999999999       53.43100000000000
H           24.40400000000000       84.96799999999999       54.04499999999999
H           22.73000000000000       84.93000000000001       53.15499999999999
C           24.13300000000000       89.33300000000000       48.31399999999999
H           23.11300000000000       89.53200000000000       48.70800000000000
H           24.35000000000000       88.24700000000000       48.40800000000000
H           24.17300000000000       89.63699999999999       47.24600000000000
C           25.88600000000000       91.93700000000000       47.20000000000000
H           24.86500000000000       91.80200000000001       46.78400000000000
H           26.61700000000000       91.43400000000000       46.53200000000000
H           26.11000000000000       93.02399999999999       47.25800000000000
O           26.39300000000000       92.03400000000001       53.47700000000000
H           26.59800000000000       92.92199999999998       53.18299999999999
H           25.75500000000000       91.80400000000000       54.05300000000000
C           30.28900000000000       86.98099999999999       49.20600000000000
H           30.62600000000000       86.04200000000000       49.69500000000000
H           31.10600000000000       87.36300000000000       48.55700000000000
H           29.38700000000000       86.76500000000000       48.59399999999999
N           30.88300000000000       88.45200000000000       51.16399999999999
H           31.83400000000000       88.14600000000000       51.21099999999999
C           29.95900000000000       87.99500000000000       50.24900000000000
C           30.31300000000000       89.34399999999999       51.95300000000000
H           30.81900000000000       89.86199999999999       52.76600000000000
N           29.05099999999999       89.48500000000000       51.58100000000000
C           28.80500000000000       88.65500000000000       50.51600000000000
H           27.82999999999999       88.61199999999999       50.04700000000000
78
 energy: -116.028347312904 gnorm: 0.106567122880 xtb: 6.7.1 (edcfbbe)
Fe          27.74779167207550       90.76665575790564       52.48705302819595
N           28.71691952605736       92.45477253079255       51.89328086461742
N           28.84123661627075       90.75796573174826       54.15769438538904
N           26.71173426952312       89.13910525827862       53.10729807434910
N           26.56205327510462       90.86982298266570       50.80931110433810
C           28.49193685412905       93.14680782024176       50.72706622552837
C           29.27043692826479       94.36916130411660       50.73648335324977
C           29.95646527586163       94.39775913216650       51.90333055654714
C           29.61888941861803       93.18973846578857       52.62474332283512
C           29.80443396909838       91.66443546242154       54.53953004123620
C           30.43978955523765       91.21502497426370       55.75799932689986
C           29.84744728108539       90.04159366150097       56.10702715935465
C           28.84252532831074       89.76321692138875       55.09667766784394
C           26.94931621845729       88.43488363624111       54.25316041089305
C           25.91954503721281       87.42949108728288       54.42821482858395
C           25.07232766432360       87.53664277529208       53.36768314106132
C           25.59101549000632       88.60284859565391       52.53009824353911
C           25.58537102602089       89.96527909104799       50.46519814256535
C           25.17320755548843       90.17756618404943       49.09846713778732
C           25.92834522164264       91.28143425245821       48.62022322291664
C           26.77310553713541       91.68444274197275       49.71912702102814
C           27.65588104349517       92.75537128103309       49.69437840879205
H           27.69448322728767       93.34732193182366       48.78482356513607
C           30.13104154412714       92.82509012771602       53.85707003758798
H           30.84859313643931       93.49685356021875       54.31826026652549
C           28.00477752196344       88.66457536350586       55.12146050060292
H           28.18225573656785       87.92907876019443       55.89828881247728
C           25.06700775309427       88.98839304595579       51.31414514701537
H           24.17096297260187       88.46956129971467       50.98724855383097
C           30.90261569891635       95.48529363412013       52.37272998732170
H           30.70396830361644       96.41534786138401       51.82986798763605
H           31.94337987742514       95.19365419473216       52.18629227094014
H           30.77431371404717       95.67726080871930       53.44265680888683
C           29.27364369229847       95.42384845518133       49.65250752770050
H           28.49395305517003       96.17166466606083       49.84487131125187
H           29.08351157247813       94.97076240713314       48.67549873197035
H           30.24131788695269       95.93492499326402       49.62306707500639
C           31.54428309165879       91.95957481278106       56.47729647173159
H           31.55439590734050       93.01457441023473       56.18867296494442
H           32.52220707958867       91.52874087611518       56.22706656495208
H           31.39452351923220       91.89725935118689       57.56015009587543
C           30.13812256827038       89.15614594845188       57.26912119388792
H           29.35934638481765       88.47568968283389       57.61241056317883
C           31.30587751719048       89.14559194600514       57.90299165206525
H           32.11450162303925       89.79104124109766       57.59088087463051
H           31.48917528447572       88.48058361005181       58.74132456674904
C           25.83449565365828       86.51189550114276       55.62768053194244
H           26.25284937977106       86.99845805033409       56.51527988842565
H           26.40102795846193       85.59140740788760       55.44091235769949
H           24.79094670189150       86.25292937069916       55.83456982145215
C           23.85274544781568       86.73988074108873       53.04124881985628
H           23.08192123437709       87.20938284637361       52.42956297608902
C           23.65347804880908       85.48531684359880       53.43499862802968
H           24.39114208723421       84.96206103867117       54.02919911315563
H           22.75183998979664       84.94349534123316       53.16222114799145
C           24.15633194902829       89.35908586523639       48.32864726473196
H           23.13866714728034       89.53423567889787       48.70549204940298
H           24.35538072303605       88.28147133994095       48.41100107440028
H           24.17579356663014       89.63170290531852       47.26868072355698
C           25.87861902252782       91.91257970869196       47.23809313433548
H           24.88161525396339       91.79976558643790       46.79770963024001
H           26.60141188152700       91.44025152847122       46.55789466366748
H           26.10506412887377       92.98658781994308       47.27240301052284
O           26.39967646704767       92.04546378103649       53.46827569638120
H           26.57910287159887       92.94377491195023       53.19469785300008
H           25.72180527074933       91.81643707676766       54.07743314177173
C           30.29294892665695       86.97788377318572       49.20766358161291
H           30.62540606017902       86.04623370471107       49.67998727095596
H           31.09464609257900       87.34764256085430       48.55796843441452
H           29.40632568853968       86.76935356221463       48.60308252291208
N           30.89099221836869       88.43904454146092       51.15262628262312
H           31.84607734927858       88.13176624340944       51.20373293222081
C           29.96525818306425       87.99043031454100       50.24443289392799
C           30.30479650025277       89.34628453390931       51.94290350697104
H           30.80239042439991       89.85787107759823       52.74952799813350
N           29.05039304684942       89.50492276450018       51.58084372855315
C           28.81545142648686       88.66462245782614       50.52784467437790
H           27.84736586724747       88.61890848527436       50.06263544718753
78
 energy: -116.043534366892 gnorm: 0.035726044722 xtb: 6.7.1 (edcfbbe)
Fe          27.74907861694062       90.75688682016708       52.47854388040508
N           28.70506803840670       92.45361888937767       51.89152591059744
N           28.84922608315367       90.74338613599819       54.15506765139039
N           26.69854512132629       89.15743339500307       53.11307717552387
N           26.58687622577153       90.84705536613549       50.79973822931495
C           28.49008366817788       93.13984107703688       50.73315644710417
C           29.26924600653392       94.36409000047118       50.72619757905426
C           29.95466536623810       94.39718327012443       51.90494887077705
C           29.60216264294201       93.18410632380642       52.61484695640588
C           29.79865544933458       91.64732960295301       54.53770278710977
C           30.44236180223407       91.21804603663290       55.76038653333879
C           29.85793905982858       90.02370735338360       56.11029029786152
C           28.84883194869942       89.76117829332648       55.09431195654676
C           26.93648511417900       88.44217933948478       54.24385102399498
C           25.92245788824889       87.42448851120812       54.42469928304071
C           25.06531250766892       87.53422948295415       53.35624006559741
C           25.58750781158777       88.62309113586002       52.53557563054474
C           25.60341443286267       89.97551424613096       50.45086410253449
C           25.18517403164183       90.20869337393114       49.08545509918667
C           25.90970222174541       91.25487686310751       48.63221114917226
C           26.77647654900205       91.65461180109952       49.72067182083180
C           27.65170977397367       92.73776251877294       49.70166624621091
H           27.67563417444328       93.33807825002818       48.80158966458499
C           30.11799355509552       92.81061865304179       53.84679516626014
H           30.84275936516135       93.47627460033615       54.29651863699645
C           27.99494343758547       88.67036204137520       55.11654523907674
H           28.15334818943914       87.94706759378191       55.90388253558118
C           25.07765079030486       88.99929881800063       51.30131208061604
H           24.20066095832453       88.46505262607128       50.95880677650423
C           30.88870014734320       95.46595863428306       52.37260361917536
H           30.69985876217888       96.39350672522930       51.83745372820950
H           31.92650393590067       95.18174260541807       52.19478013031585
H           30.76953374978496       95.66046537861298       53.43543982417906
C           29.27218254422262       95.40627504716267       49.65740350128223
H           28.49838075644988       96.15237381874331       49.84492636305727
H           29.08710626308114       94.96891978070396       48.68111252492156
H           30.23029651085031       95.91926246161475       49.62485114368870
C           31.52648242466428       91.95927530755529       56.46828577101363
H           31.54004913054701       93.00779758543710       56.18724125458898
H           32.50367167322592       91.53905532641134       56.22374465003033
H           31.38930544406841       91.89422043872509       57.54592629364207
C           30.14539225185104       89.17425201764783       57.24412270062449
H           29.35573403760190       88.50757198941157       57.57085861749020
C           31.30502208766815       89.14554235946412       57.89661811587648
H           32.13082860193857       89.76292783327563       57.60220285884080
H           31.47377357685857       88.49097513022879       58.73485693468329
C           25.83621341376252       86.52272869716509       55.61100679570224
H           26.24943407784635       87.00343131138709       56.49462638305751
H           26.39523278607917       85.60188783706619       55.43916072065088
H           24.80148873415206       86.26082505216442       55.81914786730299
C           23.88473403542182       86.75202220469639       53.04847298036221
H           23.12756499220894       87.23581850640021       52.44127836906733
C           23.66788916855804       85.49787131762945       53.43625142850099
H           24.38824014079886       84.95116913396365       54.01541681320511
H           22.76742375146732       84.96689827308809       53.17229004419966
C           24.17536141943459       89.38732056135555       48.34204500579415
H           23.16484509125700       89.55303633448341       48.72139482952966
H           24.38155302840917       88.31929781848365       48.43083867076339
H           24.18355792824171       89.64104964190987       47.28464983302867
C           25.87040954617274       91.89006119169552       47.27318343614346
H           24.88496882463975       91.78504243065623       46.82281215751250
H           26.59502873708422       91.42845897770214       46.59745031303640
H           26.10127426418981       92.95438924309212       47.31392586054299
O           26.39127285855399       92.05928410483244       53.46545586714689
H           26.53532631241757       92.97635604140771       53.22711509777994
H           25.69842485757805       91.84498949836110       54.08885299986603
C           30.29269257538792       86.97458912967279       49.20875611978507
H           30.62393633741354       86.04661202756910       49.67130886138553
H           31.08725382545171       87.33576056375890       48.55782139051119
H           29.41400684075549       86.77134741489029       48.60771225989759
N           30.89903336004378       88.43058709699940       51.14504316846038
H           31.85527059644865       88.12066787564954       51.20066909834637
C           29.96927959420667       87.98873733400519       50.24260094942258
C           30.30457805561535       89.35330095521986       51.93172231251534
H           30.79795524648367       89.86121452756844       52.73307907355426
N           29.05394095981629       89.52393582704097       51.58113076749994
C           28.82626026723201       88.67769277064163       50.53546574613456
H           27.86275564378391       88.62543143991768       50.07240795151065
78
 energy: -116.047291584757 gnorm: 0.019577494043 xtb: 6.7.1 (edcfbbe)
Fe          27.74420217301788       90.75932675671437       52.47726776622224
N           28.69744613872018       92.44764359490512       51.88761694666803
N           28.85149767083348       90.73542537483581       54.14885045472366
N           26.69541585099900       89.17261813267093       53.11643444698436
N           26.60822254212670       90.82881189529627       50.79536029627051
C           28.48918954397632       93.13210022366613       50.73165432169630
C           29.26688446000794       94.35372783619013       50.72232847652873
C           29.94825801753514       94.38665792253582       51.90317644808432
C           29.59337607063412       93.17478390173125       52.60929006228935
C           29.79851941998103       91.63872357849249       54.52713392853363
C           30.44610595853906       91.21703012459764       55.74621280749553
C           29.86809489843439       90.01927245733006       56.09753790476162
C           28.85252117524024       89.75832503801247       55.08933025787572
C           26.93415211980470       88.45475469892405       54.24427620903408
C           25.93277489399945       87.42988971840197       54.41986607549646
C           25.07697246524495       87.53837065359912       53.35053609371262
C           25.59307117343802       88.63194887454853       52.53639654016656
C           25.61729774107203       89.96560546714151       50.45469017739323
C           25.18430969679784       90.20578881752188       49.09422868065763
C           25.91794572428971       91.25431882784123       48.63727729050794
C           26.79333479012734       91.64337791954226       49.72350762601320
C           27.65422817428684       92.72985844058179       49.70159232857073
H           27.66076966994137       93.33757474497379       48.80756222169719
C           30.11440502645396       92.79996845431997       53.83553269773816
H           30.84766848315227       93.46005268195269       54.27611431101248
C           27.98788874005617       88.67846158486427       55.11995134416806
H           28.12475311537290       87.96516668759863       55.92032315950618
C           25.08968598056526       88.99379082634368       51.29656969298250
H           24.23014440211861       88.44389836754621       50.93514137943977
C           30.88056193132074       95.44856726908709       52.37893566815889
H           30.69629829292140       96.37817821768270       51.84557669237267
H           31.91842089545749       95.16014103710141       52.20634089969630
H           30.75718998313216       95.63794392359323       53.44257243814601
C           29.27046285456765       95.39210493012496       49.65321087955056
H           28.49394924711244       96.13610560027023       49.83963013080723
H           29.08938453338356       94.95575208024084       48.67518765773737
H           30.22808782037982       95.90643179217768       49.62380899910445
C           31.51643803130571       91.96634944022156       56.45946899015961
H           31.51778157907776       93.01714923240216       56.18471540240068
H           32.49872626553999       91.55751060384874       56.21526943821318
H           31.37805980255466       91.89055199171334       57.53667674804839
C           30.15090216887232       89.17887381424048       57.23233950259696
H           29.34915222302510       88.52203108086017       57.54822428262462
C           31.30334366741891       89.13713175131689       57.89942825686086
H           32.15370350553696       89.72629896802738       57.60682477718583
H           31.44919060965149       88.48531804223701       58.74358177415045
C           25.84022062979513       86.52911006008171       55.60179255443225
H           26.24858927129490       87.01206189263416       56.48658250428333
H           26.39814610838253       85.60649698596590       55.43488515571457
H           24.80308908435202       86.26838460370138       55.80091305440370
C           23.90087094579137       86.76194601966257       53.04771190910189
H           23.15170146822297       87.25709326597089       52.44081167136645
C           23.67356196276994       85.50859857318012       53.43456950004364
H           24.39585271135535       84.94129524451112       53.99438355231641
H           22.76613433966529       84.99014700618993       53.17455893671387
C           24.17309959588977       89.39405698054068       48.35720952667479
H           23.16950659835215       89.56576019525777       48.74697002037375
H           24.39242865963448       88.33108790422055       48.45213256659938
H           24.17990320570389       89.64866312298253       47.30038650237554
C           25.87200565267186       91.88755308915761       47.28724855255130
H           24.88589281844553       91.77560130583100       46.84221674263552
H           26.60025719321737       91.42246220626824       46.62041533667097
H           26.10042212644883       92.94923439623665       47.34309995162850
O           26.36146534352583       92.07959330844203       53.46391556677176
H           26.48976477845071       93.01109293483145       53.26375146490700
H           25.67393889047111       91.87206461746000       54.09847670107867
C           30.28948575550702       86.97282270236175       49.21069470392189
H           30.61952471003066       86.04304559949941       49.67123567415261
H           31.08352590388125       87.32723224849640       48.55455612195752
H           29.40890501629061       86.77178183818747       48.61132847269489
N           30.90656748940421       88.43345515175967       51.14106714611233
H           31.86132927824020       88.11832303924560       51.19867442758306
C           29.97225418940541       87.99195560461649       50.24302021690912
C           30.31523335105673       89.36538580496358       51.92292094196191
H           30.81142191536186       89.87593391435769       52.72007532037814
N           29.06332450422610       89.54009461331165       51.57777601583013
C           28.83399312045679       88.68886127978334       50.53631645452229
H           27.87079385367299       88.63309111246444       50.07475024928799
78
 energy: -116.049807837931 gnorm: 0.016286829625 xtb: 6.7.1 (edcfbbe)
Fe          27.74244161351966       90.76236448342688       52.47181802972359
N           28.68711796775094       92.43933333576602       51.88222385419876
N           28.84704403857045       90.73266224697434       54.14409799925924
N           26.69949662516108       89.18882762680543       53.11622265335371
N           26.62860769619706       90.81565435072868       50.80115203556952
C           28.48612109502540       93.12380771910544       50.72797489788412
C           29.26459084205495       94.34094103546775       50.71713397687480
C           29.94123992179431       94.37266949736600       51.89909788261136
C           29.58381925930495       93.16326184971027       52.60265976878882
C           29.79830805782833       91.63208267122587       54.51455554222964
C           30.45203694126790       91.21537095799579       55.72698748075540
C           29.87888592507394       90.01777134197975       56.08251232514499
C           28.85459017988893       89.75832056223517       55.08582232031412
C           26.93445556499199       88.47202584679580       54.24652465285001
C           25.94736135030228       87.43839762672550       54.41360350373036
C           25.09727255314022       87.54128528646000       53.34051605962986
C           25.60749270949037       88.63660625300621       52.53300641207925
C           25.63684973925789       89.95436560934652       50.46278676413196
C           25.19044058904760       90.20193442056512       49.10827341775859
C           25.92426514978698       91.25395848298909       48.64986944952393
C           26.80830796357566       91.63343015536857       49.73208432911756
C           27.65371886682957       92.72303534746941       49.69955485919812
H           27.64408798692400       93.33304535229932       48.80868799335892
C           30.11432075924307       92.78866857201822       53.82106168968100
H           30.85831452986252       93.44236689230540       54.25065738606497
C           27.97847012859251       88.69167759157527       55.12902235119408
H           28.09283524002681       87.98743105162998       55.94003782374095
C           25.11098514981061       88.97906418154761       51.28742585331351
H           24.26927951279622       88.41593063354969       50.90821213694967
C           30.87359068241567       95.42737150788989       52.38833531574597
H           30.69841139530124       96.36139315220235       51.85834756013442
H           31.91210973013294       95.13223104290591       52.22513736177586
H           30.73899913695402       95.60856308469359       53.45322246558737
C           29.26978452755083       95.37525199763878       49.64430691548414
H           28.48754130323319       96.11588337069455       49.82537429353768
H           29.09540301557800       94.93411341629145       48.66605775075169
H           30.22655240690256       95.89316885630272       49.61908763617855
C           31.50946362489168       91.97281255970134       56.44921193251567
H           31.48828736095929       93.02862362482678       56.18810047924709
H           32.50089221257723       91.58558493670907       56.20273936602479
H           31.36842652169384       91.87822489707604       57.52575155278601
C           30.15763818406547       89.17921575385644       57.21988930004935
H           29.34035994860939       88.54117577861022       57.53590658293707
C           31.30416995110797       89.11846352308713       57.89492819115112
H           32.17024943486799       89.69469192562472       57.62056587684090
H           31.41910422382205       88.47597913892959       58.75277833568855
C           25.84485831397285       86.53555899376242       55.59188253515671
H           26.24308732826268       87.01831095208762       56.48248841765514
H           26.40389163422555       85.61203344632702       55.43030839594432
H           24.80360366472544       86.27489805359392       55.77551108614031
C           23.91935627182226       86.76984186826412       53.03692678808036
H           23.17022978738913       87.28156932754406       52.44330302583695
C           23.68306635007407       85.51662955527748       53.41900161039172
H           24.39745354471827       84.93668876878604       53.97614249518369
H           22.75984135681907       85.01789424506717       53.17389018275529
C           24.17015264005600       89.39951066837281       48.37981647178720
H           23.17256767006699       89.57547501875676       48.78141973571432
H           24.39183138218742       88.33774578161746       48.47365542394458
H           24.16667384099829       89.65565112691449       47.32295372045809
C           25.87386556032406       91.88704804839251       47.30396853500272
H           24.88921054872173       91.76553435092885       46.85809927402372
H           26.60842361218277       91.42736535196821       46.64062713445144
H           26.09268247919233       92.94918262114001       47.36658780910196
O           26.30375583817232       92.10407212068189       53.44381995175979
H           26.43439040295934       93.05537683488444       53.32642276587158
H           25.64947881434876       91.91267970659796       54.12141067610754
C           30.28502609371493       86.97005583089641       49.21303517040356