78
 energy: -115.943664869304 gnorm: 0.352797393950 xtb: 6.7.1 (edcfbbe)
Fe          -5.81900000000000       56.95200000000000      111.66099999999999
N           -6.45300000000000       56.07900000000000      113.37200000000000
N           -6.81100000000000       58.70800000000000      112.20500000000000
N           -4.94400000000000       57.96299999999999      110.09599999999999
N           -4.69200000000000       55.28499999999999      111.15999999999998
C           -6.16200000000000       54.83100000000000      113.74600000000000
C           -6.72000000000000       54.56099999999999      114.97900000000000
C           -7.40200000000000       55.72399999999999      115.35799999999999
C           -7.13400000000000       56.64200000000000      114.37500000000000
C           -7.41200000000000       58.93200000000000      113.36799999999999
C           -7.94800000000000       60.21999999999999      113.43100000000000
C           -7.51600000000000       60.83800000000000      112.25100000000000
C           -6.72400000000000       59.89200000000000      111.59799999999998
C           -5.10500000000000       59.25700000000000      109.75099999999999
C           -4.34100000000000       59.61700000000000      108.63400000000000
C           -3.61200000000000       58.45500000000000      108.34799999999998
C           -4.06500000000000       57.47799999999999      109.23300000000000
C           -3.96100000000000       55.11500000000000      110.06399999999998
C           -3.61600000000000       53.79100000000000      109.88600000000000
C           -4.15200000000000       53.13100000000000      110.99100000000000
C           -4.76300000000000       54.10400000000000      111.76099999999998
C           -5.40200000000000       53.92900000000000      112.99200000000000
H           -5.29200000000000       52.93900000000000      113.43200000000000
C           -7.54000000000000       57.97899999999999      114.38300000000000
H           -8.01800000000000       58.32399999999999      115.29899999999999
C           -5.94800000000000       60.12799999999999      110.45800000000000
H           -6.00700000000000       61.14000000000000      110.05900000000000
C           -3.64000000000000       56.14200000000000      109.21499999999999
H           -2.95500000000000       55.88199999999999      108.40899999999999
C           -8.30000000000000       55.93600000000000      116.57299999999999
H           -7.79400000000000       56.61300000000000      117.29500000000000
H           -8.49600000000000       54.96200000000000      117.06900000000000
H           -9.25800000000000       56.40000000000000      116.25500000000000
C           -6.63000000000000       53.21900000000000      115.70000000000000
H           -5.57200000000000       52.88000000000000      115.72199999999999
H           -7.23900000000000       52.46200000000000      115.16200000000001
H           -6.99500000000000       53.32800000000000      116.74299999999998
C           -8.88100000000000       60.68400000000000      114.56200000000000
H           -8.35400000000000       60.59799999999999      115.53600000000000
H           -9.78900000000000       60.04400000000000      114.58600000000000
H           -9.16800000000000       61.74500000000000      114.40000000000001
C           -7.82200000000000       62.08499999999999      111.69799999999998
H           -7.22900000000000       62.41099999999999      110.83300000000000
C           -8.84100000000000       63.01300000000000      112.13299999999998
H           -9.48500000000000       62.77300000000000      112.99200000000000
H           -8.98400000000000       63.97000000000000      111.61000000000000
C           -4.24900000000000       61.01500000000000      107.98699999999999
H           -3.55000000000000       61.65000000000000      108.57299999999999
H           -5.25200000000000       61.49300000000000      107.98200000000000
H           -3.86700000000000       60.92299999999999      106.94799999999999
C           -2.60700000000000       58.18200000000000      107.40299999999999
H           -2.07100000000000       57.23000000000000      107.51700000000000
C           -2.17600000000000       58.97800000000000      106.29800000000000
H           -2.64700000000000       59.95099999999999      106.09300000000000
H           -1.36800000000000       58.62700000000000      105.63900000000000
C           -2.94100000000000       53.19100000000000      108.67300000000000
H           -1.88800000000000       53.54200000000000      108.62299999999999
H           -3.47100000000000       53.51199999999999      107.75099999999999
H           -2.94800000000000       52.08300000000000      108.74899999999998
C           -4.12500000000000       51.63499999999999      111.25599999999999
H           -3.21600000000000       51.19299999999999      110.79500000000000
H           -5.02400000000000       51.15800000000000      110.80900000000000
H           -4.10100000000000       51.44800000000000      112.35099999999998
O           -4.28100000000000       57.65700000000000      113.10699999999999
H           -4.52000000000000       57.27700000000000      113.95299999999999
H           -3.58300000000000       58.18299999999999      112.94499999999998
C           -8.98300000000000       54.79899999999999      107.56699999999999
H           -9.28400000000000       55.49300000000000      106.75400000000000
H           -9.85100000000000       54.15900000000000      107.83300000000000
H           -8.14200000000000       54.16800000000000      107.20900000000000
N           -9.23500000000000       56.48000000000000      109.50900000000000
H          -10.17500000000000       56.75599999999999      109.30900000000000
C           -8.54000000000000       55.60700000000000      108.79200000000000
C           -8.50300000000000       56.91099999999999      110.50099999999999
H           -8.84000000000000       57.63000000000000      111.24700000000000
N           -7.31900000000000       56.33499999999999      110.43700000000000
C           -7.31400000000000       55.53399999999999      109.40100000000000
H           -6.43400000000000       54.95300000000000      109.15299999999999
78
 energy: -116.018541353016 gnorm: 0.140631424917 xtb: 6.7.1 (edcfbbe)
Fe          -5.79232588140526       56.97205696920249      111.66369345107405
N           -6.44549790330022       56.08541314098406      113.34623983313655
N           -6.76879817614825       58.69830814133736      112.21414661449073
N           -4.95094420878986       57.96387523506376      110.10321808305891
N           -4.70649075563422       55.30753208128896      111.17414005460226
C           -6.15721882374884       54.82306718278892      113.73421915858303
C           -6.73622846896464       54.54958525418886      114.99680547139891
C           -7.40215446781720       55.70157284162877      115.37697108692578
C           -7.14908549804728       56.64639599891706      114.35893690634667
C           -7.42380593510584       58.91501081208946      113.37384149738520
C           -7.96336735971997       60.22702795442779      113.43271472951066
C           -7.53905140924629       60.85479275910393      112.26218437965211
C           -6.72911453793362       59.88773489496538      111.57762072215527
C           -5.12269708316882       59.26663290861858      109.75681572972458
C           -4.32863592471602       59.62470720007016      108.63134815922035
C           -3.60484890491061       58.47332763402093      108.32081722047833
C           -4.05273473716362       57.47200458158667      109.23545343569711
C           -3.97361997091002       55.12816131785001      110.05847608378279
C           -3.62237970861043       53.76740808112142      109.88682680794142
C           -4.14417862636581       53.11261325923093      110.98366584865128
C           -4.78296549038377       54.10441447841153      111.77248620716932
C           -5.40756543206283       53.91256348991013      112.99741277448501
H           -5.29638747052953       52.92974785130507      113.43556334515863
C           -7.56041709365910       57.97333149738801      114.38592506159131
H           -8.02696091169173       58.31750578810852      115.29996353533981
C           -5.96471705235741       60.13704590396681      110.44475654939149
H           -6.00303570047280       61.14582790178340      110.05692806670319
C           -3.63137624013331       56.14756749832578      109.20065170461473
H           -2.95565661462169       55.87611204490849      108.40163543816010
C           -8.28752559402418       55.92994044866954      116.57283432386150
H           -7.80184821214511       56.60406465824470      117.29036826756754
H           -8.49645378406630       54.97702076387851      117.06738132949499
H           -9.23663838405380       56.38676222741148      116.26165785948203
C           -6.63499618801750       53.22656725374558      115.70425537897106
H           -5.59143102775062       52.88643642015133      115.72511571421481
H           -7.23151475198433       52.47183218696606      115.17597929352169
H           -6.99305267995500       53.31974416714941      116.73318145113565
C           -8.86870777253975       60.68471804731535      114.55292346813950
H           -8.35909867052410       60.59770127910743      115.52053714289814
H           -9.77089932923842       60.05875307057785      114.58284560554698
H           -9.16196726243661       61.72644862715804      114.41530320712739
C           -7.84727582677626       62.12750870399054      111.71674445175427
H           -7.25714548327027       62.42630025293151      110.84957913776428
C           -8.81675010580600       63.00001634949643      112.12264238578116
H           -9.47097137026040       62.77869545020361      112.95730393359558
H           -8.97064098281349       63.94378645907808      111.61224527462383
C           -4.25141307503912       60.99930384608077      107.99987730945453
H           -3.56114915433579       61.63862671487222      108.56634509721812
H           -5.23630083171729       61.48071623512138      107.98491686573334
H           -3.88590217382506       60.92967951571683      106.97246686045908
C           -2.58856383684773       58.20612934023968      107.36246875739778
H           -2.06627959805445       57.25796763339115      107.49442231201419
C           -2.17792873703820       58.96644260197365      106.31439134354200
H           -2.63055139306565       59.92424615137985      106.09246508522065
H           -1.38449827360514       58.62722942198438      105.65858841821453
C           -2.94013656208967       53.18871423791644      108.68319891516721
H           -1.90011058368629       53.53552175761789      108.62156329313598
H           -3.45962935483967       53.50188731474312      107.76756144426723
H           -2.94467308272302       52.09629397081829      108.74126550660139
C           -4.11816429638707       51.63721444772661      111.25462898013912
H           -3.22657561545288       51.19055134951737      110.80291235684405
H           -5.00827867189025       51.16172783098811      110.82075639809594
H           -4.10222837442135       51.44502381219615      112.33308787661156
O           -4.28615301047297       57.64397135881541      113.10202012056412
H           -4.50692185845132       57.28450029179105      113.96030826953073
H           -3.54878887947894       58.20378018761308      112.95346893936903
C           -8.98714405608227       54.80842597485312      107.57102669708593
H           -9.28411705561752       55.48429248734958      106.76085059393357
H           -9.83971176014311       54.16764541399822      107.82630548302198
H           -8.16037718795478       54.18294363975910      107.22068896887856
N           -9.24889415486489       56.47139050230043      109.49679025549071
H          -10.19237691518921       56.75112031928420      109.29597390576600
C           -8.52992798401819       55.58667048196047      108.77546569116896
C           -8.50110649046319       56.91508074161214      110.50901110204985
H           -8.83529215638919       57.62582821857763      111.24324348790752
N           -7.30986806055812       56.35038658713800      110.46135852109583
C           -7.30748056957092       55.52922521365733      109.40290772662190
H           -6.43627843244563       54.95382133033749      109.15330723548820
78
 energy: -116.036591930683 gnorm: 0.042378203483 xtb: 6.7.1 (edcfbbe)
Fe          -5.76990269521952       56.98908301150045      111.66991583294332
N           -6.44535410548201       56.08365570203510      113.32208208795740
N           -6.72794802687543       58.69178641861249      112.22201361059413
N           -4.95000487487192       57.96479522368180      110.11584179566557
N           -4.72947711535959       55.32488257711280      111.18053679783725
C           -6.15844231698273       54.81465148524089      113.72028568828235
C           -6.75056229622001       54.54281432420703      115.00389796548384
C           -7.40139238875149       55.68210467730034      115.38130931927324
C           -7.16504169802635       56.64339965346802      114.33723135511362
C           -7.42834433728434       58.89732555009120      113.37215575340379
C           -7.97504635557553       60.22412197055053      113.42220522896800
C           -7.56019742635676       60.85322446351402      112.26490704828338
C           -6.73138909754665       59.88116728020556      111.56348806952293
C           -5.13575291358686       59.27011777128251      109.76577157821157
C           -4.31974915086725       59.62433890323481      108.63369729826158
C           -3.60296417108744       58.48850838166214      108.31015085952232
C           -4.04347894185928       57.46875493868841      109.24189153803073
C           -3.99326024584791       55.14182403982309      110.05500147796197
C           -3.63692844524678       53.75674846412720      109.89122420310740
C           -4.14389227766037       53.10698708397756      110.97844830225939
C           -4.80611071687098       54.10869119950640      111.77858540891539
C           -5.41845727627196       53.89354344788453      112.99941793501411
H           -5.30904657931055       52.91245101904840      113.43546072207999
C           -7.58387948798612       57.96074576440964      114.38142355305926
H           -8.05802836455878       58.29810707082312      115.29077686042407
C           -5.98011340841356       60.14597632069403      110.43270578522598
H           -6.01002302049517       61.15352140173236      110.04811381111500
C           -3.62732813570673       56.15098348659235      109.18848575116752
H           -2.95924958275358       55.86739525676580      108.39112195207557
C           -8.27157660853071       55.92254935311585      116.57015479700753
H           -7.79773537874251       56.59687955450363      117.28417954142887
H           -8.49173098233734       54.98526173550934      117.07270988256839
H           -9.21516988550150       56.37453564340588      116.26238883677232
C           -6.64255749971159       53.23415083552433      115.70821385292247
H           -5.60680921959700       52.89579753302691      115.73068483333758
H           -7.23003402685082       52.47591429890079      115.18923787957176
H           -6.99829312706034       53.31416600188833      116.73051385022636
C           -8.85372262686653       60.68278676881082      114.54015162470337
H           -8.34867688060228       60.58766090577387      115.50167394937858
H           -9.75608079389240       60.06939694771103      114.57805469511273
H           -9.14836484365374       61.71729646546628      114.42635194251542
C           -7.86797388264722       62.15023298979608      111.72448401373131
H           -7.26511276288072       62.43523409098590      110.86800160753191
C           -8.80454996651594       62.99366076969414      112.11217406874449
H           -9.47185966127885       62.79241813235592      112.92979693563808
H           -8.95792489769170       63.93380650693676      111.61179639855095
C           -4.25684950219067       60.98291357028064      108.01541340512443
H           -3.57136082798747       61.62568518138635      108.57096411470127
H           -5.23405389209102       61.46189094898966      108.00314950008472
H           -3.90520537129553       60.93015524254096      106.99157230869440
C           -2.57656918571736       58.22612184874890      107.33631289302203
H           -2.06464526980439       57.28041679941460      107.48167505037287
C           -2.17911692990708       58.96451976262344      106.31646376393191
H           -2.61321447786677       59.91600423386990      106.07659311404589
H           -1.38872916512663       58.63302337458755      105.66613436768299
C           -2.94215753413022       53.18994268990956      108.69746078599364
H           -1.91021110272887       53.53651143801770      108.63248398058035
H           -3.45261954590048       53.49606487407069      107.78326467482864
H           -2.93918884015380       52.10459101464181      108.73942898620541
C           -4.11312793350563       51.64304631135427      111.25676975124630
H           -3.23266372373031       51.18819006516807      110.81034502115058
H           -4.99727164486284       51.16269491108790      110.83349881801436
H           -4.10076968792837       51.44480103967474      112.32518680647846
O           -4.24681458975704       57.62115700957256      113.08426630444818
H           -4.46591621112299       57.31830255057690      113.96878172576017
H           -3.51599526084145       58.22767220677308      112.97593625742932
C           -8.98596063797767       54.81799112651530      107.57987052004100
H           -9.28525741331107       55.48649753753426      106.77437133447289
H           -9.83342182865713       54.17983365775949      107.82731508456229
H           -8.17360165306230       54.19179110683881      107.22469167893640
N           -9.25981865143484       56.46119229546538      109.48846510228286
H          -10.20601274331876       56.73969440625444      109.28494170078308
C           -8.51402589048719       55.57132390024844      108.77054450392602
C           -8.50284948850099       56.91833160922874      110.50954257422906
H           -8.83856975162910       57.62491330285974      111.23615896347681
N           -7.30622243814260       56.37302793699301      110.47771602949376
C           -7.30055098896499       55.53292299959963      109.40962331957820
H           -6.43368932042769       54.95931962623500      109.16034125891865
78
 energy: -116.041984640643 gnorm: 0.037524409081 xtb: 6.7.1 (edcfbbe)
Fe          -5.75137016209508       56.99652695040744      111.67934219930495
N           -6.44989425826367       56.07429882274641      113.30966427483085
N           -6.70639543691140       58.68843754012584      112.22380409466487
N           -4.94046366084530       57.96456321315283      110.12577550333457
N           -4.75129246636981       55.32600211956246      111.17856485707026
C           -6.17018272789495       54.80279682397070      113.70936573685242
C           -6.76460894513704       54.53289765750067      115.00047969426831
C           -7.40887661009834       55.66930256627578      115.37509123945993
C           -7.17985450820657       56.63287170372482      114.31979449233583
C           -7.43124492215209       58.88418553043250      113.36374575667895
C           -7.98286490572280       60.21407930108347      113.40844119471612
C           -7.56930053401024       60.84464729030268      112.25900162694973
C           -6.72955364068516       59.87522014787914      111.55705667738350
C           -5.13520367678405       59.26784433983866      109.77316991868281
C           -4.31603221041492       59.62053789606361      108.63791994803181
C           -3.60061269490545       58.49336270962939      108.30870857032686
C           -4.03712937879528       57.46672314546126      109.24525477395036
C           -4.01303069664741       55.14460034814702      110.05178236055686
C           -3.65270036471034       53.75286391949564      109.89208758167241
C           -4.15365323488971       53.10328190614339      110.97614836904610
C           -4.82795436431242       54.10644168959548      111.77615800413957
C           -5.43732872203920       53.87520230624675      112.99393837326318
H           -5.33394815802544       52.89125166417334      113.42565940894926
C           -7.60881096696731       57.94437748375578      114.36710448538396
H           -8.11258415102545       58.26930295368850      115.26553009462744
C           -5.98594268445050       60.14728075978382      110.42487978575635
H           -6.02487968903301       61.15146876242338      110.03230644198672
C           -3.63155607307525       56.14726320928862      109.18218786828285
H           -2.97136243006920       55.85359949823314      108.38153348873692
C           -8.26129735672971       55.91798603057669      116.57177327342160
H           -7.78033594543761       56.59514013869867      117.27705681776932
H           -8.48118709426341       54.98661065967180      117.08509574393918
H           -9.20514577031665       56.36806487388119      116.26798226415055
C           -6.65225949253164       53.23166083251729      115.71365845864169
H           -5.61581382648992       52.90005434113980      115.74131310656232
H           -7.23502953858143       52.46666524954478      115.20088283513876
H           -7.01115593983781       53.31266709853377      116.73467702727108
C           -8.84157013356860       60.67699051805376      114.53534152466739
H           -8.32479084331491       60.56330920463536      115.48807303215943
H           -9.75238037648620       60.07790626392810      114.57751787211444
H           -9.12221640235229       61.71716024736588      114.43945605386931
C           -7.86736804450163       62.15409442100377      111.72399802060656
H           -7.25142114786114       62.44002433793955      110.87970886443648
C           -8.81475845966522       63.00561117309514      112.10097970452856
H           -9.50703816045465       62.80979713784330      112.89893624045257
H           -8.94870225393018       63.95012050955211      111.60392753573672
C           -4.26819833534325       60.97893576515782      108.03043901394800
H           -3.58104599951157       61.62074409434061      108.58353398089855
H           -5.24877228637309       61.44854616506403      108.03492102410276
H           -3.93079336493391       60.93676366972600      107.00205528808202
C           -2.57101766400372       58.23762142235815      107.32699334041989
H           -2.05522638314825       57.29725205442379      107.47488164509443
C           -2.16952536599322       58.97962321566773      106.30223723220000
H           -2.59899656714121       59.92814605578351      106.04540200389593
H           -1.37842908242586       58.64327491683935      105.65566612220954
C           -2.94186624696886       53.19136326354699      108.70747082381563
H           -1.91303213318606       53.54559777707402      108.65328226018266
H           -3.44609680104620       53.49307946849425      107.78984235866940
H           -2.93011381573286       52.10621489337197      108.74544584390588
C           -4.11118566326958       51.64255011568801      111.26386629715053
H           -3.23139170520808       51.18679895525502      110.81774445016040
H           -4.99383484348985       51.15443464120056      110.84804286605386
H           -4.09483534397195       51.44809063555896      112.33183364888632
O           -4.13658434697170       57.55118873208839      113.05632410203549
H           -4.42070364750666       57.39293136647801      113.98504638514842
H           -3.48731713692259       58.28395699530247      112.99567683964197
C           -8.98246346681426       54.82435092788167      107.58879953678348
H           -9.28585985554854       55.49948106180872      106.79078535302715
H           -9.83242287275716       54.19055260319752      107.83660670190685
H           -8.17926071048295       54.19462524430326      107.22145041972450
N           -9.26432941420807       56.45510596913142      109.49019916424342
H          -10.21306390569168       56.72459843449211      109.28268275795281
C           -8.50117862576466       55.56750772382140      108.77832521727670
C           -8.50703613749632       56.92609964280479      110.51003208319283
H           -8.84950515186404       57.63378370393478      111.23249884945272
N           -7.30569090545901       56.39622548307045      110.48757967015418
C           -7.29212879984759       55.54544061470106      109.42010633071230
H           -6.42299036005706       54.97401909032008      109.17335319236165
78
 energy: -116.044801627118 gnorm: 0.022751617205 xtb: 6.7.1 (edcfbbe)
Fe          -5.73524909337164       56.99872050097402      111.68709881248424
N           -6.44679825472800       56.06733125630413      113.30604527993427
N           -6.68066196162333       58.68933004245891      112.23026884403262
N           -4.92483448662091       57.96382711368400      110.13579445208158
N           -4.77211062248297       55.32331719226639      111.17351681243424
C           -6.18169731321882       54.79246438535800      113.70116649145169
C           -6.77886446018862       54.52258025834643      114.99385005755309
C           -7.41968893034331       55.65938287444519      115.36602247029901
C           -7.18964740025293       56.62276509365792      114.30688887499336
C           -7.43085675293877       58.87418647087219      113.35611198513455
C           -7.99189379604184       60.20141773658018      113.39342882339405
C           -7.57799661391955       60.83389688381435      112.24891885328049
C           -6.72256242134528       59.87128521735981      111.55553123787804
C           -5.12787153791337       59.26390451690735      109.78141849170515
C           -4.31392016958363       59.61672558438384      108.64202408448773
C           -3.59688816693632       58.49603369086156      108.30891659977381
C           -4.02867083824491       57.46545303864156      109.24757393348921
C           -4.03124062579859       55.14514747010858      110.04877742537948
C           -3.66748924805646       53.75163535493588      109.89190140810300
C           -4.16623509425133       53.10112745318919      110.97465443850184
C           -4.84868210435123       54.10387443879681      111.77092565219297
C           -5.45942025676328       53.85844003421470      112.98486275418679
H           -5.36834645312123       52.86892549423724      113.40815119967257
C           -7.63483860584489       57.92785138855398      114.35032016657912
H           -8.18435744648900       58.23588967023493      115.23052066621651
C           -5.98698329521284       60.14565058480765      110.41916693118610
H           -6.04660459590574       61.14251576591926      110.00982203832231
C           -3.63690706113225       56.14184583224235      109.17703449122729
H           -2.98524905945351       55.83973426813172      108.37156416510456
C           -8.25415103564062       55.91608374102650      116.57414802209250
H           -7.75774436917577       56.59642186481189      117.26715729947141
H           -8.46704993837178       54.98808730987371      117.09944615438556
H           -9.20187378925036       56.36520142429907      116.28042631661872
C           -6.66342144916561       53.22619056938687      115.71804184792373
H           -5.62402680606428       52.90293242383974      115.75544345912239
H           -7.24034796295152       52.45202784154213      115.21059974029509
H           -7.02932174603269       53.31422058981691      116.73785044356150
C           -8.83252513206422       60.67202341807796      114.53064035813338
H           -8.30139542665716       60.53450120912905      115.47421512660094
H           -9.75719427353771       60.09307143658492      114.57740397457282
H           -9.08674791480652       61.72234635832645      114.44545603448638
C           -7.86833469849843       62.14983457108561      111.72002387982950
H           -7.23158864336416       62.45189463601920      110.89815307761845
C           -8.82696709351835       63.00673050403286      112.08555777316261
H           -9.54398844571902       62.81002584071094      112.86334308671127
H           -8.93194058952657       63.95950255378722      111.59272356823278
C           -4.28212550302045       60.97913137760995      108.04254342919062
H           -3.59203442806599       61.62024181853770      108.59401413065524
H           -5.26856970058115       61.43827284575480      108.06845791076577
H           -3.95886061434638       60.94484649723695      107.00797278474649
C           -2.56760448427705       58.24949520118092      107.32146833765100
H           -2.04320144651722       57.31477220596523      107.46659399071079
C           -2.16638428541880       58.99628701567176      106.29019642752037
H           -2.59327382653764       59.94464285484887      106.02374604528441
H           -1.36817528772238       58.65637191479926      105.65137098702159
C           -2.93767139740316       53.19417229300421      108.71718076893968
H           -1.91100198292579       53.55927617610716      108.68021883695141
H           -3.43355669379487       53.49027770514585      107.79253096139459
H           -2.91541657346488       52.10794727350542      108.75684812659287
C           -4.10934633858400       51.64198778579593      111.27461306082610
H           -3.22733548041538       51.18914097391011      110.82680059438088
H           -4.99117943941104       51.14166097764862      110.86870698580522
H           -4.08302424586023       51.45695777720368      112.34511312194067
O           -4.08055039038467       57.57265775288298      113.05191873981536
H           -4.32573050293597       57.39947177656701      113.96301020033467
H           -3.44413660438505       58.30108087140793      113.00274800900263
C           -8.97836109413934       54.82937630389262      107.59913914120362