87
 energy: -128.381805700852 gnorm: 0.271767192920 xtb: 6.7.1 (edcfbbe)
Fe          17.82400000000000       56.03000000000000       35.56500000000000
N           17.45200000000000       57.94100000000000       35.37400000000000
N           15.88300000000000       55.68200000000000       34.90900000000000
N           18.20400000000000       54.05300000000000       35.79500000000000
N           19.67700000000000       56.32800000000000       36.17200000000000
C           18.34200000000000       58.97300000000000       35.70700000000000
C           17.75200000000000       60.22200000000000       35.40700000000000
C           16.51000000000000       59.96400000000000       34.88399999999999
C           16.32400000000000       58.57800000000000       34.89500000000000
C           15.02500000000000       56.57099999999999       34.50699999999999
C           13.83800000000000       55.88300000000000       34.13000000000000
C           14.04200000000000       54.59200000000000       34.36799999999999
C           15.41800000000000       54.46500000000000       34.90900000000000
C           17.24600000000000       53.07299999999999       35.66300000000000
C           17.70900000000000       51.85499999999999       36.11400000000000
C           19.04300000000000       52.11600000000000       36.44000000000000
C           19.35000000000000       53.43500000000000       36.15299999999999
C           20.60800000000000       55.44800000000000       36.43800000000000
C           21.85600000000000       56.13700000000000       36.88900000000000
C           21.60700000000000       57.44200000000000       36.82400000000000
C           20.20400000000000       57.55100000000000       36.42500000000000
C           19.58900000000000       58.79399999999999       36.22000000000000
H           20.15400000000000       59.68599999999999       36.49300000000000
C           15.17100000000000       57.94799999999999       34.45800000000000
H           14.35500000000000       58.55300000000000       34.06400000000000
C           16.00300000000000       53.31500000000000       35.24100000000000
H           15.36800000000000       52.43500000000000       35.15500000000000
C           20.53600000000000       54.06399999999999       36.42300000000000
H           21.42800000000000       53.47300000000000       36.62700000000000
C           15.48100000000000       60.93000000000000       34.41900000000000
H           15.85800000000000       61.96600000000000       34.55200000000000
H           14.55200000000000       60.80500000000000       35.01600000000000
H           15.26600000000000       60.76000000000000       33.34200000000000
C           18.31100000000000       61.60700000000000       35.52600000000000
H           19.35000000000000       61.55500000000000       35.91600000000000
H           17.69100000000000       62.20300000000000       36.23000000000000
H           18.32500000000000       62.09300000000000       34.52700000000000
C           12.55300000000000       56.44299999999999       33.59600000000000
H           12.69100000000000       57.51700000000000       33.34900000000000
H           11.75500000000000       56.34899999999999       34.36300000000000
H           12.26000000000000       55.89599999999999       32.67400000000000
C           13.04500000000000       53.64300000000000       34.03600000000000
H           11.97300000000000       53.84800000000000       34.16800000000000
C           13.43300000000000       52.51900000000000       33.56900000000000
H           14.50500000000000       52.31000000000000       33.43500000000000
H           12.70000000000000       51.74600000000000       33.29500000000000
C           16.96100000000000       50.50699999999999       36.22400000000000
H           17.36000000000000       49.79899999999999       35.46700000000000
H           15.87700000000000       50.66299999999999       36.03600000000000
H           17.11300000000000       50.07500000000000       37.23599999999999
C           20.03600000000000       51.20800000000000       36.93300000000000
H           21.02300000000000       51.62400000000000       37.18000000000000
C           19.90500000000000       49.91600000000000       37.12800000000000
H           18.95200000000000       49.41200000000000       36.90800000000000
H           20.74600000000000       49.32100000000000       37.51400000000000
C           23.15900000000000       55.45300000000000       37.31199999999999
H           23.55200000000000       54.84800000000000       36.46699999999999
H           22.96700000000000       54.78199999999999       38.17599999999999
H           23.91400000000000       56.22000000000000       37.58700000000000
C           22.53400000000000       58.56000000000000       37.20499999999999
H           23.56600000000000       58.31600000000000       36.87299999999999
H           22.53100000000000       58.69000000000000       38.30800000000000
H           22.21000000000000       59.50099999999999       36.71100000000000
C           20.03800000000000       57.70300000000000       30.75800000000000
H           19.32600000000000       58.19200000000000       30.05900000000000
H           20.68600000000000       57.00699999999999       30.18400000000000
H           20.65900000000000       58.48500000000000       31.24500000000000
N           18.40300000000000       55.90500000000000       31.49500000000000
H           18.19300000000000       55.59699999999999       30.56700000000000
C           19.27400000000000       56.94100000000000       31.79900000000000
C           17.90200000000000       55.39800000000000       32.61600000000000
H           17.19000000000000       54.57500000000000       32.66200000000000
N           18.42100000000000       56.06799999999999       33.63400000000000
C           19.31700000000000       57.00599999999999       33.15600000000000
H           19.89700000000000       57.62700000000000       33.82600000000000
C           14.77300000000000       56.33199999999999       40.27800000000000
H           14.98900000000000       57.24499999999999       40.87200000000000
H           14.70400000000000       55.46200000000000       40.96600000000000
H           13.80900000000000       56.47000000000000       39.74299999999999
N           17.15500000000000       55.92100000000000       39.68400000000000
H           17.47000000000000       55.82400000000000       40.62800000000000
C           15.84800000000000       56.11299999999999       39.31100000000000
C           17.90900000000000       55.88800000000000       38.60200000000000
H           18.98500000000000       55.72199999999999       38.60200000000000
N           17.13200000000000       56.08900000000000       37.54999999999999
C           15.84700000000000       56.25599999999999       37.96900000000000
H           15.04600000000000       56.46200000000000       37.27000000000000
87
 energy: -128.437889609741 gnorm: 0.116574671817 xtb: 6.7.1 (edcfbbe)
Fe          17.83025390259214       56.03456952282902       35.56319227156605
N           17.45519524114961       57.95172034013615       35.38300717268245
N           15.92038561563062       55.69589065019443       34.89905055814038
N           18.19447169359184       54.06231354398021       35.77644765472676
N           19.68333796869005       56.34927983315675       36.17827427635632
C           18.32968642195413       58.97259206952651       35.70694630701791
C           17.74330925567002       60.23789178176436       35.40142917739497
C           16.50741128074466       59.98096743131848       34.88753613501379
C           16.33737658350576       58.57558534071607       34.89249039005298
C           15.02580399807785       56.59008310633609       34.49385785305163
C           13.81695036633113       55.90821656832490       34.13218431157066
C           14.02075106764617       54.59826615494497       34.38010872164983
C           15.38816099584628       54.47519222121610       34.90525058752895
C           17.24506464615598       53.07598104440967       35.68334200353552
C           17.73394986115676       51.82897872274968       36.11879694585769
C           19.06004286862039       52.07552307103852       36.43361714603254
C           19.33262220735805       53.44287717770252       36.17476119136386
C           20.63626492864273       55.45187830111684       36.44491182782056
C           21.86923349606713       56.12534322895206       36.88482870440311
C           21.60587971044875       57.44742543880049       36.84025361213025
C           20.21829889401060       57.57242022599732       36.41623486419565
C           19.59234009132524       58.79433821944821       36.22141637867426
H           20.15370672915953       59.68178193946131       36.48725875795005
C           15.18567709159623       57.95505353464799       34.45141137466739
H           14.36955642745870       58.55696114319144       34.07370214413385
C           15.96943219150075       53.29908788438025       35.25094564711183
H           15.34480474485469       52.42156915077712       35.17493627144243
C           20.53594887273397       54.07620295687764       36.42424228626128
H           21.41827992186929       53.48619698255442       36.63125738098701
C           15.47937231392754       60.94346920110905       34.41823298350634
H           15.84157211374833       61.96676141553047       34.54516636505832
H           14.55774143889343       60.81711491500845       34.99898555709888
H           15.25861493745711       60.77237636783063       33.35739330828693
C           18.32103859543328       61.60714627533024       35.53185349497997
H           19.34440969518907       61.56783394773089       35.91466942034162
H           17.70918269308998       62.20423420113796       36.21878464402194
H           18.33071953445567       62.09583767790294       34.55016991551776
C           12.54696703643305       56.46390029457785       33.59069394043589
H           12.67205401409429       57.51939759409129       33.34249820195984
H           11.75529121583785       56.36043215601023       34.34235848084180
H           12.25460353169128       55.91447451046849       32.68810711954294
C           13.03551352257725       53.61476571694200       34.05829336613160
H           11.97946300276376       53.84862169447565       34.17231432488403
C           13.42399920953868       52.46318232751234       33.55285088334814
H           14.47794007025271       52.27142426441760       33.39687878724321
H           12.70640530065348       51.70669459595809       33.27367936823869
C           16.97031480328869       50.52546731267760       36.21987864131452
H           17.35047764330259       49.81328344486383       35.47657540722887
H           15.89919535654861       50.66820808527198       36.04066343625141
H           17.09870244089089       50.09160967340708       37.21779114877639
C           20.05481580911650       51.18366548034989       36.93835393135242
H           21.02133877008162       51.62096915966332       37.18110490876781
C           19.91756422190719       49.88223187912309       37.13697500542300
H           18.98802556410244       49.38145795875673       36.91632541010888
H           20.74067459742923       49.29662696013641       37.51789060538917
C           23.14865034037644       55.45011632830170       37.30273667548268
H           23.54987346410437       54.85034630150165       36.47831096844992
H           22.97178697665258       54.79127549463148       38.16056617563276
H           23.89523989603542       56.20033247825668       37.58406328189090
C           22.53009436145670       58.56227904245620       37.20479579310160
H           23.55023663526850       58.32619550813784       36.88080139882070
H           22.53482662355425       58.70044569143824       38.29260298423695
H           22.22258920664534       59.49577080014110       36.72484864014730
C           20.03356366853525       57.69754738069747       30.75611560402938
H           19.33964950273107       58.18730779668473       30.06250965334890
H           20.68281949195155       57.02398258439761       30.18514305151009
H           20.64665384572115       58.46576921434084       31.23628838793871
N           18.41030709956350       55.91432007580913       31.48112044685379
H           18.19350804855448       55.60402632063380       30.55038027313375
C           19.28431269723674       56.93135979748485       31.79157586976930
C           17.91445448634316       55.41177785846829       32.62387737273396
H           17.20650589304021       54.59968026892808       32.67141576982920
N           18.43206960044829       56.05531165436901       33.64862655758140
C           19.30269611572013       56.99333784485779       33.15241923881560
H           19.87363740471004       57.61825362380343       33.81455047978911
C           14.76467955283114       56.33311996232983       40.29129090712645
H           14.96917812633864       57.23449382010696       40.88106083115508
H           14.68866682627349       55.47547931780026       40.96973975109695
H           13.81787848299243       56.46494162249219       39.76086378843031
N           17.14840856036555       55.91807105786881       39.69294806045931
H           17.46588651473013       55.81634398090208       40.64093819922864
C           15.84987136719664       56.13198174271961       39.31668257464216
C           17.90400983597013       55.88787273223979       38.58854647909417
H           18.96736601904374       55.72249650162001       38.58631803718982
N           17.14982946450280       56.08541812176431       37.52796891033711
C           15.86846236353476       56.25386840458826       37.96151818726212
H           15.06809302047787       56.45110197339390       37.27219504151137
87
 energy: -128.455045642877 gnorm: 0.033927066684 xtb: 6.7.1 (edcfbbe)
Fe          17.82870656794124       56.03427271648908       35.56205496127524
N           17.46604439359805       57.96697795248827       35.38943477014661
N           15.94028296307114       55.69431943239271       34.93632028391705
N           18.17535940506796       54.06681943201085       35.77884771953541
N           19.68722843495337       56.36931940275972       36.18042308691830
C           18.32424055701712       58.97616051369607       35.70854879693785
C           17.73949195681894       60.25575147090334       35.39827705600379
C           16.50657544421875       59.99733489748510       34.89036239235350
C           16.35190402442586       58.57365365567671       34.89530800800520
C           15.02351630126333       56.58942527432828       34.50017470038223
C           13.80216766998539       55.91981631140373       34.13850183073006
C           14.00784513752861       54.59389615507775       34.37849470619994
C           15.36669412005683       54.46990117106137       34.87296106953394
C           17.23352260039787       53.08245759261662       35.69927351302648
C           17.74933191542581       51.81531006266230       36.11909438925332
C           19.07226931043434       52.04496123763330       36.42562550384894
C           19.31015786169076       53.45142308925723       36.19613986586689
C           20.65707352885907       55.46060373192267       36.45031080051020
C           21.87545731274075       56.12300449186060       36.87484943363908
C           21.60637194239535       57.45567188316197       36.85017971954682
C           20.23238526699556       57.59133139583797       36.41140127892320
C           19.59690325792515       58.80094487854188       36.22402262784548
H           20.15517081630349       59.68887907723042       36.47715555792209
C           15.20171128429548       57.95275769592659       34.45539373257279
H           14.38983642033084       58.55803460370849       34.08371112718739
C           15.94078835037024       53.27812636294480       35.24408933910646
H           15.31640997155537       52.40401327500922       35.19617262809546
C           20.52223696631722       54.08906223130407       36.42642998994923
H           21.39707593600169       53.49787137952095       36.64260825774294
C           15.47560605605121       60.95770218701310       34.41536889595149
H           15.82649764242291       61.97582538833549       34.53681293656638
H           14.55655683662279       60.83250238576092       34.98529303509598
H           15.25062096586868       60.78570396670077       33.36390614543674
C           18.33534382446101       61.61343038436728       35.54008104159290
H           19.34908577426465       61.57523534545733       35.91895610473919
H           17.73015695950449       62.21368218776379       36.21769293650184
H           18.34508067965070       62.10670517118739       34.56895584633838
C           12.54383597803152       56.48805361993779       33.58813775491701
H           12.65463768288222       57.53499045668980       33.33778519548441
H           11.74545863378633       56.38109976760892       34.32229424323631
H           12.25090633245377       55.94054217270709       32.69425563011585
C           13.03956586254742       53.57649069509674       34.06268205653426
H           11.99629017368858       53.82878907138228       34.18943693535483
C           13.41088054002776       52.41574872606697       33.52848450539435
H           14.45097680247754       52.22200285942904       33.35445190594520
H           12.69704692552553       51.66667542868193       33.25698592696931
C           16.97961997305725       50.54302196769655       36.21549633225926
H           17.34549415404887       49.82276657113312       35.48246071012272
H           15.91802095329056       50.69082452715469       36.03909856603062
H           17.09050880899243       50.10798495035873       37.20770337124480
C           20.07310336337773       51.15887762884180       36.93883993405119
H           21.02328132278834       51.61418821672489       37.18238309628543
C           19.93507193190622       49.84980320952072       37.14164417608208
H           19.02286178073119       49.34035903251917       36.92214535377703
H           20.74613472204485       49.26910178734818       37.53177520612869
C           23.13708660381503       55.45005238244821       37.29193310469301
H           23.54375829803608       54.84813169737458       36.48173198440028
H           22.96673909341692       54.79646361293862       38.14639757500153
H           23.88175706013972       56.18808920156256       37.57847869310748
C           22.53094625403117       58.56754213912414       37.20760459385678
H           23.54400904693320       58.33434690332610       36.88783752460218
H           22.54061605884784       58.71658344845486       38.28709219706409
H           22.23111663680112       59.49596099737452       36.73417598393098
C           20.03226232047790       57.69223744480325       30.75430215287296
H           19.34479727090160       58.18023904481807       30.06591864885241
H           20.68281187114207       57.03406203506749       30.18120775080678
H           20.63977531116484       58.45212603597724       31.23305830347116
N           18.41630493025102       55.91753771016021       31.47144863219572
H           18.19135330017113       55.60546795350903       30.54077144216868
C           19.29417950274742       56.92093099584228       31.78581005988623
C           17.92555448025581       55.42136051523361       32.63069786964738
H           17.21867309753717       54.61887830993113       32.68184908385778
N           18.43410507583040       56.05462902628980       33.65776035111661
C           19.29578846298778       56.98206730172468       33.14874177893945
H           19.85764038584895       57.61752051525621       33.80096485694649
C           14.75739317876444       56.33703813622066       40.29831751808114
H           14.94704993445106       57.22845405794928       40.89441288865800
H           14.68074207788964       55.48358350482684       40.96803454305379
H           13.81836052862636       56.46130637494088       39.77292132533388
N           17.14631766858268       55.91933665526970       39.69649893768404
H           17.46576312066829       55.81124832088924       40.64570733303562
C           15.85351946782352       56.15532015160461       39.31667126373964
C           17.90158787372838       55.88271764565336       38.57690778269450
H           18.95710720699704       55.71580731218957       38.57874709111103
N           17.16567773748100       56.07849956857212       37.51099360949399
C           15.88815186125063       56.25521324248948       37.95416512523329
H           15.08564988390990       56.44303867778052       37.27254500533074
87
 energy: -128.459078004589 gnorm: 0.019077509012 xtb: 6.7.1 (edcfbbe)
Fe          17.82182197866663       56.03339115496127       35.56695320831216
N           17.47281981183402       57.97943761254530       35.39459032467689
N           15.94732404772948       55.67935909515694       34.93323810079475
N           18.16247265758111       54.06480277511131       35.79103571056092
N           19.68696578757484       56.38478419745289       36.17785196903259
C           18.32723284538633       58.98758727982094       35.70973736409098
C           17.73957805948728       60.27049505030754       35.39980095260760
C           16.50643309537872       60.00847714204673       34.89087160653440
C           16.35774893774753       58.57694181096098       34.89689736463026
C           15.02311641200994       56.57799453768907       34.49837878956291
C           13.79862650624851       55.91528151185502       34.13630545657356
C           14.00699924092828       54.58014243004087       34.35885662591590
C           15.35565036168983       54.45811508758378       34.86588648787050
C           17.22132510527947       53.08383444819120       35.71508380605464
C           17.75270871668123       51.81283650438839       36.12379864254403
C           19.07709359426674       52.03489917752408       36.42608047699987
C           19.29933566326418       53.45461394557105       36.20735605691992
C           20.65772744506436       55.47193820508102       36.45193961427777
C           21.87393904388546       56.13128757302689       36.86919343660659
C           21.60904809975009       57.46646009449992       36.85151290559119
C           20.23896528138417       57.60561949218155       36.40922652439568
C           19.60216799981270       58.81648739329710       36.22235169903925
H           20.16023841197915       59.70760238967706       36.46621095128714
C           15.21129126322408       57.94606823466040       34.45879126072735
H           14.40192123894092       58.55760780039688       34.09214917553101
C           15.92333742348778       53.26615554845364       35.26339195083578
H           15.29198653521967       52.39337363946792       35.24168650030073
C           20.50597459465515       54.09958963771157       36.43407079092250
H           21.37730880783250       53.50764956862180       36.66419333496965
C           15.47310396218745       60.96932223806243       34.41268097738475
H           15.81915870451065       61.99129120203725       34.53088590455473
H           14.55072751547197       60.84753222203980       34.97943298643928
H           15.24663725272428       60.79768044045654       33.36088284083423
C           18.34780540761994       61.62403989080149       35.55093925277522
H           19.36160398564823       61.57571856267350       35.93177025934781
H           17.75053495090843       62.23032921279280       36.23131506273289
H           18.36708241337844       62.12709643435714       34.58400460931868
C           12.54417379847489       56.50594958033870       33.58926373615298
H           12.65748867807822       57.55585599244289       33.34298238099012
H           11.73557131536933       56.40543175361183       34.31495493912672
H           12.24671953950602       55.96925614400963       32.68935176667489
C           13.04866799892401       53.54400609050803       34.04580784265302
H           12.00924039091107       53.79787509507910       34.20646864253175
C           13.39448112911954       52.37686245141593       33.50485165656472
H           14.42558320639673       52.17076472195989       33.27130923395382
H           12.66754542047597       51.63000953341437       33.24599285809685
C           16.97748426187853       50.54667632575890       36.21457654076539
H           17.34005236824807       49.82079838993733       35.48482489136906
H           15.91943979584933       50.71147760646180       36.03115251426944
H           17.07764692979532       50.11360098517853       37.20980488658737
C           20.08254175037710       51.14203125392429       36.93653072035733
H           21.02801054053370       51.60562621955024       37.18304944792689
C           19.95804139881488       49.82960226017942       37.14073963266924
H           19.05994248362358       49.29382819802706       36.91132911828372
H           20.77115043356498       49.25429268578714       37.54521614671440
C           23.13151493260129       55.44887146316048       37.28335013807959
H           23.53460470104450       54.84152019263210       36.47374503588995
H           22.95470413231923       54.79481689283615       38.13738209808634
H           23.88158615976395       56.18129082364243       37.57164641883142
C           22.53591563992100       58.57700349805082       37.21204868721455
H           23.55011697409406       58.34166819674773       36.89609321737226
H           22.54488190256977       58.73367247167597       38.29149190152003
H           22.23963043963827       59.50683967644543       36.73653609263503
C           20.03431376723772       57.68608989332374       30.75290579186343
H           19.34325457560775       58.17331335790352       30.06667184685593
H           20.68858497967974       57.03506473240305       30.17395649138899
H           20.63916021496840       58.44704318849165       31.23452655286602
N           18.41889484167955       55.91004050740081       31.47068701235576
H           18.18990326250328       55.59774250292854       30.54107524060028
C           19.29866577721053       56.91208323114508       31.78427122452313
C           17.92485137758652       55.42181241724874       32.63352923284555
H           17.21350405378834       54.62452011179316       32.68851159067698
N           18.43087442308999       56.05722113182894       33.66011685368997
C           19.29350130035365       56.98085971275103       33.14704859844673
H           19.84895505667540       57.62865862727978       33.79230936847092
C           14.75502151538046       56.34065512544753       40.29848272220732
H           14.92865870958944       57.22765972717189       40.90820975265908
H           14.68188231042025       55.48020020104848       40.96107217153122
H           13.81391653050341       56.45910385533682       39.77327187992870
N           17.14904303321316       55.92365723731638       39.69776726142113
H           17.46829188112534       55.80775279166242       40.64600044604140
C           15.85724884749122       56.17226070395885       39.31604256131165
C           17.90347517065134       55.87510750424437       38.57579765098400
H           18.95774413951729       55.69663879812073       38.57691575665063
N           17.17189141323950       56.07623162250572       37.50967574542840
C           15.89643903775040       56.26424261205289       37.95322428331077
H           15.09337429940497       56.44656836235440       37.27107643707049
87
 energy: -128.460670541099 gnorm: 0.011392926993 xtb: 6.7.1 (edcfbbe)
Fe          17.81645385383064       56.03418556494342       35.57213688587624
N           17.47569864463919       57.99275029257755       35.40191847952804
N           15.94698795932961       55.66659906410180       34.93399277827061
N           18.14778563936834       54.06175214273755       35.80337734775256
N           19.68460686874662       56.40137371042396       36.18067246503439
C           18.33009142000926       59.00163640795844       35.71240862483207
C           17.73814395139729       60.28521104010966       35.40232436274366
C           16.50484716170777       60.01981456351233       34.89273713592491
C           16.35798385302837       58.58343553292967       34.90370888305321
C           15.02032934293911       56.56938285068914       34.50336794183295
C           13.79807354110271       55.91112535198766       34.13039115071833
C           14.00746324689177       54.56980715714013       34.33483427507696
C           15.34869625093096       54.44741152753802       34.85605279784733
C           17.20705536791505       53.08190946527875       35.72490150431920
C           17.75136830307681       51.81052289602501       36.12702816378517
C           19.07563838689808       52.03109764372422       36.42771771006889
C           19.28808715021085       53.45798716057176       36.21742507134220
C           20.65195825478716       55.48465736145558       36.45718604006484
C           21.87035028486736       56.14099979701843       36.86758903737818
C           21.61216751170989       57.47780314915996       36.85085079897531
C           20.24289529180771       57.62078466097062       36.40986934552065
C           19.60733452354424       58.83430102870026       36.21937501373834
H           20.16706517970459       59.72753242621302       36.45399443494009
C           15.21582471423977       57.94068132069025       34.47027181786046
H           14.40899106078950       58.55673307398897       34.10450880517610
C           15.90796727811481       53.25584967707616       35.27424732111367
H           15.26886534704684       52.38759590293221       35.25000786770736
C           20.48668570003343       54.11144304656091       36.44758592679602
H           21.35467484939515       53.51886930305754       36.69389863982774
C           15.47178323993632       60.98107931266630       34.41070369963764
H           15.81798490630417       62.00512405745396       34.52586020359406