87
 energy: -128.467383897346 gnorm: 0.000046193007 xtb: 6.7.1 (edcfbbe)
Fe          17.74794143130776       56.06642294279288       35.64615673165746
N           17.39674667157477       58.03210705192347       35.48384333790293
N           15.89014669348782       55.67766632028192       34.99969033780957
N           18.09138031695063       54.10057789714905       35.85182057078779
N           19.61832372476983       56.45278970948167       36.24883908973751
C           18.25035709227000       59.04167425653445       35.78972225062444
C           17.62049158646849       60.32742519123327       35.57659204666173
C           16.36435795537550       60.06652779294179       35.12759069514290
C           16.24426829098625       58.62492290704112       35.07498282759732
C           14.95505774075717       56.58688057730905       34.61711995402904
C           13.75815804816622       55.92854963398142       34.16531825798072
C           13.99644207748178       54.58309103738723       34.25957311967855
C           15.33212255826246       54.45444530738780       34.81031100901254
C           17.19181112472297       53.09582000164651       35.66527675337281
C           17.77661686545593       51.81932746940947       35.98325437140774
C           19.07346633473744       52.07089391202228       36.35121759318827
C           19.23813452233460       53.50950985699240       36.26945412186537
C           20.58382118797715       55.54381065440891       36.54355932019224
C           21.82062611251749       56.20766092905540       36.89478914266029
C           21.57194126534783       57.54226098116004       36.81643826544051
C           20.18957894543943       57.67398138795951       36.41068332483655
C           19.55621926696573       58.88819111950176       36.21882597190355
H           20.12847075166751       59.78443186927515       36.40644275967265
C           15.10554067858423       57.96389937060911       34.65942794123557
H           14.26470955688457       58.56468410804715       34.34608491557775
C           15.90623192305853       53.25144386283621       35.17475486448213
H           15.30359405481833       52.36356124876669       35.06152420938839
C           20.41903494821832       54.17142817734279       36.55750098882326
H           21.27580843932617       53.57256892023263       36.82787411305497
C           15.27972252777757       61.01608160270710       34.74765967919423
H           15.60549845843678       62.04611446710192       34.87150887645728
H           14.39665122884144       60.85907657109869       35.36789847650818
H           14.99060498814842       60.87096345123405       33.70637618543331
C           18.28318897651569       61.64027297196911       35.82104237720424
H           18.60549535536159       61.71930871548697       36.85958839598690
H           17.60376533652601       62.46262429566723       35.60991026273649
H           19.16254995354303       61.75119717687789       35.18560753149130
C           12.54285313480276       56.61997417056479       33.64972066575070
H           12.77741293753657       57.18935173816210       32.74950153591916
H           12.15069594981705       57.31449291514662       34.39348676041175
H           11.76671795405082       55.89945865762951       33.40369653989435
C           13.09822117011837       53.51546641111480       33.87330199753254
H           12.04729104522167       53.70212113923670       34.06903740908188
C           13.44520773333385       52.38014660375607       33.27650547352200
H           14.46502183915063       52.16153977535630       33.00850585847149
H           12.71287212272317       51.63428934942938       33.01448237750769
C           17.05494726032483       50.51652310439089       35.96350923480867
H           17.04945770229441       50.08671848595905       34.96005529650404
H           16.02085258505776       50.64468035762300       36.27968097156045
H           17.54055171536558       49.81033493283673       36.63444280562518
C           20.09895886834269       51.14703224808082       36.77933712134336
H           20.81165106147813       51.53907845745313       37.49628981718428
C           20.23627969657787       49.89119464625796       36.36433168321725
H           19.59210970225124       49.45911327495743       35.61893243121840
H           21.02135825944747       49.25649393159992       36.74126289644963
C           23.08065729234665       55.50131097923128       37.26381527271366
H           23.39140672550085       54.82968390942312       36.46332245250940
H           22.93898121268324       54.90620800634040       38.16692823878667
H           23.88368311747766       56.21146217842464       37.44632778321380
C           22.48614325850469       58.69064474206856       37.07746101075895
H           23.47332808276120       58.34135121365317       37.37057644971018
H           22.09356260221787       59.31924230953731       37.87730149911477
H           22.59198400559892       59.30797268204145       36.18485478479726
C           20.24207328147932       57.07467056809313       30.74112672956094
H           19.61505730634163       57.29890937255610       29.87807253103755
H           21.02607966290492       56.38721963437352       30.42320559021042
H           20.70462812626898       57.99498338638625       31.08380327566605
N           18.73171280681439       55.31802230777271       31.69255665623844
H           18.68667777526163       54.75912717827465       30.85642538334073
C           19.43656029611556       56.48435318163394       31.84023979147643
C           18.11618370328436       55.06074529217614       32.86871765100627
H           17.49183444918343       54.20956978736988       33.04579516602286
N           18.38729012708758       55.99139415138650       33.74987502306540
C           19.20720401373780       56.88389284462979       33.12544540455329
H           19.57446865511471       57.74725594035559       33.64010220405407
C           14.85596016785123       56.94240459231444       40.35342905930046
H           15.30199037856989       57.56968602243546       41.12534604209571
H           14.40409640451148       56.07631311651569       40.83719521666947
H           14.07573052011389       57.50773367825674       39.85344105064038
N           16.98688482325214       55.79500745060939       39.70912677746721
H           17.21876103399596       55.48254865306662       40.63761157334858
C           15.87675509991615       56.51985538219233       39.36107315993385
C           17.70278926471396       55.57765532610726       38.58261377861081
H           18.62469058770043       55.03454564170377       38.55304271521008
N           17.11472910459902       56.11940890291102       37.54490538547516
C           15.97816215363472       56.70941809590139       38.01286253737468
H           15.31459623149831       57.22719952584718       37.35205825926089
