87
 energy: -127.914819079847 gnorm: 0.233877598039 xtb: 6.7.1 (edcfbbe)
Fe          33.31900000000000       20.21400000000000       34.31300000000000
N           33.10000000000000       18.43000000000000       35.16799999999999
N           33.92200000000000       19.34900000000000       32.64700000000000
N           33.55800000000000       22.00000000000000       33.46100000000000
N           32.72200000000000       21.11800000000000       35.99200000000000
C           32.79500000000000       18.15900000000000       36.46900000000000
C           32.90500000000000       16.71100000000000       36.73100000000000
C           33.20600000000000       16.08100000000000       35.55100000000000
C           33.31500000000000       17.14600000000000       34.58000000000000
C           34.00599999999999       17.97500000000000       32.36300000000000
C           34.49800000000000       17.74600000000000       31.01400000000000
C           34.77399999999999       18.99200000000000       30.48600000000000
C           34.38300000000000       19.95700000000000       31.48800000000000
C           34.09100000000000       22.28200000000000       32.20900000000000
C           34.17899999999999       23.73600000000000       31.95300000000000
C           33.68600000000000       24.32300000000000       33.08400000000000
C           33.27700000000000       23.24600000000000       33.99600000000000
C           32.48400000000000       22.48100000000000       36.20400000000000
C           31.91700000000000       22.71800000000000       37.50500000000000
C           31.77500000000000       21.50600000000000       38.06900000000000
C           32.32700000000000       20.50700000000000       37.16100000000000
C           32.38000000000000       19.12300000000000       37.37900000000000
H           32.06400000000000       18.76800000000000       38.36000000000000
C           33.70800000000000       16.96000000000000       33.26900000000000
H           33.79200000000000       15.93300000000000       32.91400000000000
C           34.47000000000000       21.33800000000000       31.30000000000000
H           34.87300000000000       21.69000000000000       30.35000000000000
C           32.73900000000000       23.44800000000000       35.26100000000000
H           32.49500000000000       24.47500000000000       35.53200000000000
C           33.39500000000000       14.58500000000000       35.30400000000000
H           33.07600000000000       14.01700000000000       36.20400000000000
H           34.46600000000000       14.37000000000000       35.10399999999999
H           32.77600000000000       14.26600000000000       34.43900000000000
C           32.75900000000000       16.05400000000000       38.08900000000000
H           31.73900000000000       15.62400000000000       38.18500000000000
H           32.90900000000000       16.81000000000000       38.89000000000000
H           33.50500000000000       15.23700000000000       38.19300000000000
C           34.76100000000000       16.37800000000000       30.38400000000000
H           33.87300000000000       15.72600000000000       30.52900000000000
H           35.64000000000000       15.90300000000000       30.87100000000000
H           34.94799999999999       16.49600000000000       29.29500000000000
C           35.51400000000000       19.35200000000000       29.33700000000000
H           36.28100000000000       20.12300000000000       29.48200000000000
C           35.42700000000000       18.88500000000000       28.04500000000000
H           34.69300000000000       18.11000000000000       27.78000000000000
H           36.09000000000000       19.28100000000000       27.26200000000000
C           34.76100000000000       24.37100000000000       30.66500000000000
H           33.99800000000000       24.33800000000000       29.85800000000000
H           35.65700000000000       23.80200000000000       30.33800000000000
H           35.03400000000000       25.43000000000000       30.85900000000000
C           33.56700000000000       25.69300000000000       33.35700000000000
H           33.83200000000000       26.08299999999999       34.35099999999999
C           33.11900000000000       26.59000000000000       32.40000000000000
H           32.84400000000000       26.24200000000000       31.39399999999999
H           33.03300000000000       27.66100000000000       32.63500000000000
C           31.59000000000000       24.05900000000000       38.14600000000000
H           30.62300000000000       24.43500000000000       37.74700000000000
H           32.38800000000000       24.79400000000000       37.90699999999999
H           31.50300000000000       23.93800000000000       39.24700000000000
C           31.06600000000000       21.20200000000000       39.36599999999999
H           30.24900000000000       21.93800000000000       39.52399999999999
H           31.78300000000000       21.27300000000000       40.21099999999999
H           30.62800000000000       20.18200000000000       39.32400000000000
C           28.51300000000000       18.76800000000000       31.92800000000000
H           28.31200000000000       19.26900000000000       30.95700000000000
H           27.56900000000000       18.72400000000000       32.51200000000000
H           28.88800000000000       17.73999999999999       31.73300000000000
N           29.38500000000000       20.87100000000000       33.08000000000000
H           28.57600000000000       21.44300000000000       32.94800000000000
C           29.54200000000000       19.54600000000000       32.68800000000000
C           30.53000000000000       21.19100000000000       33.65600000000000
H           30.73600000000000       22.18300000000000       34.05700000000000
N           31.34500000000000       20.19200000000000       33.67500000000000
C           30.78300000000000       19.07500000000000       33.05500000000000
H           31.28800000000000       18.12600000000000       32.94600000000000
C           38.57000000000000       19.06600000000000       35.85100000000000
H           38.96400000000000       19.39399999999999       36.83700000000000
H           39.31200000000000       19.31900000000000       35.06400000000000
H           38.40300000000000       17.96800000000000       35.87700000000000
N           37.14800000000000       21.15300000000000       35.48500000000000
H           37.86600000000000       21.82300000000000       35.67400000000000
C           37.25800000000000       19.77800000000000       35.56700000000000
C           35.87900000000000       21.37900000000000       35.10000000000000
H           35.48800000000000       22.38100000000000       34.92300000000000
N           35.20900000000000       20.29000000000000       34.97200000000000
C           36.01700000000000       19.19100000000000       35.25700000000000
H           35.66799999999999       18.16900000000000       35.21800000000000
87
 energy: -127.961449816912 gnorm: 0.102978939431 xtb: 6.7.1 (edcfbbe)
Fe          33.31953051372473       20.21227653773019       34.30940986859455
N           33.09650924038196       18.40614696257412       35.16501100645805
N           33.92528940951006       19.33540759864626       32.62602989954218
N           33.55977893476685       22.02304001474674       33.44713452848291
N           32.71589277484014       21.12216691552594       36.00176466941009
C           32.80057698578976       18.15199688966112       36.47209065495000
C           32.90201302733356       16.72202747074447       36.74276082052869
C           33.20100161543306       16.09808094980303       35.55315000537060
C           33.32391259964984       17.14833976064554       34.58183956598140
C           33.99976569921233       17.97126975740706       32.34856096750831
C           34.49574966787137       17.73875733366344       31.01951335625225
C           34.78549243870405       18.98862762190434       30.48853687847240
C           34.40211835718582       19.95129322060414       31.49131353262302
C           34.09439341242588       22.29074626959458       32.20012786513854
C           34.17667419057758       23.71471938197199       31.94445855385407
C           33.67813214473701       24.31934862616021       33.08011419458705
C           33.29667108904741       23.25357999288560       33.99553707548316
C           32.48439184401035       22.47848032556747       36.20093440976319
C           31.92195736151206       22.71283946098264       37.49982016002670
C           31.76930580815365       21.48154913406938       38.07324582179533
C           32.30551282334191       20.50072178329945       37.15447374936374
C           32.38121563568983       19.12030624024432       37.38268963919553
H           32.06699280850331       18.77121951537967       38.35844672754043
C           33.70239765159872       16.95928542579238       33.25872531944852
H           33.80102821543467       15.93747328490078       32.91490989451277
C           34.48223422519054       21.32892183199539       31.29224369513327
H           34.86875036243931       21.67568233140528       30.34343218744441
C           32.74542033452231       23.45892313987549       35.25793831193079
H           32.50554664490816       24.47914609764291       35.53133131879265
C           33.39009734640412       14.61936118442776       35.30693254428153
H           33.08060383665411       14.04197591162413       36.18425113804381
H           34.44194178070082       14.38366612602687       35.10322423319361
H           32.79091660949685       14.28167718630548       34.45418949033294
C           32.75494672907652       16.06691211362963       38.08202241524216
H           31.75337151783437       15.63254030974565       38.18761522800239
H           32.90692202688038       16.79335247003372       38.88448005018566
H           33.48686078384880       15.25913819439912       38.19158582409027
C           34.75150619143171       16.39310606780412       30.39733010124250
H           33.88524374035624       15.73591754354943       30.52795742670873
H           35.61977048114065       15.91363200539679       30.86491998850382
H           34.94932754951768       16.49835720905322       29.32712853021835
C           35.52211344405250       19.35202274718972       29.31698224023799
H           36.26667509392202       20.13335617575357       29.47118147330362
C           35.42965085978231       18.87764884317698       28.06202697214844
H           34.69674415147357       18.12914496747819       27.78538103100338
H           36.07298759698616       19.26385753478360       27.28104709887763
C           34.74824540071695       24.35000230425436       30.69202654260698
H           34.01037837876080       24.33069452963863       29.88049727998107
H           35.63761873509807       23.80956771756602       30.35247083683012
H           35.02258333781665       25.39536539952860       30.87230124413223
C           33.55330556551753       25.71467865998772       33.34497781234160
H           33.80476336434985       26.08525875045316       34.33830530048643
C           33.13479863336013       26.59055278785592       32.41041206743565
H           32.84340284674472       26.25175240574792       31.42343364307527
H           33.03907256328984       27.64506759809340       32.63234163946997
C           31.59296722572641       24.04220063691096       38.12633858932580
H           30.63933495085332       24.43062719148583       37.74824913058573
H           32.37266546021562       24.77911529176850       37.90839725999076
H           31.50894624287620       23.93683939419651       39.21283383753424
C           31.07351011985378       21.19261202531050       39.36481490519640
H           30.26972810568040       21.91987236448063       39.52445738522434
H           31.77090015070814       21.26165318467084       40.20678614137081
H           30.63437428969246       20.19250584847034       39.33938193347925
C           28.49975929953591       18.76994654891299       31.92435082069909
H           28.29968188490866       19.25677387034612       30.96406763721689
H           27.56781255842802       18.71668246039683       32.49518678067291
H           28.87004152192931       17.75938713203368       31.73657253985124
N           29.38824937958492       20.84486009300742       33.06805422835998
H           28.57345934896211       21.41989248959761       32.93537829178040
C           29.53029129495750       19.53140466919542       32.67630307624846
C           30.53993456472868       21.18626470074561       33.66136027842680
H           30.73767739054077       22.16924175043654       34.06012320779929
N           31.37625256597094       20.19103719670206       33.67666210587672
C           30.77184675046422       19.11053980704269       33.06053315176217
H           31.27114687490423       18.16613935480666       32.95260782791471
C           38.56451822401812       19.07048545494809       35.85737675997840
H           38.96431303195644       19.38801130332883       36.82605680747456
H           39.30039468401790       19.31128100972858       35.08224687464270
H           38.40716535539616       17.99009036419228       35.87648620042501
N           37.15153129022158       21.12680813216703       35.47963363618273
H           37.87452314915559       21.79943297517152       35.67161274429650
C           37.26947731425960       19.76071815776799       35.56461851749684
C           35.88160569435282       21.38116768273130       35.10740950589823
H           35.49755684214679       22.37434582782504       34.93771536098753
N           35.20202044867333       20.28449717496961       34.96518634203689
C           36.03885117039312       19.22501230860537       35.25250974192448
H           35.69335843317726       18.20857297911886       35.21712154917925
87
 energy: -127.973407521049 gnorm: 0.023075111710 xtb: 6.7.1 (edcfbbe)
Fe          33.31617874961285       20.21092737361445       34.30410511642656
N           33.09529235808189       18.38822208298700       35.16228489300481
N           33.93182755664185       19.32361289283293       32.60851031342413
N           33.56712929940276       22.04280002485083       33.43831466142650
N           32.70511403880163       21.12490654165995       36.00418794160546
C           32.80223643023174       18.14763185679778       36.47318899632485
C           32.89976353297863       16.73608232364921       36.75208059574010
C           33.20004288530296       16.11573151298776       35.55432449650013
C           33.32800512484778       17.15549237969000       34.58473339589167
C           33.99484651070624       17.96926943735090       32.33637371113056
C           34.49692363717723       17.73421088998078       31.02450829465068
C           34.80439052175740       18.98753955548621       30.49593896063514
C           34.42202037286818       19.94602467623350       31.49629129543147
C           34.09628086791799       22.29926634666082       32.19311459624737
C           34.17282495831081       23.69619419874446       31.94128731047901
C           33.67228132347498       24.31532055444526       33.08244092937980
C           33.31242016398866       23.26013571101416       33.99512215092547
C           32.48620562955021       22.47173428524243       36.19796995117935
C           31.92332711703757       22.70306890912233       37.49086919744084
C           31.76059481906745       21.45801464652429       38.07081451461238
C           32.28436045938896       20.49659935032146       37.14544240254578
C           32.38024524086647       19.11921968805885       37.38318920343873
H           32.07359524255296       18.77480075196647       38.35825134741482
C           33.69374357279022       16.96055742597698       33.25211225515733
H           33.80819618857917       15.94098534258700       32.91917398784024
C           34.49317217197871       21.32070021293383       31.28776818062268
H           34.86664894346756       21.66127475638638       30.33680360710881
C           32.75515213707921       23.46612933284997       35.25866011777689
H           32.52338197903453       24.48216120829550       35.53730995022730
C           33.38588710728997       14.65333031330797       35.30910472886964
H           33.07933183968968       14.07773360899472       36.17834780649167
H           34.42987950171253       14.41615317560911       35.10094895961506
H           32.79485784344874       14.31617746805036       34.45936360978883
C           32.74849795466096       16.08117799974950       38.07786219645972
H           31.75542094339316       15.64459058164629       38.18523511017119
H           32.90140180781947       16.79057318544267       38.88400401571209
H           33.47392821527107       15.27720151076625       38.18510288097526
C           34.74401291131181       16.40409517739278       30.40870341586047
H           33.88543787624943       15.74772160949344       30.53153691327507
H           35.60430327925037       15.92169827949757       30.87322677767898
H           34.95307557607022       16.50837433464278       29.34950730251289
C           35.52960116591754       19.35625483082132       29.30400009642932
H           36.25683898517345       20.14635185866335       29.46638344071136
C           35.41968410395787       18.87208727194915       28.07150881554010
H           34.69667490628665       18.12679473366664       27.79506270466082
H           36.05639838005121       19.23779003678225       27.28590232190025
C           34.73472230195271       24.32975849949176       30.71652755286847
H           34.00859815412831       24.31764602703365       29.90245444164119
H           35.62253446998839       23.80216073084977       30.37413028313377
H           35.00577480149348       25.36623247921995       30.90576408157487
C           33.53808385951181       25.72792131546581       33.33792518035759
H           33.77691027436132       26.07562126090913       34.33609681770004
C           33.13029022339661       26.59543740539362       32.41913485038431
H           32.84777127058286       26.27139741838155       31.43387385988553
H           33.05058684819257       27.64575924131539       32.62665960380511
C           31.59668177683326       24.02249498556640       38.10594739774489
H           30.65046430385687       24.41404643780580       37.73238323679900
H           32.36908015601596       24.75780172312690       37.89323883441617
H           31.51376656858939       23.92319627093547       39.18531430035116
C           31.08203680386043       21.17886262353577       39.36448756843465
H           30.28851806925396       21.90524057948261       39.52713686325129
H           31.77426730492034       21.24819452148267       40.20210067839445
H           30.64161302098068       20.18751274863981       39.35831337172942
C           28.48812006462837       18.76931476902126       31.92256091875719
H           28.28351811888260       19.25059180672869       30.96906776089412
H           27.56178262609447       18.71484177398879       32.48746959182301
H           28.84774381367180       17.76438128798500       31.73500868899753
N           29.39485514604502       20.82407589451193       33.05863566863394
H           28.57746790475739       21.40040246852212       32.92692166104062
C           29.52591881533020       19.51902216004580       32.66535919380757
C           30.54521673711679       21.18500631457214       33.66068862419766
H           30.73248295407351       22.16081863912918       34.06248883776144
N           31.39807710653620       20.19028108367768       33.67267206712610
C           30.77283296245051       19.13753271599785       33.05950064363724
H           31.26528113424351       18.19344872482730       32.95276320029418
C           38.56257293481632       19.07099535131995       35.86293273885231
H           38.95952744626691       19.38808025144950       36.82383755247736
H           39.29885877439951       19.30634546129450       35.09639868942936
H           38.41161817452394       17.99828906155524       35.88105762658632
N           37.15853273540532       21.10804600441201       35.47554250107263
H           37.88496839501768       21.78019511927227       35.66958998684449
C           37.28061864949219       19.74697576292253       35.55804702949135
C           35.89209266549540       21.38725898025973       35.11467284659469
H           35.51406041663562       22.37682262356316       34.96120375136940
N           35.20059293621242       20.28436959194237       34.95809020835648
C           36.05281559004960       19.25033756177790       35.24044198443205
H           35.71330945888487       18.23556207685914       35.20358583380939
87
 energy: -127.975468530864 gnorm: 0.013008944399 xtb: 6.7.1 (edcfbbe)
Fe          33.31672280178029       20.21393310379539       34.30164821675231
N           33.09055054742998       18.39335088452064       35.16019480114944
N           33.93750240341726       19.32377425835652       32.60555637576467
N           33.56906760093137       22.04586175245831       33.43915313001234
N           32.69504674304685       21.12074372957512       35.99831209008775
C           32.79877400855181       18.15254930730431       36.47228410809610
C           32.89621544159989       16.74836212668463       36.75393823219235
C           33.19897364992907       16.12997903382246       35.55473631210333
C           33.32658108876785       17.16712761613481       34.58505349023385
C           33.99478728981655       17.97200571175152       32.33452271937587
C           34.50308731631821       17.73554546215425       31.02849082530406
C           34.82159669996324       18.98858391657229       30.50197313926259
C           34.43772998574390       19.94587121601406       31.50077644733472
C           34.09557359125716       22.29988772434079       32.19400056193113
C           34.16257831526869       23.69229774394888       31.94393679467813
C           33.65934993419103       24.31587463309394       33.08566677744011
C           33.31450827239660       23.26159423267788       33.99790984361523
C           32.48524853229243       22.46329789840158       36.19533633394053
C           31.91890162880723       22.69202756710011       37.48435950537019
C           31.75357486347615       21.44517790566126       38.06683884645387
C           32.27077431152659       20.49209978876570       37.13870312979380
C           32.37506986126245       19.11930781110355       37.38240961623466
H           32.07860505940456       18.77600718694060       38.36083474877752
C           33.68974952580509       16.96565912262604       33.25227969125950
H           33.81139523423817       15.94516116407030       32.92473892633365
C           34.50174404982267       21.31906297008339       31.29036596022610
H           34.86856361888674       21.65690634199579       30.33544297967137
C           32.76307111629684       23.46502782142179       35.26421194624964
H           32.54467075492170       24.48174415453727       35.55095708814810
C           33.38433763681169       14.67395702960509       35.30694107936154
H           33.07739070893259       14.10007433550222       36.17659046681766
H           34.42906556030665       14.44325938482914       35.09566433586158
H           32.79223124685327       14.34515938263389       34.45469148407902
C           32.73840374556390       16.09275135465917       38.07785217466171
H           31.74328374297419       15.65910883578619       38.18202402236673
H           32.89171537497076       16.79831220878482       38.88862685654879
H           33.46196862064053       15.28654503770604       38.18389118902672
C           34.74340291801565       16.40427981335789       30.41676278293978
H           33.87726283325643       15.75555908883808       30.53208787734972
H           35.59474885932412       15.91496674240633       30.89211489025580
H           34.96604264200411       16.50860240197509       29.36000208159845
C           35.53735767086577       19.35391700448831       29.30198275071685
H           36.25077522337715       20.15902942038327       29.45192902284050
C           35.41504630183723       18.84758803471235       28.07652668229801
H           34.68110910490657       18.10672262181243       27.81483722549664
H           36.03036774929961       19.21313984960111       27.27194605201264
C           34.72751663205723       24.32629244141651       30.72602292727941
H           34.00385969746585       24.31309332965974       29.90964374139475
H           35.61731082793481       23.79786912727513       30.38884417129726
H           34.99428478433801       25.36093659724021       30.92815835680713
C           33.52266061282372       25.73033831908043       33.33965726908542
H           33.73959606723079       26.06498795737962       34.34787002402732
C           33.14042272584120       26.61103155231427       32.41616794718762
H           32.85060845666465       26.29638315406216       31.42905402623816
H           33.05188512370702       27.65988502657951       32.63275612536497
C           31.59460589952205       24.01137431382999       38.09009839292551
H           30.64990075351910       24.40065856877833       37.70924187446969
H           32.36991241021953       24.74246498512039       37.87152356930080
H           31.51062364844988       23.91549436990599       39.16946720741009
C           31.09359087010222       21.16442610657526       39.36994465395294
H           30.30296906617722       21.89166145144795       39.54376600453370
H           31.79834960361110       21.23337695369143       40.19830482582303
H           30.65231410549648       20.17182839918783       39.37687054721822
C           28.47795015717990       18.76697768033972       31.92259343413370
H           28.26403509193172       19.24840246079951       30.96991474933895
H           27.55397942437373       18.71842863614763       32.49426248262552
H           28.82482305659948       17.75724243768292       31.73085570949091
N           29.39759829645675       20.81641341486967       33.05101013206146
H           28.57918107835511       21.39116481914144       32.92161285747007
C           29.52748166923283       19.51220280264334       32.65593985200039
C           30.54587182961284       21.18408184327129       33.65111727299387
H           30.72676359331148       22.15777817113675       34.06026907663580
N           31.40452677035415       20.18983212083346       33.65865446311392
C           30.78055746668899       19.14019497344535       33.04664996200100
H           31.27164824631570       18.19595778215893       32.93783804195650
C           38.56931713811174       19.06554343911040       35.86827662988932
H           38.95532892825490       19.38703264888894       36.83311838292765
H           39.31575358903972       19.29807383802153       35.10968841403789
H           38.41927366873566       17.99181963455395       35.88936634938464
N           37.17353057836142       21.10433247583751       35.47622247207737
H           37.90302166006175       21.77165797344623       35.67385146906160
C           37.29202410619641       19.74249305645306       35.54822326483593
C           35.90929684844528       21.39488008812388       35.12213641695854
H           35.53369983331803       22.38881757130356       34.99084665424620
N           35.21078462002914       20.29339369822958       34.95275681560152
C           36.06048193093369       19.25664623037590       35.21908700045581
H           35.72413494584797       18.24173481664549       35.17021282036028
87
 energy: -127.976944731570 gnorm: 0.012602526807 xtb: 6.7.1 (edcfbbe)
Fe          33.31771101051969       20.22050646826721       34.29896059757151
N           33.08823970915113       18.40630861857400       35.15769891401546
N           33.94972262957272       19.32817443201800       32.60607696296385
N           33.57429992783186       22.04711209162147       33.44559213724023
N           32.68346714697451       21.11454632622611       35.98963574303342
C           32.79526167314051       18.16084291331936       36.47072844685372
C           32.89172056736441       16.76293159892349       36.75313595170433
C           33.19789634061186       16.14631631063048       35.55326692931391
C           33.32621783696502       17.18419658385370       34.58432968111705
C           33.99931845562353       17.97808839638682       32.33389409259972
C           34.51149755397348       17.73950044495703       31.03250491028271
C           34.84270353957747       18.99256311133226       30.50856282820007
C           34.46083879533332       19.94937489048595       31.50800882307310
C           34.09434823036064       22.30162125358783       32.19899967566017
C           34.14495480282140       23.69154959095703       31.94648074147945
C           33.63818658134964       24.31817460514945       33.09012879343615
C           33.31427853984510       23.26327447687627       34.00399555186561
C           32.48134527384279       22.45182492345729       36.19240451901176
C           31.91223488925448       22.67983267482975       37.47863939851383
C           31.74508643577252       21.43227044136386       38.06279421600913
C           32.25706193773647       20.48689336034453       37.13276995075360
C           32.36927082681304       19.11996053866972       37.38271130485080
H           32.08163060605359       18.77682460756665       38.36367302024266
C           33.68821750483394       16.97409393408545       33.25357830938270
H           33.81259926576968       15.95254750896226       32.93092793401934
C           34.51359558629753       21.32134910719330       31.29681824880944
H           34.87456037627809       21.65786884906456       30.33857488099051
C           32.77186676198637       23.46221181772823       35.27338507244110
H           32.57176601024492       24.47949131238888       35.57194230856713
C           33.38320545689778       14.69463020478685       35.30067576572200
H           33.07748830971890       14.11859455885995       36.16921222339274