87
 energy: -127.983158974073 gnorm: 0.000097222216 xtb: 6.7.1 (edcfbbe)
Fe          33.34397934381864       20.25003003445729       34.26413273851533
N           33.12973886170126       18.44240488466922       35.13206300922023
N           34.01980610698335       19.36959773860196       32.59693528596667
N           33.56665347429696       22.05848985611210       33.43418925671710
N           32.69283489484356       21.12286932687515       35.96233317379046
C           32.82169623885355       18.18228057063655       36.43634624045632
C           32.74725051354093       16.77067959996832       36.66908136932999
C           32.99596423965731       16.16278323800481       35.45745122031090
C           33.25089538334574       17.21883099070083       34.52303184463575
C           34.05142140567255       18.01583877796577       32.31723214884584
C           34.61213017476474       17.77024640779910       31.04654603698676
C           34.96287009140920       19.02439698249248       30.52026628439283
C           34.57447144516915       19.99088554054250       31.51954698088262
C           34.15438053411888       22.33302313972703       32.22203273716656
C           34.12545811116373       23.71532644602213       31.94016935429892
C           33.46284622570224       24.32608213392385       33.02134704744965
C           33.16367622905494       23.26474280134358       33.94248955587369
C           32.41314598076331       22.44038445536972       36.15169015909848
C           31.98400595690349       22.68410487909556       37.49480233290797
C           32.03335839123715       21.46525071769625       38.14375201504949
C           32.45947113090207       20.51012290218004       37.17360356636050
C           32.54811459555344       19.14425121543836       37.40616764480874
H           32.31780071898196       18.79469340086748       38.39946013419506
C           33.63953365167589       17.01452974807724       33.20771991936053
H           33.69561023208755       15.99400711440807       32.86538365918094
C           34.65846804878230       21.36243091016257       31.34408517964238
H           35.07600267161862       21.72029603268416       30.41794976648739
C           32.58441611019767       23.44470295223053       35.19253038759519
H           32.31402085757274       24.44590007154080       35.48539771347976
C           33.02931576392754       14.71330073352908       35.12849309314184
H           32.72776826953717       14.11631346375633       35.98418700159225
H           34.03440143993230       14.40773843632164       34.83563438021173
H           32.35628652562671       14.49084609988870       34.30084337646811
C           32.44203911521835       16.14392464345908       37.98179455501880
H           31.43861261189473       16.41399432272800       38.31189182964427
H           33.14713842200812       16.48116271648171       38.74106675066755
H           32.50079278894913       15.06131385653211       37.91679332806117
C           34.86407725044877       16.43592196535626       30.44197718072074
H           34.04543175523212       16.14745205139664       29.78049171231256
H           34.96258803967167       15.66938871496531       31.20683474768976
H           35.78150059296011       16.45894942547418       29.85757384832983
C           35.59420571012436       19.34487780363339       29.27960333487840
H           36.10551050232718       20.29933673479781       29.25058671131501
C           35.59717093884160       18.59661472270066       28.16786365329436
H           35.05823716568897       17.67074293473006       28.08887404455651
H           36.11788079579806       18.92349954589778       27.28468904812418
C           34.74649034728290       24.38002118318979       30.76547981853289
H           34.02942883364867       24.48230667806268       29.94894682465485
H           35.59348549438862       23.80566048072711       30.39698744671713
H           35.09647413768843       25.37314028879667       31.03891289780294
C           33.14453150180537       25.70475116256920       33.22934997065302
H           32.96545763063643       25.99431537259433       34.25757054492705
C           33.02317439756859       26.64562717678245       32.28410907957166
H           33.11745195613788       26.43185386174830       31.23562196983790
H           32.78717636205762       27.66250446710501       32.54545428846020
C           31.58868091924030       24.01276874545585       38.03266531720613
H           30.78713776478148       24.44770331560504       37.43565521940103
H           32.43249027121628       24.70362161695866       38.01399818036131
H           31.24166613539715       23.92632202489794       39.05816296985764
C           31.70088458751378       21.15044293509261       39.55870986471611
H           31.48598060110984       22.05739315870909       40.11645052873062
H           32.53090095440579       20.63771542703359       40.04359296906583
H           30.82709731291800       20.50052947940648       39.61262083544753
C           28.43238636424007       18.63374136354474       32.03165095888274
H           28.09912992967515       19.12445420527336       31.11793146754648
H           27.57602302782363       18.54222129751475       32.69874004154301
H           28.78750471115800       17.63887841877580       31.78271406599242
N           29.35506506530884       20.70072769547190       33.10061465328551
H           28.50767388967843       21.24078914410400       33.01962291350494
C           29.51856106799836       19.40872915201527       32.67655721306038
C           30.51617405303857       21.11396714594537       33.63688251172410
H           30.67692441363873       22.08971361367175       34.04948162226631
N           31.41776232473255       20.15863145290872       33.58091411122594
C           30.81037670946139       19.09035509952410       32.98509640576409
H           31.33470894042053       18.17226631507953       32.81831442972173
C           38.63864061179338       19.13942052320997       35.74669398293629
H           38.87579134942040       19.10823389519711       36.80948187394394
H           39.43482850357186       19.68145562943969       35.23778942435343
H           38.61121367070048       18.12337876359500       35.36623196154918
N           37.07516947892097       21.08807292074675       35.89931362496959
H           37.73049045662163       21.70407029918080       36.35483285639664
C           37.32979306290770       19.79667946085947       35.52071656443851
C           35.80904778969515       21.38202870725908       35.55593494074920
H           35.33844805948755       22.32840324359344       35.73168354197393
N           35.23661576036042       20.34973197394370       34.97758133063297
C           36.17082545500686       19.35464169923631       34.94839445542659
H           35.95135678798753       18.39716956392461       34.52260096314973
