78
 energy: -116.058060273220 gnorm: 0.000044003837 xtb: 6.7.1 (edcfbbe)
Fe          35.48060323405128        4.44782154305424       10.06455686774201
N           37.31809049022824        4.05869765744388        9.40233030317501
N           35.11249211111738        5.55378604977858        8.44735849944505
N           33.65525302542635        4.89561521338120       10.79181707951248
N           35.85504606142766        3.36410544655241       11.71983154373280
C           38.27910779256464        3.32466458656507       10.02153313322412
C           39.48758627193612        3.28518291068071        9.22587232822855
C           39.22844002266002        4.00895638957228        8.10534036682631
C           37.86664765846930        4.48290086055439        8.23417508405534
C           35.94560324140971        5.75335293815660        7.39274313017633
C           35.32319225235804        6.58775432233746        6.39545536369482
C           34.08069916409890        6.90092503733531        6.87697258748945
C           33.97216090993768        6.23287316752011        8.16120822993531
C           32.71313832616681        5.68112884596653       10.19763148540422
C           31.52183086460413        5.75000976930337       11.00210893880919
C           31.75461055626252        4.96694502908448       12.10308365772989
C           33.09867214864455        4.44795394666310       11.94790253930245
C           34.98948869954132        3.09473201148148       12.73527761608784
C           35.60088945270443        2.21789673581875       13.70778220913164
C           36.85880219334148        1.96243776758127       13.25547097661988
C           36.99665771347029        2.68265829824502       12.01075249670821
C           38.14008609773904        2.67316443233507       11.23326338370466
H           38.98452785399848        2.10732436814234       11.59640989653957
C           37.23359199225466        5.25930452068088        7.28580161176361
H           37.79469742765931        5.51741271333763        6.40072526186348
C           32.85848188673489        6.31337136549075        8.97436180661101
H           32.02696874834227        6.90483959934772        8.62284356174570
C           33.70632490000329        3.59483951376755       12.85068956267044
H           33.13350191997811        3.29028601808268       13.71288931419529
C           40.11493277509718        4.30294177757801        6.94425214169677
H           39.67631369950696        3.92393577152705        6.02077549932056
H           41.09048954360330        3.84089883239515        7.07472909723749
H           40.25625239195068        5.37820008224960        6.83495616258569
C           40.73432025733788        2.57208436126188        9.62475165832235
H           40.54584035203774        1.50510083065562        9.74908204834690
H           41.11116331180586        2.96075318462205       10.57095638978052
H           41.50839177827717        2.69650497105415        8.87161908040614
C           35.92742493158293        6.95291927446441        5.08479794727673
H           36.49059100529554        6.11634064568553        4.67387664547473
H           36.60896413148965        7.79809237499821        5.19344350547665
H           35.14757766504439        7.22938331652468        4.37798496767289
C           33.03700734185896        7.69681372229348        6.26977635269829
H           32.02191907057578        7.38119007617468        6.48300692871428
C           33.22917462196667        8.76148047791570        5.49763451822568
H           34.21121305999536        9.14967727136766        5.29180750617931
H           32.40239082534247        9.30064728368971        5.06550666642956
C           30.32557848086755        6.58098079845950       10.69343405924926
H           29.65983375314132        6.06427765311139        9.99993648370433
H           30.61925533607351        7.52562985892264       10.23804431237399
H           29.77218003618372        6.79158036724664       11.60647768579758
C           30.89519551743663        4.70276798261428       13.23542762015107
H           31.40075786301686        4.56092263982669       14.18383988094459
C           29.56945735581773        4.61604257399978       13.19539861694676
H           29.01683261266478        4.69987981948467       12.27609950091470
H           28.99039320584702        4.43007182425854       14.08477960628952
C           34.92573211813810        1.73236525836484       14.94443418003453
H           34.01332253215544        1.19034294888871       14.69505403849176
H           34.65511737138284        2.56972213989223       15.58842237276210
H           35.57736027739713        1.06704655610497       15.50557850403720
C           37.92975079096122        1.12318978160764       13.86410170535850
H           38.21395966546821        0.31391891885094       13.19075622073369
H           37.59336795898459        0.68622966744271       14.80105881879065
H           38.81844928383082        1.72204753929349       14.06476886691526
O           36.23041141583953        6.26769754740536       11.24166691485328
H           35.39302921847676        6.67450475141651       11.48950258396454
H           36.57067459572713        5.81971481147549       12.02377040844598
C           32.35357753279534        0.80369785764906        7.23353754667731
H           31.88419734158669       -0.00121620611398        7.79903259918698
H           32.75268757398065        0.38397931270181        6.31020855879573
H           31.59646622930256        1.53977307238280        6.98238519645777
N           34.52183244579310        0.75944689570626        8.48569071882674
H           34.70390224044060       -0.21965271127066        8.33807046575003
C           33.42928024763081        1.44850134810823        8.02825109226838
C           35.29981936210655        1.63031061956943        9.16723597716743
H           36.22438011131328        1.36834635133139        9.63893183288987
N           34.76655822467593        2.82789938188838        9.16900924043610
C           33.60296232785636        2.73078168511322        8.46397601048559
H           32.97251719317914        3.58329364152944        8.31897242831376
