78
 energy: -115.964418156756 gnorm: 0.275716847883 xtb: 6.7.1 (edcfbbe)
Fe          35.42300000000000        4.42100000000000       10.09000000000000
N           37.23499999999999        4.13100000000000        9.39900000000000
N           35.04400000000000        5.51800000000000        8.47400000000000
N           33.51400000000000        4.73700000000000       10.65900000000000
N           35.75800000000000        3.29200000000000       11.64300000000000
C           38.19800000000000        3.32500000000000        9.99300000000000
C           39.46500000000000        3.34100000000000        9.23700000000000
C           39.24099999999999        4.18600000000000        8.19000000000000
C           37.87100000000000        4.64300000000000        8.30400000000000
C           35.94500000000000        5.85600000000000        7.47600000000000
C           35.35800000000000        6.71200000000000        6.45200000000000
C           34.10500000000000        6.92100000000000        6.88700000000000
C           33.91100000000000        6.17900000000000        8.10100000000000
C           32.59200000000000        5.54100000000000       10.09000000000000
C           31.43300000000000        5.73300000000000       11.01600000000000
C           31.63300000000000        4.98600000000000       12.14600000000000
C           32.95700000000000        4.37700000000000       11.90400000000000
C           34.84400000000000        3.00100000000000       12.66900000000000
C           35.44000000000000        2.13900000000000       13.61900000000000
C           36.69000000000000        1.86600000000000       13.19600000000000
C           36.86300000000000        2.53600000000000       11.94600000000000
C           38.01700000000000        2.54200000000000       11.18100000000000
H           38.84400000000000        1.90900000000000       11.50300000000000
C           37.30600000000000        5.46800000000000        7.43200000000000
H           37.92800000000000        5.87200000000000        6.63300000000000
C           32.74300000000000        6.14800000000000        8.84600000000000
H           31.86800000000000        6.64100000000000        8.42200000000000
C           33.57000000000000        3.50900000000000       12.79500000000000
H           32.99500000000000        3.20300000000000       13.66900000000000
C           40.20000000000000        4.43200000000000        7.06400000000000
H           39.89200000000000        3.83600000000000        6.17800000000000
H           41.22300000000000        4.12300000000000        7.36800000000000
H           40.19300000000000        5.51000000000000        6.79400000000000
C           40.71800000000000        2.43800000000000        9.53400000000000
H           40.38399999999999        1.47400000000000        9.97500000000000
H           41.38799999999999        2.95200000000000       10.25600000000000
H           41.26500000000000        2.23200000000000        8.58900000000000
C           36.02799999999999        7.17000000000000        5.13000000000000
H           36.74500000000000        6.39300000000000        4.78900000000000
H           36.58000000000000        8.12000000000000        5.29800000000000
H           35.25300000000000        7.31400000000000        4.34700000000000
C           33.07000000000000        7.67800000000000        6.23300000000000
H           32.04300000000000        7.31800000000000        6.37600000000000
C           33.17300000000000        8.86200000000000        5.40100000000000
H           34.15400000000000        9.31200000000000        5.18900000000000
H           32.27100000000000        9.32300000000000        4.97200000000000
C           30.24000000000000        6.64000000000000       10.71300000000000
H           29.45500000000000        6.05700000000000       10.18600000000000
H           30.56300000000000        7.48000000000000       10.06200000000000
H           29.81900000000000        7.03600000000000       11.66200000000000
C           30.90600000000000        4.85100000000000       13.39100000000000
H           31.35500000000000        4.14300000000000       14.09400000000000
C           29.73400000000000        5.43500000000000       13.90700000000000
H           29.16900000000000        6.16900000000000       13.31400000000000
H           29.37000000000000        5.16400000000000       14.90900000000000
C           34.78500000000000        1.59600000000000       14.85700000000000
H           33.80000000000000        1.15600000000000       14.59300000000000
H           34.62800000000000        2.41600000000000       15.58900000000000
H           35.42400000000000        0.80500000000000       15.30400000000000
C           37.78399999999999        1.13400000000000       13.97200000000000
H           37.71700000000000        0.04400000000000       13.76800000000000
H           37.65000000000000        1.30500000000000       15.06100000000000
H           38.78200000000000        1.50100000000000       13.65000000000000
O           36.06700000000000        6.06700000000000       11.19400000000000
H           35.27400000000000        6.49200000000000       11.52100000000000
H           36.90300000000000        6.33100000000000       11.34000000000000
C           32.48700000000000        0.24100000000000        7.64900000000000
H           32.62200000000000       -0.71800000000000        8.19300000000000
H           32.49600000000000        0.03900000000000        6.55700000000000
H           31.51400000000000        0.68900000000000        7.94400000000000
N           34.91200000000000        0.85800000000000        7.74900000000000
H           35.21900000000000        0.04600000000000        7.25300000000000
C           33.59100000000000        1.16800000000000        7.99700000000000
C           35.69000000000000        1.79300000000000        8.26600000000000
H           36.77800000000000        1.79400000000000        8.21700000000000
N           34.91200000000000        2.69900000000000        8.83600000000000
C           33.60000000000000        2.33200000000000        8.67900000000000
H           32.79300000000000        2.93900000000000        9.07100000000000
78
 energy: -116.025484002730 gnorm: 0.104146976292 xtb: 6.7.1 (edcfbbe)
Fe          35.41212716797159        4.39120599809194       10.04638568612544
N           37.27241360135071        4.11900341649808        9.42783126537082
N           35.06122719850922        5.55176638728375        8.45438933567726
N           33.51018616988565        4.75953039779885       10.70127021907598
N           35.74316953468075        3.27399605667698       11.63543795801416
C           38.21183620372692        3.30687193550815       10.01059007453950
C           39.45742278203483        3.31034856561823        9.24604172016443
C           39.24851149561732        4.15926179002806        8.20057886214296
C           37.88710430001848        4.63747572761944        8.32287066562703
C           35.95738456452773        5.86732605640546        7.46297810935690
C           35.36451218895417        6.71365478355076        6.44900325532960
C           34.08283362323673        6.93383038682896        6.86815224922917
C           33.90187051644041        6.18248492181591        8.09938917643159
C           32.58250668725838        5.55345799136853       10.10882297280406
C           31.42655703435163        5.74145197862233       11.00143858275169
C           31.64237538674709        5.00139185352551       12.14116260467719
C           32.95446726884652        4.37576641931556       11.91037124481134
C           34.84870148147190        3.00060295936916       12.65795067062677
C           35.44508993900923        2.13036936941603       13.62191640495294
C           36.70822625846184        1.86948125703373       13.19912834841624
C           36.87049308083325        2.55968714354972       11.94632126097708
C           38.01988316522610        2.55383728111495       11.17460449191208
H           38.83953830770844        1.92281958025103       11.49709593435532
C           37.29799925694152        5.47638316512649        7.42391662225819
H           37.91203444932086        5.86986580497435        6.62343390237632
C           32.73572966813786        6.14933969835941        8.85514684343246
H           31.87057368197350        6.65069359923013        8.43690523634331
C           33.57178224300157        3.50944531577582       12.78871486189815
H           33.00853158349212        3.20495389224293       13.66335026055193
C           40.19256397176803        4.43326089548866        7.07150251570446
H           39.89854518358057        3.85140332982111        6.18702939240769
H           41.20644696223896        4.13539828328534        7.35772438943865
H           40.19807930078900        5.49470111759566        6.79692108590877
C           40.69011316297300        2.45332226128311        9.53439435108808
H           40.38499386571653        1.49474917308934        9.96702815720283
H           41.36691752671376        2.94917200513202       10.24141115690274
H           41.24377958931809        2.24581753048230        8.61087926362148
C           36.02314152937608        7.16047007655407        5.15612519235865
H           36.73242704332618        6.40396147870347        4.80179938783215
H           36.56785509785383        8.10209308851116        5.29980028407237
H           35.26467343299186        7.31153923966800        4.37791495427201
C           33.05537943844440        7.70624465319007        6.21157452844515
H           32.04143675777393        7.34331639194549        6.36983963198191
C           33.17672905582084        8.81670656118856        5.42551597688384
H           34.13339055813998        9.28363440048725        5.21394525691034
H           32.29717285656362        9.28900511289681        4.99610940240267
C           30.25032678269482        6.63317618464232       10.70442974366144
H           29.46385934238344        6.06648916786515       10.19050143861466
H           30.55488697425598        7.46979599518023       10.06833479437763
H           29.83379603655588        7.03171295615974       11.63497285450111
C           30.90177753790739        4.85545143216970       13.38442821429969
H           31.35373393204635        4.15171219344754       14.08264824463424
C           29.76715787688564        5.42211083424639       13.87113250105240
H           29.18583006931743        6.14967170932901       13.31648135067983
H           29.40055607731396        5.16686161717893       14.86391673067512
C           34.78407232427014        1.59837379456399       14.85405927296115
H           33.81092660263680        1.16052880630523       14.60274575814058
H           34.62611763001780        2.40069656187163       15.58507520072991
H           35.40821357531986        0.81990990568756       15.30384677175137
C           37.77970130834764        1.13197019334045       13.95994731444500
H           37.72335180992992        0.05330024166895       13.76944063756185
H           37.65555781114725        1.30014278551882       15.03593764135648
H           38.76822908700674        1.49179298235042       13.65948261122807
O           36.04220087130965        6.06509773899091       11.18325179200988
H           35.27483176295359        6.51247526701639       11.53746028645122
H           36.92285804518765        6.34808993627196       11.35268745967750
C           32.48399008529358        0.23494567722937        7.64272561538311
H           32.61028370934206       -0.71307383975100        8.17969041683452
H           32.48340989061428        0.03328403539324        6.56586698622591
H           31.52780639242784        0.67871425814701        7.93328351232707
N           34.90079503140146        0.84548922416189        7.74480227907423
H           35.21444198688735        0.03215368135653        7.24522241531593
C           33.58848667184356        1.15495778663687        7.99837242270512
C           35.67571126707033        1.80164812148317        8.27339112186385
H           36.75275325799655        1.80497708972088        8.22368799579881
N           34.91752975367277        2.70776307810920        8.85004376508230
C           33.61537645732148        2.32891432065988        8.68328935590604
H           32.81269586551569        2.93176693072487        9.06712974701026
78
 energy: -116.040262077600 gnorm: 0.037675947737 xtb: 6.7.1 (edcfbbe)
Fe          35.40861051517915        4.37127808762442       10.01918787535409
N           37.29931153805127        4.10833662365745        9.43990703055836
N           35.06892783222428        5.56403180265860        8.43709129710723
N           33.50034155884298        4.76381183721760       10.71722568837723
N           35.73193016693342        3.24981884150497       11.62930910347108
C           38.22174400708754        3.29215385539459       10.01746568188315
C           39.45057107815568        3.28633260726956        9.24756374654351
C           39.24977382853528        4.13889606916997        8.20370222140825
C           37.89598452881480        4.63346564031664        8.33273026322360
C           35.96347809619648        5.87526618627358        7.45890354654118
C           35.36109397478889        6.71313726891659        6.45252257871369
C           34.06551235021716        6.92975481436851        6.85742970368049
C           33.89901269400004        6.18205470915649        8.10254990728286
C           32.57864416358273        5.56858412778829       10.11997193741735
C           31.43002990461628        5.75112063252375       10.98716883656088
C           31.66005519970050        5.01155070016610       12.12700118232470
C           32.96249807933332        4.38359206500072       11.90885186418704
C           34.85190749461213        2.98868983067417       12.64075488489897
C           35.45045151196306        2.12064357474440       13.62151316979014
C           36.72276139668963        1.87533692752356       13.20222175191453
C           36.87420915760104        2.57127763220485       11.94425733101021
C           38.02372366650939        2.56185856352587       11.17253868049852
H           38.84131018852586        1.93951981679049       11.50593635044317
C           37.29016828214527        5.47843446951965        7.42260226745558
H           37.89782448022171        5.85352720778188        6.61331816417037
C           32.73873682138991        6.16089986329220        8.86664756703809
H           31.88132731686137        6.67563431440698        8.45711703121409
C           33.57832175233234        3.50939831136600       12.78019767198705
H           33.02675720394843        3.20861476337583       13.65919620069132
C           40.18697444581260        4.43369978695703        7.07837688583639
H           39.89838675389181        3.86506077883720        6.19201469133326
H           41.19919887484728        4.14680738895915        7.35148419618690
H           40.18874322463282        5.48844842284757        6.81395665049795
C           40.66132807625848        2.46051606384144        9.53629500000552
H           40.37909656840954        1.50271896424457        9.96801982638130
H           41.33370459151401        2.95975741236919       10.23500829860565
H           41.21843038570321        2.26366833893456        8.62174472997784
C           36.01254699523796        7.15557580877848        5.18395827504553
H           36.71811373183432        6.40772034881172        4.82618285391989
H           36.55621336025931        8.09163024552994        5.31716713480338
H           35.26184545179139        7.31106006797685        4.40999601582071
C           33.03708981265266        7.71087637055401        6.20388812492559
H           32.02934109149960        7.34934279968933        6.37853757106903
C           33.17976529596983        8.78182582065893        5.45164646057828
H           34.12618702638540        9.25031142060689        5.24009535627416
H           32.32055897706378        9.26432445224155        5.00997156947941
C           30.26229101168748        6.62929245610683       10.69306151463522
H           29.47402559095215        6.06984564975605       10.18781247455510
H           30.55325992042550        7.46315397268200       10.06040655662905
H           29.85011264975016        7.02985392765700       11.61433444700369
C           30.91501540120947        4.85332728660776       13.36670088843242
H           31.37469367129115        4.15183781614848       14.05699319498509
C           29.80271930584539        5.41748969974795       13.82581457806864
H           29.20423052930434        6.13491852515919       13.29235260460542
H           29.42956015210835        5.16779049522256       14.80941857935586
C           34.78365734710711        1.60045121391218       14.85084676583134
H           33.81628330230791        1.16489019516555       14.60632657879738
H           34.62389608840400        2.39618949806578       15.57824939218406
H           35.39802015633612        0.83044569130792       15.30872261407976
C           37.78095492384432        1.13130244890029       13.94646977208896
H           37.72517032711316        0.05920198988223       13.75905893400960
H           37.66093036524820        1.29297125520014       15.01642651669883
H           38.76787908923578        1.48148878553189       13.65942737183976
O           36.02698287719490        6.08381931082574       11.16781072988675
H           35.29419301367648        6.55186584325292       11.57424739446499
H           36.91791736455721        6.36595465707256       11.37415497633872
C           32.48002387924698        0.22990489471339        7.63569926298920
H           32.59515373524042       -0.71598657114196        8.16409128600631
H           32.47413926732981        0.03022090171072        6.56645745268163
H           31.53220449199162        0.67221917778470        7.92069218390901
N           34.89788871747193        0.84107872540422        7.75012347133237
H           35.22192268209958        0.03049602146351        7.24709117746640
C           33.58710715871580        1.14402390884088        8.00496401673029
C           35.66010117044048        1.81739222883963        8.28936557862042
H           36.72964379374865        1.82759109926979        8.23765973804215
N           34.90765696342320        2.71965917608025        8.87079690869407
C           33.61739495177959        2.32185927019310        8.69433683494802
H           32.81242664808847        2.91708481258437        9.06985902760200
78
 energy: -116.044336190198 gnorm: 0.020454533202 xtb: 6.7.1 (edcfbbe)
Fe          35.41195978009814        4.36934759720562       10.01391099520994
N           37.30559143260668        4.10495403300624        9.44084277004410
N           35.06909746286337        5.56442014982169        8.43753645994749
N           33.50682995057016        4.77196781106239       10.71675449269931
N           35.73237528486967        3.23600474795528       11.62335668700724
C           38.22394485486014        3.28621656987161       10.01644613909091
C           39.44384689848736        3.27251846315150        9.24081598651599
C           39.24499767349366        4.12675697467923        8.19887443474562
C           37.89476040845977        4.62612057133252        8.33121204392710
C           35.96027064747638        5.87351099334189        7.46006897009786
C           35.34966675816549        6.70982697031815        6.45856386377108
C           34.05296137670008        6.91544107943232        6.86035861282176
C           33.89850086689282        6.17772975371941        8.10927233922100
C           32.58631793650198        5.58150103390427       10.12407101902504
C           31.44071810774271        5.75925496261513       10.98148939446105
C           31.67818085450531        5.01521161958969       12.11572865255530
C           32.97318650739697        4.38421428114022       11.90056645467239
C           34.85514391114879        2.97644074307535       12.62898264408675
C           35.45550548965340        2.11415510331661       13.61889840716294
C           36.73053940704828        1.87831461227730       13.20331134321928
C           36.87919856737098        2.57388218370098       11.94426591202514
C           38.03087852282955        2.56681201228170       11.17896565158406
H           38.85238139229410        1.95689118946955       11.52472511787133
C           37.28364197627495        5.46992192962893        7.41924297781956
H           37.88619893230756        5.82928736652897        6.59851554641917
C           32.74488859154028        6.17425671370975        8.87581429632114
H           31.89487854398084        6.71301059385391        8.48060277753896
C           33.58513995661988        3.50286686940441       12.77083052906774
H           33.04195313131646        3.20901398069735       13.65611405675912
C           40.18256283056454        4.43822954861935        7.08045565794562
H           39.89830741115753        3.88175679230755        6.18550982330788
H           41.19792145216418        4.15801852210113        7.34765394759432
H           40.17454457118239        5.49681265088282        6.83399494795122
C           40.65348315500150        2.45936727415644        9.53963592774118
H           40.37869730317234        1.50057725493402        9.97319439502334
H           41.31154538165827        2.97214112483583       10.24182292135347
H           41.21629318074037        2.27032189305909        8.62808516118197
C           36.00275385484326        7.15804163778225        5.19940090995355
H           36.70782971263525        6.40977921414211        4.84267560354586
H           36.54753120477597        8.09165267893439        5.34113848897568
H           35.25168229341689        7.31874146605841        4.42861751360522
C           33.01536877582718        7.68921012983180        6.21330376657302
H           32.00624871491931        7.33468370672554        6.39342128776960
C           33.18256203973211        8.76602462506998        5.45177979882517
H           34.13742403265181        9.22335740691439        5.26191864803280
H           32.33548580950357        9.26800768239499        5.00960049614113
C           30.27180631522566        6.63006494698561       10.67889460810427
H           29.48353157073328        6.06534124888647       10.17962668762632
H           30.55755031712666        7.45903792962689       10.03718982543047
H           29.86157366511357        7.04003420871752       11.59589984624404
C           30.93529717785672        4.84595347618587       13.34755557276725
H           31.39950511238288        4.14775433268138       14.03558730157778
C           29.81357982327279        5.41109380035733       13.78378955759627
H           29.22000302674944        6.12399500584417       13.24296073807103
H           29.43722233334896        5.17025171561047       14.76605972559535
C           34.78397139275846        1.60255431917874       14.84848199970635
H           33.81684977884949        1.16673043226510       14.60475413386300
H           34.62102894926981        2.40258997602217       15.57028628379019
H           35.39385713266256        0.83602520459565       15.31798438333323
C           37.78788454956432        1.12491887769218       13.93548399184388
H           37.72705165471061        0.05506367764483       13.73722788453161
H           37.67150247809838        1.27574891053412       15.00696746536963
H           38.77759663790084        1.47056818955702       13.65243910889312
O           36.01749198214348        6.12737198709496       11.14580685251925
H           35.31168088911901        6.58074413477730       11.62715770922858
H           36.90978468207062        6.38070160542128       11.40702340259990
C           32.47402766840079        0.22658881458176        7.62830302222096
H           32.57735585029593       -0.72636422224035        8.14660563338911
H           32.47260749697424        0.03497930479306        6.55748971010788
H           31.52531033172789        0.66997529375615        7.90749095337337
N           34.89382560685109        0.84290999642670        7.76383363722643
H           35.22623137346029        0.03772693711536        7.25673582600089
C           33.58046659420484        1.13677473006421        8.01677387315547
C           35.64633165348703        1.82699132218571        8.30959762513471
H           36.71445057830853        1.84756105524352        8.25580348409586
N           34.88972811286477        2.72246473944886        8.89497151163777
C           33.60409841689972        2.31123146546715        8.71399815735230
H           32.79299989954433        2.89804206463612        9.08787161640453
78
 energy: -116.046581806992 gnorm: 0.038320196078 xtb: 6.7.1 (edcfbbe)
Fe          35.41297162432494        4.37293756412300       10.01198701104297
N           37.30342748274901        4.09849142635434        9.43653473488105
N           35.06578581337723        5.55200707156715        8.43506625403574
N           33.51662947622189        4.77590850528324       10.70912153640013
N           35.74052433819497        3.23325719106172       11.62241264169809
C           38.22331327337461        3.28129541295123       10.01195507544331
C           39.43692834354803        3.26100986530250        9.23184317726476
C           39.23694945886936        4.11284282141656        8.18904532058121
C           37.88826256982804        4.61254329105989        8.32383589465183
C           35.95412197864479        5.86481018953651        7.45796120824842
C           35.33835226093912        6.70513024740540        6.46217240445682
C           34.04400068999384        6.90150250116534        6.86520737203316
C           33.89944731020035        6.16765412714643        8.11267077005974
C           32.59784579317196        5.59327367738898       10.12541519169945
C           31.45442357944848        5.76682363999013       10.97819879344384
C           31.69408838770808        5.01379689766276       12.10546246110078
C           32.98560463411505        4.38402847288464       11.88999449494824
C           34.86172861560829        2.96900384661730       12.62064319339949
C           35.46285006720994        2.10862769963957       13.61636148965821
C           36.73983600522665        1.88338688985762       13.20530183186875
C           36.88761299087179        2.57952874528394       11.94600880523243
C           38.04095234762872        2.57410762449466       11.18681284954635
H           38.86841179814627        1.97926959830094       11.54461567921105
C           37.27454995585796        5.45261490980182        7.41086978970014
H           37.87360802258784        5.79810356471840        6.58122357082270
C           32.75463696865972        6.19100514959764        8.88407022826020
H           31.91509721462568        6.75880889177772        8.50577368232960
C           33.59442570574104        3.49827339976553       12.76215595168894
H           33.05746236823441        3.20467487819475       13.64989972157585
C           40.17622626456679        4.44546371328926        7.07959627037577
H           39.89950601364539        3.90524980267356        6.17152678911802
H           41.19507316888167        4.17160047332984        7.34302579507425
H           40.15564089874521        5.51099623978856        6.85783057543686
C           40.65219292930438        2.45793952618497        9.54328650903094
H           40.38305773807206        1.49710561866904        9.97703409191343
H           41.29182821169207        2.98349377879965       10.25472784249802
H           41.22795983035778        2.27502711308036        8.63833867919534
C           35.99384236658236        7.16344239730623        5.20882322134215
H           36.69787788530891        6.41480968831671        4.84928200309583
H           36.54199148993696        8.09328625889901        5.36693725333781
H           35.24318462551432        7.33534160223998        4.43998530526246
C           32.99708210942119        7.66924836352513        6.23022084748262
H           31.98672303007803        7.31910063247700        6.40282900546446
C           33.17858767172190        8.75067113079308        5.47286844989316
H           34.14808615015431        9.17626078464172        5.28781926340306
H           32.34436948696750        9.25457974718454        5.01148935848289
C           30.28562659754610        6.63415290093383       10.66281930141612
H           29.49670417942081        6.05836538561286       10.17494253663332
H           30.56990304431703        7.45016152022083       10.00167013012106
H           29.87736650198638        7.06649962251844       11.57135487188017
C           30.95331561624755        4.83758038173819       13.32915666172594
H           31.41929535609153        4.14786553121392       14.02114805346658
C           29.81963818945382        5.40563938735662       13.73979411230377
H           29.23182557371607        6.10156871855168       13.17293600800598
H           29.42797089281352        5.16684290150166       14.71574825321531
C           34.78452178633018        1.60500706874235       14.84486235760223
H           33.81724632289763        1.16837836067775       14.59920037396046
H           34.61785913762413        2.41309078688835       15.55883066622355
H           35.39049083780962        0.84199465101330       15.32778201330149
C           37.79732257024542        1.11451526502188       13.92229761867231
H           37.72790122825857        0.04786357276234       13.70261747387642
H           37.68670319616380        1.24558372154876       14.99802369423620
H           38.79020270787377        1.45679717840079       13.64171465514219
O           36.00941293809500        6.20016596003496       11.10220583382607
H           35.33920059418631        6.60085271312149       11.70071866817778
H           36.89750760963248        6.38793178258945       11.47812100325699
C           32.46621208799908        0.22597453505926        7.62110875692485