78
 energy: -115.934995856216 gnorm: 0.339518747746 xtb: 6.7.1 (edcfbbe)
Fe          -5.70800000000000       57.10800000000000      111.86300000000000
N           -6.53300000000000       56.18300000000000      113.51099999999998
N           -6.74000000000000       58.83300000000000      112.40100000000000
N           -4.92800000000000       58.05799999999999      110.21599999999999
N           -4.77800000000000       55.35100000000000      111.27900000000000
C           -6.35400000000000       54.89500000000000      113.83900000000000
C           -6.90200000000000       54.62400000000000      115.07799999999999
C           -7.41000000000000       55.82999999999999      115.54999999999998
C           -7.15000000000000       56.75400000000000      114.54899999999999
C           -7.36400000000000       59.06600000000000      113.55500000000001
C           -7.88000000000000       60.37000000000000      113.58799999999999
C           -7.47700000000000       60.96600000000000      112.38699999999999
C           -6.68600000000000       60.01000000000000      111.74700000000000
C           -5.09900000000000       59.35400000000000      109.86799999999999
C           -4.33300000000000       59.70600000000000      108.75399999999999
C           -3.60000000000000       58.54399999999999      108.45999999999999
C           -4.03600000000000       57.56200000000000      109.35899999999999
C           -4.01700000000000       55.17000000000000      110.20099999999999
C           -3.73100000000000       53.82000000000000      110.02500000000001
C           -4.30100000000000       53.17600000000000      111.10899999999999
C           -4.93400000000000       54.15799999999999      111.85800000000000
C           -5.65600000000000       53.95900000000000      113.04699999999998
H           -5.68000000000000       52.93200000000000      113.41000000000000
C           -7.51800000000000       58.10800000000000      114.57399999999998
H           -7.98000000000000       58.46100000000000      115.49600000000000
C           -5.93600000000000       60.23399999999999      110.57599999999999
H           -6.01600000000000       61.23599999999999      110.15799999999999
C           -3.62800000000000       56.21600000000000      109.35800000000000
H           -2.90400000000000       55.95000000000000      108.58899999999998
C           -8.17600000000000       56.08100000000000      116.84800000000000
H           -8.28600000000000       55.12599999999999      117.40500000000000
H           -9.18600000000000       56.48100000000000      116.61599999999999
H           -7.61700000000000       56.80399999999999      117.48000000000000
C           -6.88700000000000       53.27799999999999      115.76200000000000
H           -5.90200000000000       52.79000000000000      115.59900000000000
H           -7.68400000000000       52.63200000000000      115.33599999999998
H           -7.04700000000000       53.41000000000000      116.85299999999999
C           -8.76400000000000       60.90200000000000      114.70599999999999
H           -8.29200000000000       60.68400000000000      115.68800000000000
H           -9.75800000000000       60.40699999999999      114.66600000000000
H           -8.88300000000000       62.00100000000000      114.59999999999999
C           -7.81900000000000       62.18900000000000      111.78899999999999
H           -7.22600000000000       62.51200000000000      110.92200000000000
C           -8.87400000000000       63.08499999999999      112.18500000000000
H           -9.51900000000000       62.84300000000000      113.04199999999999
H           -9.04700000000000       64.02200000000001      111.63499999999999
C           -4.27800000000000       61.08299999999999      108.08100000000000
H           -4.46500000000000       61.87400000000000      108.83900000000000
H           -5.05900000000000       61.14700000000000      107.29300000000001
H           -3.27300000000000       61.24300000000000      107.63400000000000
C           -2.64000000000000       58.28700000000000      107.46199999999999
H           -2.05500000000000       57.36400000000000      107.56600000000000
C           -2.31200000000000       59.08600000000000      106.29700000000000
H           -2.84100000000000       60.02999999999999      106.10100000000000
H           -1.53100000000000       58.75700000000000      105.59600000000000
C           -3.00400000000000       53.14900000000000      108.86400000000000
H           -1.91500000000000       53.11400000000000      109.07899999999999
H           -3.16900000000000       53.73000000000000      107.93199999999999
H           -3.37900000000000       52.11100000000000      108.73600000000000
C           -4.24900000000000       51.68300000000000      111.38699999999999
H           -3.31000000000000       51.26100000000000      110.97000000000000
H           -5.11500000000000       51.18099999999999      110.90500000000000
H           -4.26800000000000       51.50400000000000      112.48299999999999
O           -4.42000000000000       57.51600000000000      113.05700000000000
H           -4.69800000000000       57.12900000000000      113.88699999999999
H           -3.67500000000000       57.98099999999999      112.91599999999998
C           -9.19300000000000       55.25500000000000      107.88500000000001
H           -9.61300000000000       55.98799999999999      107.16300000000000
H          -10.00400000000000       54.57300000000000      108.21899999999998
H           -8.39100000000000       54.67399999999999      107.38200000000001
N           -9.23500000000000       56.80800000000000      109.94799999999999
H          -10.18900000000000       57.08900000000000      109.84999999999998
C           -8.61100000000000       56.00399999999999      109.09799999999998
C           -8.43300000000000       57.17300000000000      110.91599999999998
H           -8.71500000000000       57.81800000000000      111.74700000000000
N           -7.26600000000000       56.62899999999999      110.69599999999998
C           -7.32500000000000       55.90999999999999      109.59199999999998
H           -6.45700000000000       55.37700000000000      109.22399999999999
78
 energy: -116.010084841280 gnorm: 0.141963676579 xtb: 6.7.1 (edcfbbe)
Fe          -5.74505506527615       57.09788292318996      111.83815725343935
N           -6.51888938668140       56.18873651977092      113.49334737475822
N           -6.68565572315146       58.83133246634543      112.41118366644808
N           -4.91752459790458       58.06055456554048      110.24084043599780
N           -4.78348765126932       55.37595768026535      111.29506032339376
C           -6.34367489198417       54.88824165503946      113.82417111895928
C           -6.90771023756490       54.61912918317817      115.09352400899579
C           -7.41906075272745       55.81604041634421      115.55823567234260
C           -7.15644773311363       56.76693549844449      114.53876639689757
C           -7.36092746997501       59.05602948120752      113.56109023970716
C           -7.89429317913327       60.37548530971465      113.58791182172585
C           -7.49742807410795       60.97677566621634      112.39546157795895
C           -6.68255766629005       60.00264319284115      111.72933757706042
C           -5.10753373693363       59.35826410171199      109.88192172258060
C           -4.32370936246301       59.70826406044795      108.74989185293177
C           -3.59832859245582       58.55663077179949      108.43265412265076
C           -4.02403453250453       57.55532957732382      109.36874295052655
C           -4.02531650824139       55.18763140221566      110.19436498909799
C           -3.72816406692512       53.80562419767176      110.02402926160067
C           -4.29545948049388       53.16280152186845      111.10033678752350
C           -4.94819552057680       54.16441601144531      111.86905280672315
C           -5.65883405043077       53.95157525662556      113.04632884742607
H           -5.67858356934898       52.93178042200131      113.41021289413754
C           -7.52439034086190       58.11145522727767      114.57632672770745
H           -7.98782286365876       58.45837145713338      115.49182497122595
C           -5.94820134547991       60.23445386376074      110.56990994649315
H           -6.01405323619254       61.23298806698883      110.15812183783072
C           -3.62139403247939       56.21846020226486      109.35239525240235
H           -2.91002030958520       55.94335468109492      108.58397778649910
C           -8.16821963076523       56.07464431714535      116.84039357398169
H           -8.28583103561695       55.14089261891214      117.39991146268299
H           -9.16631986794544       56.47548979813333      116.62167304309010
H           -7.62834234152913       56.79440660044608      117.46971627589200
C           -6.88878164054410       53.28222998279695      115.76658512011134
H           -5.91900887675382       52.79444384613527      115.60765479321215
H           -7.67273545264296       52.63737896630099      115.34865076982337
H           -7.04886305593238       53.39920902376736      116.84250113375478
C           -8.75626447469259       60.90182651932474      114.70073442011989
H           -8.29935045690512       60.68541004525072      115.67441446623624
H           -9.74303207840776       60.41997535535794      114.66846695694096
H           -8.87888485261625       61.98381812341548      114.61325918568090
C           -7.84291032381545       62.22646683361307      111.80924487846217
H           -7.25441060199094       62.52368053750802      110.93995787759872
C           -8.84966795396175       63.07054997768864      112.17830426685207
H           -9.50722942149859       62.84471622302255      113.00914217007181
H           -9.03287451129802       63.99451108075269      111.63993052591692
C           -4.27627960594481       61.06764059782495      108.09237793024509
H           -4.46233313092420       61.85983558199262      108.82789961656988
H           -5.04186341491340       61.14281359416508      107.30721668876271
H           -3.29104556547952       61.24091722559442      107.64622746475906
C           -2.62600432935395       58.31124764907283      107.42207434043381
H           -2.05492256517282       57.38974210158115      107.54204066015329
C           -2.31929198717016       59.07029627046594      106.32541801534866
H           -2.83588915934354       59.99751106238938      106.10691011815339
H           -1.55027832160296       58.75590125836571      105.62638901967328
C           -3.00471864984753       53.15463424307239      108.87386173576674
H           -1.92610947312856       53.11404705607954      109.07332442334165
H           -3.16575274591120       53.71870869251692      107.94769416370168
H           -3.37088323654171       52.13088241110194      108.73543022106571
C           -4.24658902844000       51.68820108616882      111.38440669819728
H           -3.32342923163590       51.26202062441119      110.97704418856783
H           -5.10219188257197       51.18390587548572      110.91639997496777
H           -4.26999255638515       51.50255059034382      112.46414738385593
O           -4.40711287228352       57.51512182500996      113.06348336946137
H           -4.67101326268117       57.13900338903638      113.90826078470674
H           -3.61894064681584       58.00813921850558      112.92863752744600
C           -9.19518604569849       55.26595746537818      107.88907906927319
H           -9.61160497346233       55.97954251802613      107.16894614460564
H           -9.99169166644826       54.58429889002942      108.21201902871303
H           -8.40660873447153       54.68837496769566      107.39734612522160
N           -9.26365107154106       56.79662793592573      109.93134757197502
H          -10.21955795763746       57.08302775860578      109.83433533097357
C           -8.60858802257017       55.98348653724774      109.07671562189381
C           -8.44244024233849       57.17040971155498      110.91242483678863
H           -8.71725721700245       57.80762268643410      111.73374432633334
N           -7.26619629468269       56.63206655011442      110.70297889671212
C           -7.33024366246197       55.90102089326589      109.58478946952341
H           -6.46685189080976       55.37664850323616      109.22130810733807
78
 energy: -116.031095234448 gnorm: 0.051396031293 xtb: 6.7.1 (edcfbbe)
Fe          -5.76192184938276       57.09702519196739      111.82555889827194
N           -6.51467873110287       56.18923868499797      113.47066065481800
N           -6.64741067653264       58.82536569804552      112.41425728021379
N           -4.91002682117329       58.05973205927819      110.26338104475188
N           -4.80864707521688       55.39583959811188      111.29704109115106
C           -6.33845650971519       54.88375192138019      113.80751216345654
C           -6.91223183086667       54.61902106253660      115.10019059673134
C           -7.42517394362560       55.80357000477078      115.55358571041003
C           -7.16371819031613       56.77356561052562      114.52002141484735
C           -7.35272739205675       59.04345259291371      113.56075768707952
C           -7.90266786202560       60.37295176910917      113.57919621017120
C           -7.51509629027967       60.97136857085734      112.39797767659530
C           -6.67940653635987       59.99142421982111      111.71664598660747
C           -5.11207795189324       59.35724380132189      109.89990749558689
C           -4.31518726205744       59.70220006887828      108.75280550560808
C           -3.60268562530277       58.56408432768948      108.42317013667191
C           -4.01795777444594       57.54877009189569      109.38107989184951
C           -4.04168217292796       55.20567777859532      110.18994509580541
C           -3.73190402614104       53.80236842462708      110.02766165254276
C           -4.29480924466566       53.16166657275002      111.09299918221758
C           -4.96787255638281       54.17448207453783      111.87246016336242
C           -5.66408466557901       53.94360042676520      113.04401764018334
H           -5.67584476369421       52.92816746273515      113.41096349981029
C           -7.53030000446514       58.10917214898456      114.57265375954189
H           -8.00750140391525       58.44864016860869      115.48034861439841
C           -5.95710539980051       60.23554741344984      110.56522374000205
H           -6.02085881979590       61.23049301071525      110.15159268144473
C           -3.61891784210920       56.22001317511845      109.34688049064894
H           -2.92160121383622       55.93491587413668      108.57276142052444
C           -8.15907413512028       56.06951822918427      116.82682614412929
H           -8.28207088411974       55.15069916961897      117.39369501039886
H           -9.15043965601154       56.47300789421420      116.61954703432004
H           -7.62928180192247       56.78893484304972      117.45223422231203
C           -6.89146043464779       53.28811201389874      115.77029875904952
H           -5.93085238452768       52.79950736670490      115.61728651868610
H           -7.66683455109433       52.64099385880503      115.35887311541228
H           -7.05548596179570       53.39154024789015      116.83850905024947
C           -8.74572051610397       60.89819121392894      114.69249406587940
H           -8.29659747322353       60.67700341839910      115.66007167116530
H           -9.73257848651587       60.43151427223732      114.66950570333111
H           -8.86768567339047       61.97230812022197      114.62213192057155
C           -7.86199968543000       62.24502719638089      111.81973824116264
H           -7.26176735801572       62.52940196248455      110.96113340984033
C           -8.83754981563821       63.05871698336845      112.17269129335962
H           -9.50901350775024       62.85029055881671      112.98548893779780
H           -9.02043474830220       63.97978907234069      111.64563951626928
C           -4.27388841048600       61.04888217060444      108.10706062683791
H           -4.46397055651313       61.84063588583673      108.82958047743919
H           -5.02823911267347       61.12890920194235      107.32083993444191
H           -3.29964376656493       61.23294719296141      107.66255704223023
C           -2.61958771353190       58.32561354264035      107.39788100938542
H           -2.05613913289138       57.40704368964257      107.53337937481423
C           -2.33201629130555       59.05825933972163      106.34218331969994
H           -2.83929055464430       59.97487525589309      106.10222248437896
H           -1.56094633010600       58.76055641784363      105.64988372221893
C           -3.00571867398025       53.16681557507571      108.88668864039155
H           -1.93236541962453       53.12236327564363      109.07530683777348
H           -3.16442999099359       53.71963782034402      107.96333002312755
H           -3.36345599852374       52.14963684401906      108.73894725354367
C           -4.24666120226397       51.69855907150824      111.38353285547421
H           -3.33375496531705       51.26520645038396      110.98209636251738
H           -5.09564659451402       51.18810311079440      110.92622814172834
H           -4.27323203202135       51.50730726256202      112.45334070042429
O           -4.35128001449930       57.51693834874552      113.07306491700596
H           -4.59989565952642       57.17443421147740      113.93996148244612
H           -3.55492030176455       58.03439395029278      112.95823178039399
C           -9.19498369521775       55.27487916738468      107.89281749568765
H           -9.61203076114508       55.97963962404132      107.17671472162785
H           -9.98625084294759       54.59487090384822      108.20647307662544
H           -8.41840359848139       54.69772886281630      107.40193397531310
N           -9.29241844347064       56.78020083203709      109.91603303953248
H          -10.25104671768065       57.06680796483758      109.81648793112642
C           -8.60303039875852       55.96483577852367      109.06434020008578
C           -8.45812786857340       57.16665258077230      110.90407156656420
H           -8.73235406827333       57.79972286492568      111.71773915939821
N           -7.26759163172787       56.64684299159305      110.71312356994419
C           -7.33583299637029       55.89942798843759      109.58508444290469
H           -6.47544474633220       55.37836559617969      109.22344183567760
78
 energy: -116.038690777261 gnorm: 0.035516272352 xtb: 6.7.1 (edcfbbe)
Fe          -5.75534694572108       57.10046286181608      111.83019830520610
N           -6.51039240668406       56.18593446000130      113.45885487887320
N           -6.62487058931223       58.82228975286291      112.41715208759688
N           -4.90304207843378       58.05708347964480      110.28027947886905
N           -4.83450196236019       55.40210197861824      111.29175282077877
C           -6.33883474543707       54.87980969193622      113.79826511436417
C           -6.91559693301370       54.61667239861821      115.09888644099989
C           -7.43020302005687       55.79635966819602      115.54322589157962
C           -7.16785948670266       56.77117957261107      114.50460403052391
C           -7.34452544135240       59.03508935169362      113.55779461183124
C           -7.90427237475354       60.36553108663390      113.57214672239392
C           -7.52019065519245       60.96245629458416      112.39693680858704
C           -6.67554221814492       59.98374298320639      111.71294610628745
C           -5.10897271885697       59.35242865114613      109.91446687891472
C           -4.30797315220413       59.69377235989446      108.76264461962624
C           -3.60404288724167       58.56144309543458      108.42971742476637
C           -4.01643341053118       57.54340951327722      109.39191099262733
C           -4.05997702398895       55.21303826840755      110.18770861948872
C           -3.73979758361388       53.80551003298964      110.03024148667464
C           -4.30176433624101       53.16425916959253      111.08912169702570
C           -4.98672091325268       54.17879870276504      111.86798896353446
C           -5.67229514835978       53.93521774561383      113.04007995286233
H           -5.67481484912992       52.92129653340049      113.41027937767822
C           -7.53825944081537       58.10176654579742      114.56430901499596
H           -8.04007068893905       58.43282951225631      115.46209207113812
C           -5.96058680320818       60.23407993802911      110.56133745679662
H           -6.03407116537276       61.22364132101286      110.13766395060168
C           -3.62460955646352       56.21684693142601      109.34334741666119
H           -2.94039794522677       55.92366902761921      108.56056567975914
C           -8.15467928764187       56.07011562869318      116.81556209806246
H           -8.27769987280547       55.15661395965097      117.38960041758266
H           -9.14436664233305       56.47608518691651      116.61222079208028
H           -7.62056989312473       56.79183731224452      117.43243276720442
C           -6.89578543163558       53.28917734899648      115.77397230556087
H           -5.93517135611543       52.80109962783654      115.62968281808527
H           -7.66742704660956       52.63873443434026      115.36338924768712
H           -7.06758828067339       53.39023376131105      116.84089208806296
C           -8.73480093551799       60.89108928422414      114.69141682479675
H           -8.28406656254430       60.65333016085515      115.65306268658006
H           -9.72900893411190       60.44191145550544      114.67010721061732
H           -8.84175363552775       61.96727826017980      114.63709300156734
C           -7.86026782742715       62.24743190145568      111.82468481290816
H           -7.24847654614059       62.53421620516125      110.97816682691378
C           -8.84851437800745       63.06269514102399      112.16795462136427
H           -9.54615760193692       62.85307268713603      112.95763236832754
H           -9.01554233696943       63.98827747428483      111.64577179559576
C           -4.26981171041227       61.03701110563334      108.12236964418797
H           -4.46991020082206       61.82517622528730      108.84377504600140
H           -5.01761757887620       61.11145309680345      107.33115909632001
H           -3.29475258917508       61.22654669330456      107.68491358431118
C           -2.61813469736144       58.32391177781505      107.39926805001116
H           -2.04795461679078       57.41321065179135      107.54051314647599
C           -2.33765403819931       59.06368062734001      106.33422768658194
H           -2.86091739074194       59.96515357209726      106.07634906441697
H           -1.55983757165354       58.77279012433878      105.64850455595952
C           -3.00211301148876       53.18117648079477      108.89494555828288
H           -1.92998479661985       53.14179147558092      109.08591736726234
H           -3.16127109078025       53.73338693124034      107.97304606937081
H           -3.35267877127100       52.16320852469304      108.74203893127813
C           -4.25034025477730       51.70498228614393      111.38573187231390
H           -3.33900341191102       51.26892836834006      110.98559102689443
H           -5.09867641890909       51.19032492445979      110.93381420630183
H           -4.27669552704494       51.51628979654333      112.45457525629685
O           -4.26845787327275       57.51002710370495      113.07671237549570
H           -4.51269578760885       57.22925433724637      113.97149586053810
H           -3.48833757183605       58.06786848058917      112.97961469350376
C           -9.19554312086828       55.27587857594120      107.88858614614587
H           -9.61344497729526       55.98750496864823      107.18063448639168
H           -9.98904747531963       54.59759720334229      108.19753458857012
H           -8.42463774299525       54.69929138061944      107.39075387581373
N           -9.31632609672962       56.76222151586949      109.90821207349912
H          -10.27873829217741       57.03910363648549      109.80266506976191
C           -8.60277312829991       55.95271961732844      109.06255000228813
C           -8.48199307333814       57.16344499379459      110.89716187845504
H           -8.76590930135897       57.79682579946298      111.70614045010052
N           -7.27903151010912       56.66308553651053      110.72193634675045
C           -7.34197731827848       55.90505717185574      109.59078783319032
H           -6.47989000394440       55.38617625749199      109.23031257318823
78
 energy: -116.045100563768 gnorm: 0.046137193980 xtb: 6.7.1 (edcfbbe)
Fe          -5.74688358455197       57.10180951334564      111.83342550660016
N           -6.49767118063279       56.18334935717200      113.45114788659407
N           -6.60301429939550       58.81933736527215      112.42087754975054
N           -4.89679139431425       58.05135136922338      110.29441737944983
N           -4.86480916501929       55.40476474440381      111.28188362352334
C           -6.33601434102055       54.87760006769710      113.79141333554927
C           -6.91793515691851       54.61363832338812      115.09508161141981
C           -7.43517325762334       55.79038950764133      115.52990056432409
C           -7.16656484734525       56.76689352330588      114.48885319143211
C           -7.33451897465347       59.02643042549375      113.55371780813003
C           -7.90574737687554       60.35424469654601      113.56382989374482
C           -7.52771973723676       60.94900388104950      112.39085536909359
C           -6.67018058842413       59.97553081401332      111.71177830917034
C           -5.10219965420707       59.34519084853268      109.92998445402044
C           -4.30147011596809       59.68474201522239      108.77423953724116
C           -3.60599711506414       58.55550314495078      108.43704615701147
C           -4.01677443857921       57.53675431156955      109.39982225716241
C           -4.08185155782461       55.21774451520853      110.18465481072725
C           -3.75041019246894       53.81048298086422      110.03141503488101
C           -4.31239956784048       53.16778638053273      111.08518175718133
C           -5.00762641105111       54.18235682838464      111.85967885373029
C           -5.68111449902270       53.92572578019131      113.03525722296590
H           -5.67704362199961       52.91257462352586      113.40654227411933
C           -7.54878695759668       58.09106846683339      114.55291957088863
H           -8.08384897142034       58.41104471721182      115.43635651898084
C           -5.96276266031028       60.23069688286253      110.55637112480213
H           -6.05561675536748       61.21080541639235      110.11495112147196
C           -3.63535463189832       56.21021338844350      109.33574018149014
H           -2.96418247542094       55.90968267238244      108.54539012678870
C           -8.15269573705722       56.07591143687407      116.80288509139110
H           -8.27404728831546       55.16628049965293      117.38554542428584
H           -9.14250560620815       56.48429671740649      116.60257387631725
H           -7.60816757515368       56.80058732116342      117.40857962940566
C           -6.90112570182330       53.28832693880726      115.77580865425689
H           -5.93669976622411       52.80197392352264      115.64549932641994
H           -7.66868815315690       52.63348607347296      115.36193608724145
H           -7.08565492436585       53.39371089524318      116.84225959944635
C           -8.72402547025589       60.88522491142731      114.68871993661246
H           -8.27102993287759       60.62535168443734      115.64518288628348
H           -9.72927210167694       60.45907153545901      114.66776073090801
H           -8.80670940423787       61.96650875960940      114.63860599698766
C           -7.86176837639244       62.24092873838577      111.82679372443785
H           -7.22611102858912       62.55156336577282      111.00814143563794
C           -8.86265815343987       63.05344985204767      112.16359375721134
H           -9.57445000224302       62.83834069170018      112.93855873190574
H           -9.00406576162093       63.99092747342779      111.65081757116650
C           -4.26350776183671       61.02837808341273      108.13871314938581
H           -4.47720992283893       61.81212853908152      108.86161298196333
H           -5.00335144841330       61.09541072965995      107.33885185807179
H           -3.28272849540327       61.21992254626473      107.71166013305771
C           -2.61894258782346       58.32149497797208      107.40466360408480
H           -2.02587547129745       57.42870025692869      107.55160369424092
C           -2.35485934090123       59.06269343330430      106.32852492950907
H           -2.89458303979813       59.95173196344642      106.06385317837412
H           -1.56340130967838       58.78023981975480      105.65376324477434
C           -2.99536451099366       53.19935171215056      108.90119967880591
H           -1.92392905365897       53.17271185443038      109.10239023904764
H           -3.15461241213435       53.75408173141656      107.98004305142538
H           -3.33344753183272       52.17670178274184      108.74281783649066
C           -4.25718155511646       51.71083031389833      111.39054741151625
H           -3.34572751337855       51.27361608812833      110.98876185572381
H           -5.10756211234953       51.19194726242164      110.94479524443959
H           -4.27877295811891       51.52910778445606      112.46158937425457
O           -4.13937050663352       57.47068296881001      113.07758433758831
H           -4.39965129113231       57.32110106968346      114.01545183077131
H           -3.41680241230580       58.12979524915416      113.02305707120753
C           -9.19846907491439       55.27340031655915      107.88026903259195