78
 energy: -116.058077863694 gnorm: 0.000177662593 xtb: 6.7.1 (edcfbbe)
Fe          -5.69142560069479       57.10027026579044      111.83107260363762
N           -6.45541325287548       56.17581133793649      113.44832557214031
N           -6.55343075159685       58.82321819091639      112.42703814713684
N           -4.88939160693115       58.03880664402084      110.26614787566822
N           -4.80033063313756       55.40389271007582      111.28877986135720
C           -6.33000079478231       54.86096055275106      113.77115706538707
C           -7.05937399450664       54.55974813792110      114.98171363752382
C           -7.63406915611028       55.72583653566183      115.38359986327926
C           -7.25070044503177       56.72318374786828      114.41025133639901
C           -7.33525727296307       59.01559353272778      113.52778652414212
C           -7.81523181557736       60.37077113598659      113.58472838782694
C           -7.31702491667104       61.00305862361922      112.47481865788370
C           -6.52459455781174       60.01409847138373      111.77247017714484
C           -5.07176483140207       59.33965296994099      109.91093824128195
C           -4.35024171540483       59.64785821359985      108.70123725065945
C           -3.72124346359400       58.49172176008722      108.32499968116525
C           -4.07312111473455       57.50236298920459      109.32639444631947
C           -4.00160719893182       55.21561120816551      110.20730760232685
C           -3.55282272224359       53.84116162218402      110.13317931714766
C           -4.10481502320420       53.20335908636911      111.19842150185549
C           -4.88160088960944       54.19775980080493      111.90826283886916
C           -5.59637443321317       53.93018673746663      113.05957858389044
H           -5.57836649479005       52.91867815491398      113.43526320168156
C           -7.65594448445270       58.04297752178729      114.46146190080650
H           -8.29439639820857       58.33280333944279      115.28203322885038
C           -5.84523034890384       60.25979270942291      110.59523686440237
H           -5.92571789050620       61.24969052482852      110.17319184432360
C           -3.65692739972290       56.18462360753266      109.28510986177564
H           -3.01812095721873       55.88680814950264      108.46759904969207
C           -8.49380345791759       55.99560112341346      116.57110146545753
H           -8.63716269100587       55.09144642231627      117.15746386973852
H           -9.47325744427448       56.36246544190989      116.26244819603468
H           -8.03792259721434       56.75063599817840      117.21228017387257
C           -7.12160380793892       53.21070993691723      115.61161542673015
H           -6.12300670102397       52.86907815607879      115.88503619155485
H           -7.54864179472000       52.48464275239397      114.91957915236287
H           -7.73439193314137       53.22988171747737      116.50957880499381
C           -8.63044610884092       60.94709508087206      114.68984902275510
H           -8.32457602649977       60.53588867834743      115.65080062721513
H           -9.69032253023582       60.72642540163076      114.55076923026161
H           -8.50707133918434       62.02784251527142      114.71883502289494
C           -7.48075459854973       62.37732568350003      112.05640051618495
H           -6.63431371775026       62.81251316616529      111.53790967545697
C           -8.56625287533868       63.11971031089444      112.24928456628156
H           -9.45398868018441       62.72850132768055      112.71482357167548
H           -8.61260848728528       64.14486957143572      111.92117442145548
C           -4.27115458323969       60.99319746196404      108.06837277877081
H           -4.20572735070410       61.77243783841849      108.82627278333977
H           -5.15436631631033       61.18934145174963      107.45801569524482
H           -3.39173298156983       61.05410332194631      107.43059995332720
C           -2.84992399963348       58.24865467501358      107.19658655477141
H           -2.04859821972818       57.53949049841118      107.36888294954963
C           -2.96497189682076       58.81197322875418      105.99826543809728
H           -3.76818769539133       59.48633614009301      105.75715212537210
H           -2.26919620859478       58.59567595583938      105.20449899712176
C           -2.65718074963204       53.30565310908837      109.06940298696239
H           -1.70220800635751       53.83136524664568      109.07435125517401
H           -3.10891754025347       53.43459573106028      108.08544815410418
H           -2.46524383870311       52.24639965010392      109.22187478066714
C           -3.97859130031719       51.77861377267615      111.61693989077803
H           -3.35043849476571       51.22592312599065      110.92271956178062
H           -4.95772067498295       51.30007770302885      111.64963023855040
H           -3.53486502322427       51.70906729960201      112.61036601011426
O           -3.92313424655532       57.68212253644065      113.17172532882292
H           -4.13521592961591       57.15488244423146      113.94964263226056
H           -4.16292738426165       58.59298161039465      113.37364343514122
C           -9.23720123093642       55.49981722133028      107.83936362522861
H           -9.88272784182180       56.25980467017766      107.39932244580930
H           -9.83324073526341       54.60328296145080      108.00965683242941
H           -8.44680740946639       55.26376177237165      107.13388587454482
N           -9.40117005756143       56.36405140819438      110.18422748953316
H          -10.40702031948360       56.35436740527116      110.22584053111856
C           -8.64042650356707       55.98605383040679      109.10898450007157
C           -8.55741359306059       56.75214597803033      111.16670610734656
H           -8.87524335974152       57.09990421951272      112.12776138870628
N           -7.30994458700944       56.64276439384116      110.77938693852938
C           -7.34512971735691       56.16676324923456      109.50144342686337
H           -6.44270724813865       55.98845852232625      108.95397423036687
