87
 energy: -124.449757893070 gnorm: 0.336529581989 xtb: 6.7.1 (edcfbbe)
Fe          20.67700000000000      -19.22500000000000       13.77400000000000
N           22.60100000000000      -18.97000000000000       14.33400000000000
N           20.85900000000000      -21.22400000000000       13.88900000000000
N           18.71099999999999      -19.45600000000000       13.30600000000000
N           20.41400000000000      -17.24500000000000       13.79300000000000
C           23.26800000000000      -17.74600000000000       14.46000000000000
C           24.68200000000000      -18.01700000000000       14.60400000000000
C           24.86500000000000      -19.34300000000000       14.54200000000000
C           23.58100000000000      -19.95700000000000       14.35100000000000
C           22.03900000000000      -21.92500000000000       14.03900000000000
C           21.78600000000000      -23.33500000000000       13.93100000000000
C           20.48700000000000      -23.50100000000000       13.67800000000000
C           19.86400000000000      -22.17500000000000       13.65500000000000
C           18.01600000000000      -20.65600000000000       13.20700000000000
C           16.66300000000000      -20.36900000000000       12.80900000000000
C           16.53600000000000      -19.03900000000000       12.73000000000000
C           17.82900000000000      -18.44100000000000       13.01200000000000
C           19.26100000000000      -16.53200000000000       13.46800000000000
C           19.51500000000000      -15.13500000000000       13.65000000000000
C           20.76000000000000      -14.99300000000000       14.11300000000000
C           21.36100000000000      -16.30100000000000       14.21000000000000
C           22.65900000000000      -16.53700000000000       14.54300000000000
H           23.25100000000000      -15.69500000000000       14.90200000000000
C           23.24800000000000      -21.30800000000000       14.26900000000000
H           24.08500000000000      -21.99000000000000       14.41100000000000
C           18.53100000000000      -21.91700000000000       13.43900000000000
H           17.83800000000000      -22.75800000000000       13.45200000000000
C           18.07500000000000      -17.06400000000000       12.99600000000000
H           17.31200000000000      -16.39300000000000       12.60100000000000
C           25.74300000000000      -16.90500000000000       14.78100000000000
H           25.28500000000000      -16.43200000000000       15.67600000000000
H           25.46500000000000      -16.31600000000000       13.88100000000000
H           26.84700000000000      -16.91400000000000       14.90300000000000
C           26.20500000000000      -20.12000000000000       14.74600000000000
H           26.23500000000000      -20.62400000000000       13.75600000000000
H           25.79700000000000      -20.82900000000000       15.49800000000000
H           27.23600000000000      -19.81800000000000       15.02800000000000
C           21.53400000000000      -13.71300000000000       14.49500000000000
H           21.43300000000000      -13.28400000000000       13.47500000000000
H           22.47500000000000      -13.33900000000000       14.95100000000000
H           20.66300000000000      -13.39600000000000       15.10700000000000
C           18.49500000000000      -13.96700000000000       13.42800000000000
H           18.02000000000000      -13.49300000000000       14.29900000000000
C           18.78500000000000      -13.14300000000000       12.31900000000000
H           19.26000000000000      -13.56300000000000       11.42000000000000
H           18.54000000000000      -12.07100000000000       12.34100000000000
C           15.28500000000000      -18.22500000000000       12.34000000000000
H           15.75700000000000      -17.65500000000000       11.51200000000000
H           15.26200000000000      -17.58700000000000       13.24900000000000
H           14.25100000000000      -18.50100000000000       12.04300000000000
C           15.50000000000000      -21.43300000000000       12.65000000000000
H           15.62200000000000      -22.24100000000000       13.37100000000000
C           14.73600000000000      -21.48600000000000       11.47200000000000
H           14.67600000000000      -20.61300000000000       10.80600000000000
H           14.18900000000000      -22.40100000000000       11.20200000000000
C           19.68600000000000      -24.80900000000000       13.45000000000000
H           20.34800000000000      -25.15100000000000       12.62600000000000
H           18.66100000000000      -25.19900000000000       13.27400000000000
H           20.07900000000000      -25.19700000000000       14.41400000000000
C           22.89800000000000      -24.41700000000000       13.98000000000000
H           22.47400000000000      -24.88100000000000       13.06400000000000
H           22.45900000000000      -24.91400000000000       14.87100000000000
H           24.00100000000000      -24.55200000000000       13.97400000000000
C           18.54200000000000      -18.18100000000000       18.81600000000000
H           19.21900000000000      -17.55300000000000       19.43400000000000
H           18.11400000000000      -18.98400000000000       19.45300000000000
H           17.72800000000000      -17.54300000000000       18.41200000000000
N           20.36100000000000      -19.59600000000000       17.90800000000000
H           20.70100000000000      -19.88800000000000       18.80200000000000
C           19.30700000000000      -18.78200000000000       17.70000000000000
C           20.85200000000000      -19.92900000000000       16.72000000000000
H           21.66300000000000      -20.64800000000000       16.60300000000000
N           20.23200000000000      -19.27700000000000       15.69600000000000
C           19.26200000000000      -18.53600000000000       16.36800000000000
H           18.60800000000000      -17.87900000000000       15.80900000000000
C           21.23500000000000      -21.81400000000000       10.42300000000000
H           20.67100000000000      -22.52100000000000        9.77800000000000
H           21.37400000000000      -22.28000000000000       11.42200000000000
H           22.22600000000000      -21.62200000000000        9.95800000000000
C           20.46100000000000      -20.49700000000000       10.56400000000000
H           19.47000000000000      -20.69800000000000       11.02300000000000
H           20.29500000000000      -20.05600000000000        9.55800000000000
S           21.43100000000000      -19.33700000000000       11.61900000000000
C           20.90700000000000      -17.82800000000000       10.78500000000000
H           19.80500000000000      -17.70100000000000       10.83600000000000
H           21.19900000000000      -17.86000000000000        9.71400000000000
H           21.37700000000000      -16.94200000000000       11.26300000000000
87
 energy: -124.581800147900 gnorm: 0.181969075599 xtb: 6.7.1 (edcfbbe)
Fe          20.66858295011071      -19.22979847074203       13.79700436333010
N           22.61707206319430      -18.96898946819024       14.30711189180941
N           20.85696964969345      -21.21577060588649       13.87375608404808
N           18.70083040490010      -19.46047162440454       13.29870840113417
N           20.40996598431179      -17.24666509884365       13.79283027828364
C           23.27872288871595      -17.76840248168390       14.46852097545889
C           24.69904691828883      -18.01737649111149       14.61240482229324
C           24.88081869359560      -19.34801526246340       14.55411297333295
C           23.57876662195800      -19.95165008395802       14.35812584294974
C           22.03294823113896      -21.89868707269095       14.04059038152381
C           21.79743826152673      -23.30936467532933       13.92151809712766
C           20.46936284281326      -23.47609921832223       13.67976922135529
C           19.87398967583698      -22.15747295788770       13.66429301897719
C           18.00397624982709      -20.64832675662188       13.21459099843881
C           16.63297892830393      -20.38807984019622       12.82282826998412
C           16.51662539139744      -19.04661949790284       12.71229949494535
C           17.81666347065082      -18.45672752022532       13.00374306883032
C           19.27241150173088      -16.53733640089032       13.46193643662167
C           19.50644889652383      -15.12757792146334       13.65289886975271
C           20.77459630888061      -15.00424597801302       14.12463775740727
C           21.34420975997033      -16.31681981378532       14.20357403787697
C           22.65703736283887      -16.54670347272618       14.54425231183715
H           23.24550339336267      -15.69792781629294       14.88586676105981
C           23.25846264688887      -21.30236097504859       14.27345249739516
H           24.08825826630281      -21.99095052609800       14.40656709995199
C           18.53468501675694      -21.90658972168051       13.44273026064380
H           17.85042931694008      -22.75140466192661       13.43909971792068
C           18.08279011015536      -17.08306747978104       12.99822418822595
H           17.32029987354309      -16.40391228677186       12.62068220689975
C           25.70368956888725      -16.88682215738150       14.78040039169693
H           25.30330141031353      -16.39551283914382       15.67521998518271
H           25.48287576178977      -16.28327639276137       13.89184888564193
H           26.79907052091205      -16.96444893490581       14.89299433429939
C           26.16968307932144      -20.15181610156050       14.73350531139795
H           26.25536303535664      -20.65316132104527       13.76276760758596
H           25.82942240464651      -20.86110306831146       15.49652535188150
H           27.17167522275698      -19.78096827179511       15.01713442870675
C           21.48118507850998      -13.69711975965911       14.47605507381915
H           21.43343181432156      -13.23000262045564       13.48457151169579
H           22.44799453113194      -13.41734126377414       14.93541118644488
H           20.67073619741092      -13.32461286994229       15.11243780564469
C           18.57079101067763      -13.94366633523878       13.42147700120176
H           18.03273067870647      -13.51530449394427       14.27838664263222
C           18.78462190817946      -13.15577743079113       12.33860109907786
H           19.26333115214478      -13.55495430545835       11.44610458701968
H           18.51045284264069      -12.10037511411117       12.33102481922084
C           15.31523006789140      -18.19497672795745       12.34527796564729
H           15.72917077726867      -17.62313192423352       11.50674203295711
H           15.23817327590286      -17.55708273647763       13.23397938407007
H           14.30464546531617      -18.53650639754814       12.06467981077135
C           15.54622742994090      -21.43419313306621       12.60493664934551
H           15.60849183050687      -22.23179867357294       13.34612867127884
C           14.76314950879564      -21.48321045829900       11.50066659682559
H           14.69407581951162      -20.63463101596617       10.82188639836777
H           14.18768383526196      -22.37300770300317       11.23322455930587
C           19.74369642223194      -24.81297808714232       13.46403381586177
H           20.34346617702190      -25.20013401868864       12.62914808159938
H           18.69400353286498      -25.11706081250577       13.28375258641928
H           20.07351600995653      -25.26343158075799       14.40843382549205
C           22.84254697018138      -24.43563109663262       13.97394315965311
H           22.49623440162676      -24.94449686808519       13.06607529080433
H           22.47614642953846      -24.96130384285146       14.86560918837603
H           23.94939697034471      -24.48052471021050       13.97748814983438
C           18.53919151646533      -18.17538708871597       18.82088120327706
H           19.20597598215313      -17.55556744748279       19.43523296302536
H           18.11419798270096      -18.96976893865088       19.44981128382706
H           17.73447731394258      -17.54973435915446       18.42241125597176
N           20.35614837760814      -19.60487604775332       17.90423017329143
H           20.69900128119103      -19.89935272866236       18.80174329886937
C           19.30966673666870      -18.76137289414079       17.70104149300086
C           20.86020843213010      -19.92559078022913       16.70675351376568
H           21.66159213428244      -20.63689187143815       16.58769386594528
N           20.23102752746539      -19.27931478618937       15.72231733429955
C           19.26120085912012      -18.53767042458450       16.36103486875843
H           18.60912773963965      -17.88882550964998       15.80506224563143
C           21.23369251145115      -21.81470734166782       10.42158085853219
H           20.67747033970066      -22.51468492859129        9.78521549271954
H           21.37588298477283      -22.27418165459384       11.40615251691634
H           22.21442862023054      -21.62670311140092        9.96638144080968
C           20.45907677314307      -20.50870169841767       10.56219643246936
H           19.47944335106161      -20.69239974073233       11.02392607319762
H           20.30166148527308      -20.05508823968871        9.57258883118705
S           21.41884369184038      -19.33071123554021       11.60627189275358
C           20.90008499932053      -17.81496473432898       10.77464215262409
H           19.81189350850260      -17.70167195454346       10.83898925920759
H           21.20083421805181      -17.85710890197740        9.72077841391122
H           21.37476881125545      -16.95494633364915       11.26046061683302
87
 energy: -124.655060789723 gnorm: 0.074345257862 xtb: 6.7.1 (edcfbbe)
Fe          20.66158091880994      -19.23587301801238       13.80502273601033
N           22.62792172720203      -18.96834307464412       14.29533070677675
N           20.85549235079801      -21.21106332945345       13.86780763597693
N           18.68763776567972      -19.46655261603572       13.30006939113727
N           20.40701482884701      -17.24404344708637       13.79739430047638
C           23.28265005661328      -17.78917494835677       14.47258255345936
C           24.71164533645586      -18.01716129668767       14.62288161052745
C           24.89353497113039      -19.35411528193669       14.56776960074085
C           23.57217774139118      -19.94657528517967       14.36152815537265
C           22.02923147761381      -21.88018910226575       14.03796658366580
C           21.80867353366473      -23.29508032783265       13.91426035080313
C           20.45780284275126      -23.46190634271239       13.68444588766543
C           19.88511357733709      -22.14651759442950       13.67067710837829
C           17.99254718939112      -20.64071166394953       13.22307509983298
C           16.60709535153243      -20.39928319355101       12.82742124025543
C           16.50269825245261      -19.04803733967344       12.69061212439938
C           17.80713526623280      -18.47098827412340       12.99773129016276
C           19.28278600474961      -16.54185161713565       13.45980554345801
C           19.50035752552676      -15.12153815044845       13.65185965073464
C           20.78616466331728      -15.01063644745297       14.13289057099602
C           21.33039330418711      -16.32933556134438       14.20097422247771
C           22.65563891914177      -16.55802224688076       14.54125352479377
H           23.23971180795775      -15.70484274498287       14.86582950332750
C           23.27163172713217      -21.29952035692243       14.27244548468904
H           24.09258428606822      -21.99253223600801       14.40136426442407
C           18.53784780160476      -21.89612491868360       13.44270856100770
H           17.86379023340212      -22.74446347659904       13.42281116086721
C           18.09176075772492      -17.10289642499512       13.00420984788167
H           17.32965424627026      -16.41588557335223       12.64548114153414
C           25.66421547619890      -16.87263015426550       14.78113843538931
H           25.32034176490809      -16.35476113519558       15.67525471161822
H           25.49820904720966      -16.24937565389536       13.90324152878543
H           26.74949001370572      -17.02853596629713       14.88316790937782
C           26.13231819091222      -20.18139713967986       14.72227090546938
H           26.27377856092408      -20.68577186147392       13.76860525286597
H           25.86268930658640      -20.90100727414053       15.49382802108104
H           27.10023105506191      -19.73290072356722       15.00604269053238
C           21.42445379160245      -13.68622571810241       14.45588968401152
H           21.43034590698379      -13.17591238599725       13.49344487541769
H           22.41714243213037      -13.51648460344065       14.91929382220376
H           20.67488337637112      -13.25145353966752       15.11463281625074
C           18.63608426243875      -13.93484415022871       13.42033729193625
H           18.05910364387904      -13.54387876916335       14.26894174599061
C           18.78975599979754      -13.17006881345188       12.35455768052534
H           19.28463003113387      -13.54219838681127       11.46719142912314
H           18.46579697260903      -12.13408135286771       12.31563118409489
C           15.34540620558405      -18.16796574689024       12.34877347901638
H           15.69934882083462      -17.58453548674764       11.50079017386764
H           15.21609273552951      -17.52535902279458       13.21863817369595
H           14.36150761764182      -18.58363863664771       12.08633952151496
C           15.58711370398708      -21.42421704196745       12.58677382608027
H           15.60978214060323      -22.23369569830787       13.31825667584156
C           14.79011141490207      -21.47575564638623       11.52836808299001
H           14.71937381196929      -20.65440802734019       10.82575119422752
H           14.18528619652801      -22.34276809365707       11.27123369024832
C           19.80402022913114      -24.81085712752578       13.48013792766828
H           20.34436793682062      -25.24273938984381       12.63544395202831
H           18.72827485829638      -25.01155663182578       13.29638111918341
H           20.07376950037009      -25.32657889947383       14.40258158977089
C           22.78434507513971      -24.44891026276038       13.96793335275398
H           22.51199150937935      -25.00482189992720       13.07064925488606
H           22.48698651264516      -25.00455026336968       14.85917257371954
H           23.89181720903171      -24.38728031534982       13.97971790866063
C           18.53762843862847      -18.17031970366402       18.82600895419969
H           19.19421600233647      -17.55501141829707       19.44089459592215
H           18.11438594903337      -18.96015634566241       19.44713034083536
H           17.73766234339612      -17.55336784779270       18.43100045334080
N           20.35059156956998      -19.61248974307469       17.90191823587424
H           20.69515614748493      -19.90959271532518       18.80066746663020
C           19.31433470395601      -18.74280476260522       17.70218197037183
C           20.86407402486014      -19.92192121790152       16.69252621150355
H           21.66165861072432      -20.62524807516132       16.57161617461548
N           20.23091070382636      -19.28071552851667       15.73926090429665
C           19.26381034136305      -18.54000299361899       16.35426225619553
H           18.60994990869533      -17.89875597434648       15.80072216938911
C           21.23195003775322      -21.81470658684127       10.42084514198347
H           20.68079271175535      -22.51012980333832        9.78992322940057
H           21.37778507601043      -22.27065785050863       11.39565261643494
H           22.20573373110309      -21.62826714565442        9.97192068047824
C           20.45668390145750      -20.51625446861900       10.55958903096025
H           19.48756358625418      -20.68872946419578       11.02724630259875
H           20.30734551979447      -20.05382505129491        9.58221243132851
S           21.41691488287622      -19.32773732297189       11.59301176628498
C           20.89215984429953      -17.80443019602050       10.76395787742744
H           19.81428089533551      -17.69996941382809       10.84010318202511
H           21.20140046129600      -17.85148403211643        9.72310765003298
H           21.37367083235703      -16.96699062884727       11.25961802521030
87
 energy: -124.686579489740 gnorm: 0.051212718375 xtb: 6.7.1 (edcfbbe)
Fe          20.65760857039711      -19.24025584039605       13.80341584106487
N           22.62661900382793      -18.97311227970770       14.28435166837005
N           20.85991014061512      -21.20756381069401       13.86247283471301
N           18.68567227095420      -19.46799477551848       13.30521863524340
N           20.40786060136203      -17.24499628092674       13.80122309628973
C           23.27577276835466      -17.80085703240238       14.47451632209509
C           24.70551604310454      -18.02133889618991       14.63403987354855
C           24.88794926506027      -19.36223942286665       14.57817625749332
C           23.56353777972176      -19.94948064308278       14.36282009124665
C           22.03233988634429      -21.87523736272961       14.03246410842695
C           21.81086206117358      -23.29163807071826       13.91248531883995
C           20.45941444755344      -23.45749085819607       13.69105836550895
C           19.88971276016824      -22.14150082082680       13.67422959623441
C           17.99191071208834      -20.63364054599933       13.23585559429973
C           16.60761049870651      -20.38957912956057       12.83386922285444
C           16.50744750613418      -19.03654144959581       12.68132579534906
C           17.81068224702527      -18.47442492153395       12.99565383104371
C           19.28819740918204      -16.54849132387779       13.45976472033333
C           19.50400604841406      -15.12950962852348       13.64889700088400
C           20.78628035738109      -15.01182539957605       14.13474545198245
C           21.32739754550302      -16.33375065856606       14.20308705092004
C           22.65409403594775      -16.56732207916567       14.53798967499663
H           23.23989031341600      -15.71093813751969       14.84054575983672
C           23.27977118833097      -21.30216618165961       14.26942534111243
H           24.09885434791612      -21.99510523226695       14.39305007240430
C           18.54127524598871      -21.88724818698253       13.44431626512559
H           17.87631947665800      -22.73959224727828       13.40011689391880
C           18.09930904258157      -17.11333958332601       13.01092304461907
H           17.33292887260656      -16.42327668813656       12.67596219845244
C           25.63761222400710      -16.86866076878549       14.78520913813380
H           25.33892605416665      -16.31320503257843       15.67770490239845
H           25.51217756296645      -16.21901985349148       13.91606757576710
H           26.70906104910942      -17.10088799741961       14.87666951254217
C           26.10723518726446      -20.20322420015093       14.71630133847767
H           26.29046964929292      -20.71963853061235       13.77315527015640
H           25.89879682421209      -20.94688683227345       15.49054097372814
H           27.03716410846055      -19.68023357983850       14.99589521011812
C           21.38868227311419      -13.68176993326378       14.44414390444213
H           21.42736187823671      -13.12227734475318       13.50567373925299
H           22.39289384374555      -13.61296855411396       14.90760841635122
H           20.68143210061645      -13.18088166540011       15.11288368138861
C           18.67456536300198      -13.93884215986666       13.43094476952708
H           18.09066614388438      -13.56926101764967       14.27645753163607
C           18.78219918272002      -13.17841712713342       12.34656592116436
H           19.32612367072314      -13.52556910923492       11.47733964917050
H           18.39280688076047      -12.16569306098187       12.28856099339992
C           15.36363916159923      -18.14886251215003       12.34788707806259
H           15.66340074198927      -17.54080231570641       11.49123584647055
H           15.19321215657053      -17.49038642057880       13.20198881319723
H           14.40936669503075      -18.63775169689806       12.10428205756092
C           15.62674378106141      -21.43105284652784       12.57858331076199
H           15.62726357470092      -22.25175478423830       13.29426235976210
C           14.79770190313767      -21.46851648335511       11.53757620631508
H           14.75039501777498      -20.66530465414538       10.81562234665921
H           14.16098790326964      -22.31718649346745       11.31478974185523
C           19.84194550200217      -24.80404180551108       13.49395025160360
H           20.34405915184388      -25.28029966663826       12.64530360057322
H           18.75270749459035      -24.90299889867007       13.31082781127166
H           20.07489247351423      -25.38531440301392       14.39415167069332
C           22.74806910185230      -24.45266335251867       13.96616166035812
H           22.52975683969955      -25.06110462748696       13.08087673295980
H           22.49714163501805      -25.04485388489763       14.85206504742312
H           23.84427297674091      -24.28981116955841       13.98273428430809
C           18.53808728189751      -18.16564451192597       18.82963725250406
H           19.18429393169570      -17.54902524559798       19.45313188120270
H           18.11338505027119      -18.95628426873106       19.44634105959814
H           17.73514783265628      -17.55119464838719       18.43753216629398
N           20.34789854973362      -19.61613608416894       17.90163359047082
H           20.68949616944704      -19.92101021547726       18.79866162575235
C           19.31944443181284      -18.73250328872925       17.70423612519363
C           20.86438765861059      -19.91903536243223       16.68664957884893
H           21.66681850783670      -20.61488632823227       16.55734701291774
N           20.22693095462299      -19.27854810289411       15.74110559989463
C           19.26440292105196      -18.53774580304620       16.35389802300863
H           18.60455357053860      -17.90538238478519       15.79779521776872
C           21.23047092167609      -21.81554042377200       10.41957520561278
H           20.68023925213424      -22.51142843574471        9.78992356603380
H           21.38029534626320      -22.27131013080913       11.39269099749147
H           22.20346110716767      -21.62817694045534        9.97219429643261
C           20.45618228586014      -20.51868835017182       10.55908356194710
H           19.49131569104485      -20.68548576871880       11.03414425717792
H           20.31041256564207      -20.05183833702805        9.58566935719032
S           21.41535565675135      -19.32334351683513       11.58468557997948
C           20.88607868023012      -17.79695539248072       10.75504062423075
H           19.80973905821861      -17.69469486018067       10.83876365632609
H           21.20059715998001      -17.84102498532812        9.71677318435400
H           21.37452486166051      -16.97151634333368       11.26146530507113
87
 energy: -124.698642817578 gnorm: 0.042374214097 xtb: 6.7.1 (edcfbbe)
Fe          20.65593472896415      -19.24224008484810       13.80242738889459
N           22.61576280935274      -18.98192564044899       14.27931464817442
N           20.86625824893015      -21.20711000625507       13.85664453809881
N           18.69325151469123      -19.46655466171072       13.31124222581601
N           20.41151540355877      -17.24458859390064       13.80490559473505
C           23.26341456565956      -17.81103933202077       14.47582458444374
C           24.69008177643916      -18.02966355135558       14.64643972311849
C           24.87289129233617      -19.37346344076108       14.58720572713358
C           23.55203613323418      -19.95597947738101       14.36208310236406
C           22.03756062254036      -21.87815740226091       14.02532738067456
C           21.80994799287900      -23.29520285250184       13.91388446614937
C           20.46365057773961      -23.45900356979757       13.70012738746841
C           19.89247050518816      -22.14058607279917       13.67419963559666
C           17.99824156929215      -20.62746514448676       13.24181524072176
C           16.61892977081568      -20.37720766866677       12.83205355117199
C           16.52133451894423      -19.02320867082435       12.67132401547400
C           17.82068364318696      -18.47365108492673       12.99760112999322
C           19.29257538839250      -16.55172805525088       13.46036472033863
C           19.50791275831887      -15.13596645732591       13.64256568218019
C           20.78138052990465      -15.00562488873216       14.13443275558410
C           21.32909537321053      -16.33003185407724       14.20418103214628
C           22.65333013767077      -16.57378337885792       14.53095996229606
H           23.24824092609654      -15.71685338027615       14.80878023035008
C           23.28409307049494      -21.30861402183888       14.26210603495897
H           24.10679614890185      -21.99749006433087       14.37970724295421
C           18.54753121143629      -21.88129610804443       13.44037731274119
H           17.88899954413482      -22.73582599362767       13.37053740752488
C           18.10499457206747      -17.11664976467720       13.02171980419809
H           17.33034982578197      -16.42658883072670       12.71311007357429
C           25.62414006615856      -16.88004289764060       14.79360852122423
H           25.36040130315256      -16.29825656599733       15.68276036597035