87
 energy: -124.390541479077 gnorm: 0.399397303355 xtb: 6.7.1 (edcfbbe)
Fe           2.39000000000000       21.13200000000000       13.41900000000000
N            3.82100000000000       20.04300000000000       12.60900000000000
N            2.98700000000000       20.51100000000000       15.26300000000000
N            0.93700000000000       22.20499999999999       14.24600000000000
N            1.78800000000000       21.77500000000000       11.59700000000000
C            4.18800000000000       19.98700000000000       11.21800000000000
C            5.25100000000000       19.04000000000000       11.03700000000000
C            5.53000000000000       18.52800000000000       12.25300000000000
C            4.66600000000000       19.13000000000000       13.20400000000000
C            3.89700000000000       19.54700000000000       15.53500000000000
C            3.97700000000000       19.40400000000000       16.97200000000000
C            3.09700000000000       20.22500000000000       17.55200000000000
C            2.46200000000000       20.96600000000000       16.43000000000000
C            0.76400000000000       22.51899999999999       15.59100000000000
C           -0.34600000000000       23.43400000000000       15.75300000000000
C           -0.81200000000000       23.72900000000000       14.51600000000000
C           -0.01900000000000       22.97100000000000       13.57400000000000
C            0.72000000000000       22.58200000000000       11.31100000000000
C            0.77300000000000       22.88400000000000        9.86700000000000
C            1.82000000000000       22.26800000000000        9.33700000000000
C            2.48200000000000       21.55700000000000       10.42100000000000
C            3.58800000000000       20.77400000000000       10.28900000000000
H            4.05500000000000       20.78000000000000        9.30500000000000
C            4.66400000000000       18.85600000000000       14.58700000000000
H            5.30400000000000       18.05000000000000       14.94400000000000
C            1.52500000000000       21.94200000000000       16.55800000000000
H            1.36200000000000       22.31100000000000       17.57000000000000
C           -0.20500000000000       22.99400000000000       12.20600000000000
H           -1.15600000000000       23.36700000000000       11.82500000000000
C            5.86500000000000       18.75000000000000        9.64700000000000
H            6.14600000000000       19.79500000000000        9.39700000000000
H            4.91800000000000       18.49700000000000        9.12400000000000
H            6.67700000000000       18.06900000000000        9.31400000000000
C            6.61400000000000       17.45200000000000       12.61400000000000
H            5.92100000000000       16.74000000000000       13.11200000000000
H            7.13500000000000       18.05100000000000       13.39100000000000
H            7.35500000000000       16.87700000000000       12.01800000000000
C            2.33800000000000       22.26400000000000        7.87200000000000
H            1.36900000000000       21.84900000000000        7.52200000000000
H            3.14900000000000       21.89300000000000        7.21000000000000
H            2.29100000000000       23.37300000000000        7.83000000000000
C           -0.30400000000000       23.75200000000000        9.14900000000000
H           -0.06400000000000       24.78000000000000        8.83800000000000
C           -1.19100000000000       22.88900000000000        8.21900000000000
H           -1.45200000000000       21.85700000000000        8.49600000000000
H           -1.57000000000000       23.29900000000000        7.27100000000000
C           -1.94700000000000       24.69500000000000       14.12500000000000
H           -2.50300000000000       23.95800000000000       13.50700000000000
H           -1.35700000000000       25.35500000000000       13.45400000000000
H           -2.67500000000000       25.29900000000000       14.70700000000000
C           -0.74200000000000       24.06600000000000       17.10300000000000
H            0.10300000000000       24.14800000000000       17.77400000000000
C           -2.24800000000000       24.12200000000000       17.45000000000000
H           -3.00700000000000       24.02400000000000       16.66000000000000
H           -2.57600000000000       24.26000000000000       18.49100000000000
C            2.75200000000000       20.48300000000000       19.03400000000000
H            2.61800000000000       19.38800000000000       19.16800000000000
H            2.06000000000000       21.01700000000000       19.72000000000000
H            3.80400000000000       20.74900000000000       19.27300000000000
C            4.89200000000000       18.35600000000000       17.67600000000000
H            4.04400000000000       17.84700000000000       18.18100000000000
H            5.28200000000000       19.15400000000000       18.34300000000000
H            5.68900000000000       17.61000000000000       17.46900000000000
C            5.00000000000000       25.99800000000000       12.63200000000000
H            5.77900000000000       25.96600000000000       11.84100000000000
H            5.38300000000000       26.59000000000000       13.49100000000000
H            4.08700000000000       26.47600000000000       12.21800000000000
N            5.57800000000000       23.73800000000000       13.62400000000000
H            6.54100000000000       23.95000000000000       13.78900000000000
C            4.68600000000000       24.61600000000000       13.07500000000000
C            4.97600000000000       22.56500000000000       13.90400000000000
H            5.46500000000000       21.69700000000000       14.34300000000000
N            3.70600000000000       22.68600000000000       13.54500000000000
C            3.48700000000000       23.93600000000000       13.04400000000000
H            2.50400000000000       24.24000000000000       12.70800000000000
C            0.51600000000000       18.09300000000000       15.72500000000000
H           -0.16200000000000       18.01000000000000       16.60100000000000
H            1.50800000000000       18.45000000000000       16.07600000000000
H            0.62300000000000       17.08800000000000       15.26300000000000
C           -0.06400000000000       19.08300000000000       14.69900000000000
H           -0.17800000000000       20.08700000000000       15.16000000000000
H           -1.06500000000000       18.74000000000000       14.36100000000000
S            1.11000000000000       19.13500000000000       13.30800000000000
C           -0.09900000000000       19.33400000000000       11.98600000000000
H           -0.69500000000000       20.26200000000000       12.12000000000000
H           -0.80200000000000       18.47400000000000       11.97600000000000
H            0.41400000000000       19.39500000000000       11.00300000000000
87
 energy: -124.555921564709 gnorm: 0.227877846171 xtb: 6.7.1 (edcfbbe)
Fe           2.38597215587883       21.12429011098224       13.41764391764796
N            3.83545754909136       20.03051071041754       12.59639200251313
N            2.98018582653663       20.51483118665001       15.24302059026104
N            0.92916894595968       22.22926242533801       14.24820315353044
N            1.79717156550687       21.77778471011919       11.60033480353763
C            4.19531185616311       19.98553615371932       11.23666301763537
C            5.26171571914796       19.03447591444301       11.03500500592271
C            5.54493727203268       18.51197212971561       12.24653208552196
C            4.66520073087963       19.12685861189083       13.20654856786260
C            3.89522833884732       19.55337315844551       15.51957706081619
C            3.97575016947279       19.39037058444759       16.95019745561347
C            3.08814459566547       20.24620625967422       17.52653794499337
C            2.47197643296029       20.96646547124441       16.41698583814623
C            0.76161087600147       22.53083154580878       15.58535628475941
C           -0.34481001279804       23.45719305743103       15.77719405799410
C           -0.82418728804158       23.72990307875173       14.53442853462497
C           -0.03216853178515       22.96723330195876       13.58738853488894
C            0.72799688937398       22.57019058793427       11.29813210511190
C            0.74920143028936       22.88138477697851        9.86384404742485
C            1.84022667797936       22.26226625984861        9.34873408881817
C            2.48197475049685       21.56382899160958       10.43630160182473
C            3.59536560584044       20.77356197802917       10.28860881974874
H            4.04823977109147       20.77306247604658        9.30118847152952
C            4.65969953479626       18.86273628010193       14.58199094488204
H            5.30089286163843       18.06365159895185       14.94448375925753
C            1.52344330521287       21.94787827719518       16.56688942387601
H            1.35525007771072       22.30160151489902       17.57782101190405
C           -0.20958649991802       22.99481721350600       12.20871376342095
H           -1.14613281797493       23.38677824425117       11.82377154352250
C            5.83936322756533       18.77646387531461        9.64778248757839
H            6.14980714107589       19.79026485188441        9.36617735263024
H            4.93159171890647       18.50000903540161        9.09680890150569
H            6.65032092956357       18.08036156912062        9.36722374800681
C            6.59190228128489       17.46321810681907       12.64609833634774
H            5.94371463493280       16.72236921271515       13.12862412517225
H            7.15079565501338       18.02509027323826       13.40421284812168
H            7.31164119791819       16.92250909521093       12.00384677014046
C            2.29171505592976       22.28940518537050        7.88039567277192
H            1.36594323442753       21.86494755803034        7.47358349229985
H            3.13679863784420       21.88740991570129        7.28621761157765
H            2.28656241846089       23.38090570633963        7.77946733170084
C           -0.29182813376826       23.67535980725287        9.07975401674176
H           -0.08178614292177       24.73577594488493        8.84535367240972
C           -1.15430369337564       22.92229963187818        8.24687165718172
H           -1.42424370783367       21.89151615449710        8.49725951357854
H           -1.57329652836790       23.31289335101065        7.31495173018175
C           -1.93248336675840       24.67484104353144       14.09311066054964
H           -2.52673821425365       23.98096682535155       13.48686950017094
H           -1.38174559924785       25.36433118622283       13.44009591716883
H           -2.62579781479317       25.26402245399009       14.71992868658498
C           -0.80356201967965       24.01647457853968       17.09470036102115
H            0.04676700330751       24.15005122345815       17.77193339892022
C           -2.17835716715022       24.11602579896451       17.43693742462893
H           -2.96069079771620       24.01652870235497       16.67742452481507
H           -2.53970127594089       24.27276691853368       18.46008590238016
C            2.79189948861576       20.44385868342522       19.02000945921055
H            2.62686290434580       19.37851537237381       19.22384632578869
H            2.07047822078269       21.01607103723969       19.63989006797251
H            3.80649432678767       20.73818765674355       19.31954956201767
C            4.86255046815489       18.38486075646480       17.70851735667340
H            4.06366944120046       17.82943715655303       18.21546689467824
H            5.30287784227698       19.12528610599919       18.38642346588681
H            5.64891614077935       17.65661214267740       17.42622974270555
C            5.00301416022219       25.99542657575862       12.63333010815373
H            5.77286361268393       25.97127222862426       11.84873378963476
H            5.37944041144465       26.58912203111556       13.47891241208598
H            4.10126800128762       26.47007356852514       12.22588638336207
N            5.58122713952220       23.74393648049734       13.62231698720234
H            6.54897289226622       23.95397425169390       13.78867885528929
C            4.67955667944431       24.61442557492132       13.07664028142097
C            4.96420418184498       22.57362543601481       13.89774560312193
H            5.45118496910047       21.71185792505559       14.33361783391388
N            3.69661734018691       22.67474819755953       13.54525797471880
C            3.49210924400349       23.92651324369792       13.04751462657725
H            2.51602227807131       24.23409124882848       12.71134620043568
C            0.51147298563781       18.09292524607027       15.72901240950173
H           -0.15560839744773       18.00983525936572       16.59584368688232
H            1.49387639517917       18.44195466056423       16.07104149119573
H            0.62339103266351       17.10096192352458       15.27028759862283
C           -0.06346499939572       19.07770565592200       14.71112219879296
H           -0.17338327004629       20.07851311439420       15.15357039885528
H           -1.05100944175478       18.74130335906759       14.36018889905731
S            1.09662315772209       19.14146318533098       13.30159349784136
C           -0.11211920812795       19.33678188086257       11.97550614859292
H           -0.68902579493376       20.25805769265618       12.11922897922137
H           -0.79500845361600       18.47732707932777       11.97389001975296
H            0.41239978861851       19.39361065313793       11.01459665905562
87
 energy: -124.639107566643 gnorm: 0.133461929036 xtb: 6.7.1 (edcfbbe)
Fe           2.38593653306243       21.12272928102290       13.42060900742204
N            3.85017337967245       20.01917963406530       12.58041081887755
N            2.97176345991515       20.51973434774949       15.22778494898488
N            0.91556600825168       22.25164324885231       14.25465857392887
N            1.80382686902097       21.78092438933794       11.60218488102115
C            4.19745545513364       19.98710529453616       11.25801456565019
C            5.27160396929442       19.03099547873122       11.03257687591235
C            5.55987896941870       18.49564186257142       12.23965974139704
C            4.66321667616365       19.12420000424091       13.20649029434799
C            3.89102996321597       19.55743712089017       15.51145422667556
C            3.97597176476985       19.37761161251595       16.93692237749834
C            3.08181917276336       20.26525389622619       17.50630395075954
C            2.47888716455184       20.96884238771307       16.41055279470687
C            0.75865407185446       22.54193055019379       15.58092110014322
C           -0.35301051101526       23.47487579393693       15.79338300507733
C           -0.84193595042519       23.72832573226473       14.54450772701266
C           -0.04050073757585       22.96606838654512       13.59688574551836
C            0.73114447085145       22.55788025308111       11.28747657237121
C            0.72288521388538       22.86881934421778        9.86374815480959
C            1.85292293871000       22.25514187516942        9.35753971536343
C            2.48524080773480       21.57429397491417       10.44850554656289
C            3.60418616100216       20.77266062976960       10.28769169929618
H            4.04168210909536       20.76314198771012        9.29865340417233
C            4.65513137130036       18.86890689243867       14.57479846633399
H            5.29969901305780       18.07932743293749       14.94402425836201
C            1.51821269580565       21.95599593321286       16.57692297080451
H            1.34459729110655       22.29266755890590       17.58666376712701
C           -0.20936913010435       22.99818526377567       12.21216151197503
H           -1.13096021726778       23.41063234078942       11.82233622311841
C            5.81423017439725       18.80275679734332        9.65053325513286
H            6.15297211415555       19.78789431761772        9.33275871901727
H            4.94327006089830       18.50435153615872        9.06792300775742
H            6.62457820642523       18.08904450573266        9.43267071756411
C            6.56876859611530       17.47516260799465       12.67564157608771
H            5.96714180130350       16.70247093063765       13.14958223534686
H            7.16691393000122       17.99776392253773       13.42105788703110
H            7.26326438345975       16.97366011856350       11.98114186029211
C            2.24137325236360       22.31626594431894        7.89471631774019
H            1.36008853673375       21.88307767720999        7.42543378609210
H            3.12426912454174       21.87838139206176        7.38260046004083
H            2.27727611269522       23.39121701596128        7.72950630282799
C           -0.27676640560251       23.60318152755637        9.01852039926696
H           -0.08550618874310       24.68519329695975        8.85159371973970
C           -1.10744877256431       22.94901273294309        8.27736550341109
H           -1.38346462632279       21.91283860126835        8.48802902726565
H           -1.58821019797466       23.33536189450427        7.37303760888731
C           -1.91931633028994       24.65481665616915       14.06251001523757
H           -2.55223613600067       24.00480465876443       13.46288426248895
H           -1.40493536033482       25.37267253674124       13.42380211026876
H           -2.57291560538958       25.22438252089559       14.74186235744385
C           -0.85007131250755       23.98326491243702       17.08670826311434
H           -0.00806000117838       24.14235355048432       17.78015629953800
C           -2.10346038885517       24.10039308403083       17.41484826556862
H           -2.91789819537759       23.99628054328446       16.69137348057366
H           -2.49221040666569       24.29186609036095       18.42261020345748
C            2.83528649738388       20.40362154726473       18.99911857032166
H            2.64019088402596       19.36833689361521       19.27357176932436
H            2.07953311221364       21.01745074657523       19.53752590331343
H            3.81252923428761       20.72325226712057       19.36263406628336
C            4.82810164054164       18.41702975869024       17.73713740194984
H            4.08110658309892       17.81501865199021       18.25389313260014
H            5.31880888823992       19.09854829353142       18.42943486593544
H            5.60109248918083       17.71266646679257       17.36750491155452
C            5.00481686186395       25.99348812928698       12.63459718381880
H            5.76875272152758       25.97283924386683       11.85542983482668
H            5.37710583175391       26.58738021762042       13.47096767123480
H            4.11117562650123       26.46602519265862       12.23201500627822
N            5.58505294530902       23.74898447848251       13.62136503777350
H            6.55534282844899       23.95572310861290       13.78892047389265
C            4.67207938098846       24.61336866132031       13.07780688595542
C            4.95447106107632       22.58222664175566       13.89112380998818
H            5.43863329476162       21.72513663295121       14.32479256674831
N            3.69083897004633       22.66448223789114       13.54431054682386
C            3.49581148634844       23.91839555617697       13.04959837789526
H            2.52570371913720       24.23045435716404       12.71269934942304
C            0.50766322841586       18.09344341254222       15.73172410983024
H           -0.15216861328895       18.01037087605762       16.59256404175304
H            1.48339784087515       18.43609197690778       16.06862883746751
H            0.62252727698770       17.11034813005799       15.27567620221879
C           -0.06405940987939       19.07397320663073       14.72035532853172
H           -0.16722492969359       20.07192882588230       15.14937318052606
H           -1.03954459625000       18.74038798007251       14.35819753198789
S            1.09166592243932       19.14905353229743       13.29584848461562
C           -0.12560321553223       19.34005531710089       11.96763030941927
H           -0.68714860356440       20.25702452609878       12.11705739356412
H           -0.79115568647088       18.47946739679052       11.97073148821100
H            0.41186138069267       19.39280385533969       11.02505515951029
87
 energy: -124.679370927807 gnorm: 0.059563634728 xtb: 6.7.1 (edcfbbe)
Fe           2.38544017165803       21.12191749989779       13.42242061300342
N            3.85428233726648       20.01715716540936       12.57750758605525
N            2.96655449386656       20.52552002017940       15.21944925376092
N            0.91627269312906       22.26401839524566       14.25532851498332
N            1.81256203107091       21.78159987224827       11.60695303775271
C            4.20076991637343       19.99368071626149       11.26842386617828
C            5.27359256405380       19.03542917391816       11.03589293358890
C            5.56035200073557       18.49217027581049       12.24209632397063
C            4.65976826743096       19.12390492137080       13.20676649698801
C            3.88525310823938       19.56145946070400       15.50621435238771
C            3.97200623924871       19.37634803371783       16.92997056119055
C            3.08563144401755       20.27000383637854       17.49511498899126
C            2.48093315856231       20.97630772030969       16.40627862011062
C            0.76430901331265       22.54832940434918       15.57638224549272
C           -0.34755570581605       23.47599082126195       15.78191131958476
C           -0.84891366353684       23.72203880485491       14.53672340042356
C           -0.04332674274191       22.96232919739226       13.59571417102495
C            0.73208413097415       22.54527272093681       11.29023729691581
C            0.72646534399702       22.85030677013532        9.87649133341012
C            1.85544261312448       22.24872344215232        9.36368652628721
C            2.49665613593399       21.57974736814926       10.45477026175656
C            3.61407541643069       20.77429217647158       10.28949831534588
H            4.03517385423698       20.74744734439892        9.29497618801065
C            4.65088679901696       18.87475123026210       14.57016917291130
H            5.30279015316214       18.09739766957637       14.94585488765548
C            1.51611551508412       21.96272081719223       16.57915898829016
H            1.32751597077577       22.27896329366498       17.59403161458264
C           -0.20612774995005       22.99812458987522       12.21315999149785
H           -1.10940994685004       23.44731029912188       11.81765528033587
C            5.79748047063497       18.82277818175582        9.65375400436846
H            6.15778056000618       19.78877916016442        9.29196408522270
H            4.95428040059168       18.51104335117317        9.03300149739329
H            6.60599671207022       18.08995879819655        9.51136288940709
C            6.55352740935986       17.48145401737787       12.69923635988463
H            5.99427313332920       16.67555530177381       13.17884728856555
H            7.18731888135415       17.96564944810455       13.44647673982896
H            7.21537053515220       17.02707955424448       11.94345070975116
C            2.20530654970127       22.33514424570752        7.90611129508049
H            1.35084054856751       21.90856622728199        7.37011520530888
H            3.12130012462304       21.86181870264926        7.48709429674923
H            2.26103460402680       23.40351390340400        7.67288116480183
C           -0.21690883752917       23.58578367918989        9.01149134757909
H           -0.04694737857413       24.65880888289778        8.85498367757395
C           -1.14483631739024       22.94642264441860        8.28244206116690
H           -1.35118000139021       21.89238052586781        8.45606896567267
H           -1.64930545198842       23.36780811100611        7.41614249177300
C           -1.91337214091650       24.63908631235427       14.03823347794676
H           -2.58723147766571       24.03207391588203       13.42966890319910
H           -1.43227583092230       25.38173569178415       13.39855817232536
H           -2.51957270494611       25.18426581549977       14.77713117445414
C           -0.82773947760345       23.94193703938752       17.07887189672851
H           -0.02225847120619       24.11826701817545       17.79846071350391
C           -2.10735633163647       24.11382443459565       17.41010398729807
H           -2.91082183134424       23.96112933028528       16.69624976685523
H           -2.46432545258993       24.33362726485064       18.41206385115374
C            2.86858666048427       20.37576875681321       18.97977887233693
H            2.66198434443281       19.35627553242663       19.32662927607826
H            2.08077839728817       21.02742724662033       19.42382780679115
H            3.82355885198801       20.70019665757186       19.41058026616251
C            4.80178040758978       18.44131808555925       17.75578843802477
H            4.10050189426112       17.80086767653460       18.30217382319050
H            5.33241668882897       19.06894606149744       18.48136968968440
H            5.55451867369476       17.76864818881521       17.29256893279126
C            5.00508748565746       25.99139589682079       12.63691429121858
H            5.76810333074482       25.97311697832097       11.85956328519578
H            5.37666793542877       26.58811399552146       13.46867762421618
H            4.11510061601100       26.46543236029708       12.23591181698195
N            5.58477992012011       23.75151602064556       13.62095827254133
H            6.55631181849370       23.95681012664419       13.78855783075722
C            4.66731919403286       24.61315917174013       13.07897265842762
C            4.94895351095909       22.58651730544618       13.88641087263922
H            5.42934466509450       21.73170985470459       14.31842220733333
N            3.68687199440000       22.65965127101331       13.54116679232655
C            3.49475169639384       23.91452565208342       13.04842645734999
H            2.52852728904756       24.22786610565048       12.71018134120234
C            0.50445557029765       18.09260303441166       15.73513826724400
H           -0.15353891312212       18.00974353966533       16.59560117807323
H            1.47900945226032       18.43142724193977       16.07059446416138
H            0.62093020012190       17.11223535377176       15.27986712156177
C           -0.06171921481356       19.07134499319144       14.72398268514863
H           -0.16041907439444       20.06932736805753       15.14745902331281
H           -1.03096419119676       18.73705636276178       14.35426396422458
S            1.08681309117324       19.15685441062450       13.29025497729647
C           -0.13552388556269       19.34334162760929       11.96237972837578
H           -0.69198438059097       20.26114895741586       12.11250832699234
H           -0.79217342063545       18.47812583214448       11.96512949336870
H            0.41319160499041       19.39377373440475       11.02833604891075
87
 energy: -124.694608998964 gnorm: 0.058649939797 xtb: 6.7.1 (edcfbbe)
Fe           2.38578469666481       21.12648007106376       13.42479896427199
N            3.85200059131661       20.02364965629140       12.58061241074867
N            2.96092379841377       20.53202071253922       15.21960014434183
N            0.92084643790185       22.27004314293958       14.25532528209555
N            1.82143908105652       21.78341522283194       11.60690384846775
C            4.19954530172180       20.00440972165206       11.27663560895234
C            5.27103368246631       19.04543425265018       11.04215407316043
C            5.55376031435829       18.49513125041620       12.24939891353557
C            4.65203259387345       19.12922755310312       13.20959659906954
C            3.87887575194037       19.56576990382904       15.50704865450739
C            3.96857240050214       19.37844695701940       16.93052204950529
C            3.09129752463448       20.27322391298034       17.49382682559400
C            2.47847305775055       20.98510832802024       16.40919759603370
C            0.76770043242717       22.55315041982202       15.57258154651804
C           -0.34979824595072       23.47216627993715       15.76924380046552
C           -0.85804563118968       23.71037703336151       14.52317102725694
C           -0.04033009592173       22.95928404398387       13.59231105946701
C            0.73259485469200       22.53717367797850       11.29284713738190
C            0.71534762701647       22.83070172385910        9.88311130883563
C            1.84792469746655       22.25056607715989        9.36192082458325
C            2.50452294338490       21.58545255084998       10.45156756849235
C            3.61962404423494       20.77705647792374       10.28786994363018
H            4.02871738550186       20.72872914656824        9.29013198380177
C            4.64536648605491       18.88334637830958       14.56964433041780
H            5.30811447813645       18.11895438095660       14.94907119813554
C            1.51011160595688       21.96837098275992       16.58238656288826
H            1.30229295143905       22.26476502931612       17.60073725844025
C           -0.19718482786414       23.00365513036722       12.21322201869635
H           -1.07842120104580       23.49410146825432       11.81316545218658
C            5.79170124951614       18.83201722700493        9.66416008786315
H            6.17034829725374       19.77946384953104        9.26637636013213