87
 energy: -124.720521702632 gnorm: 0.000118801338 xtb: 6.7.1 (edcfbbe)
Fe           2.36582065923613       21.10653361629645       13.35255763354450
N            3.77699025993682       19.95658196082855       12.53161334481554
N            2.95888216760035       20.52859176092353       15.17653364550265
N            0.94789804322405       22.26005552603938       14.18550806096292
N            1.82418557028442       21.75198770689480       11.53380828838322
C            4.03431561805013       19.80445757654913       11.20698199042634
C            5.09690009400116       18.84374128215349       10.99921211773711
C            5.47754113626006       18.42411157606395       12.23418108138151
C            4.64196514521738       19.13451590473789       13.17817406731499
C            3.97088807945237       19.67175056931964       15.47369086131189
C            4.11990842081494       19.53285668261016       16.90546885254945
C            3.16941570596209       20.32779701848635       17.46631336780737
C            2.45523781980156       20.94119537361356       16.36899931366212
C            0.69369065959325       22.41627407044044       15.50923580031660
C           -0.42752393911620       23.31240273064890       15.71383164853613
C           -0.81700320240694       23.72066464196900       14.46539024713759
C            0.06097915055326       23.06192749293278       13.53302847930524
C            0.84994385077377       22.65201458530109       11.24271336491127
C            0.77014144054807       22.87569103303318        9.81208229803303
C            1.74127402131176       22.08697898858364        9.25412036370068
C            2.37987432640231       21.39724467710432       10.34553691082262
C            3.40021490754616       20.47628669662204       10.18285441029284
H            3.72151609175509       20.26273354957577        9.17500043595959
C            4.75017937878257       19.00046619332886       14.54944756579752
H            5.50062878448992       18.32331839952721       14.92827826387587
C            1.39050070425891       21.80588117233235       16.53586076605287
H            1.08102943611285       22.02042722626445       17.54717335279803
C            0.00765636584663       23.24769400367137       12.16173011285897
H           -0.75281426000073       23.91269657253682       11.78177429481854
C            5.61826286950853       18.44244530901033        9.66222002958909
H            6.02220502615066       19.30573167842334        9.13244467880399
H            4.82072260921850       18.01544696567735        9.05418251068893
H            6.40785279289668       17.70149684291787        9.76086099092289
C            6.52736905252412       17.43776887141421       12.61686695584040
H            6.09019653665680       16.61609752528490       13.18426700879764
H            7.29120626502851       17.90797917002792       13.23734555629576
H            7.01057731023455       17.02553832334678       11.73451676373174
C            2.14188278434538       21.98462008007254        7.82393400520949
H            1.70516998483896       21.09877559331586        7.35957078230836
H            3.22463544212972       21.91393814831402        7.73201429531465
H            1.80185799501646       22.86184924788396        7.27710512555120
C           -0.15309973783698       23.78473599916893        9.17022541341549
H           -0.41191991463955       24.66992472236242        9.74017169895866
C           -0.69728906585031       23.61213583084573        7.96991608566267
H           -0.51535759969611       22.73122995840444        7.37946748880662
H           -1.36923907940519       24.33997016718764        7.54607496600226
C           -1.87477478276700       24.70331555957270       14.10144900495682
H           -2.78396655530967       24.19574619347081       13.77399976407886
H           -1.54025973240348       25.34849093574890       13.29019202543201
H           -2.11846939823296       25.32423699538651       14.96110415531227
C           -0.96242259627584       23.68384720616367       17.00488777912343
H           -0.24059225933926       23.74576946506811       17.81120659412154
C           -2.24095204843683       23.93681508671204       17.26537793549049
H           -3.00795123446819       23.84431497163257       16.51620735109891
H           -2.56942291549935       24.22181908638310       18.25114092757667
C            2.86417065076456       20.56372022737558       18.90555913701879
H            3.54167504539482       20.00016390221206       19.54246309610836
H            1.84331630173751       20.25751227027016       19.13581245585310
H            2.96272319846745       21.62157153391176       19.15051241458930
C            5.13363805730705       18.66153517356982       17.56469528485444
H            4.98957292292984       17.62013436969162       17.27549896858660
H            5.05617723548637       18.72912976557093       18.64702203301386
H            6.14254039847376       18.95572482242155       17.27395096291011
C            4.86878254808948       26.09271099145898       13.18676843139719
H            5.66371984796286       26.23856417721024       12.45542014165049
H            5.18728535617284       26.53732551560729       14.12962541206177
H            3.97915393592067       26.60981268882335       12.84123877620256
N            5.50794062683836       23.74635614491562       13.78581352034322
H            6.46414674658188       23.95809301184019       14.01919176752378
C            4.56905454092073       24.64873777819662       13.35886210488328
C            4.91674396411074       22.53166896656105       13.83397871027350
H            5.41383095781216       21.63271284690687       14.13452874266818
N            3.66206978886878       22.61007328880941       13.46408512506114
C            3.43068454991629       23.92004559359905       13.16564302696668
H            2.46835265852844       24.24972934960931       12.83394984147684
C            0.93177323338485       17.76223307213733       15.48294182391472
H            0.50719343005876       17.55343154345045       16.46291752140289
H            1.96368047014135       18.07557951358721       15.61030446787312
H            0.91901787548079       16.84983375033592       14.89144326784584
C            0.13329943109323       18.85031633179298       14.79186478494998
H            0.12722479716285       19.76849077672723       15.37688583002682
H           -0.88951589121735       18.52093624502482       14.60865245644510
S            0.86878716936871       19.23016778992413       13.14902392896772
C           -0.63956110355630       19.84430829014204       12.33861372139200
H           -1.03468334103501       20.69186205607882       12.88943336584216
H           -1.36695967766650       19.03838750626591       12.28653282279596
H           -0.35829391016234       20.15621218381025       11.33891522147611
