77
 energy: -118.504711184465 gnorm: 0.000095915240 xtb: 6.7.1 (edcfbbe)
Fe          48.01207366321854       55.78313137725953       33.84888279547380
N           47.26144446244471       54.86922843645502       32.23984768559379
N           49.85262992080091       55.63178916102234       33.05457158632754
N           48.75843722014445       56.72222539148419       35.43194806458607
N           46.16301004737743       56.03751664316352       34.56408178093072
C           45.95421000501239       54.74807677536013       31.90396690282428
C           45.80314534287282       53.94595682215718       30.72393150823362
C           47.07455072281009       53.55223104357801       30.36115999592977
C           47.96418051575395       54.15160545598449       31.30997397206393
C           50.22554216853177       54.84293814679978       32.01030521698993
C           51.64146829864651       54.98753320634502       31.74814939055098
C           52.10122310882944       55.94449532422204       32.61272962530293
C           50.97090034777254       56.29017041531819       33.47486534407679
C           50.06568359332253       57.12349532036356       35.62210539613628
C           50.26929383370326       57.57839525260727       36.93980122318499
C           49.04400263406129       57.41337307796054       37.60393723010631
C           48.13212541556507       56.87461484574897       36.61407086933934
C           45.84372842605514       56.36317586630522       35.84068976081205
C           44.39794688920198       56.36355917419539       36.01560819234373
C           43.86280045765470       56.04911588725038       34.80729346820737
C           44.98298982980325       55.79441298316294       33.91288487466168
C           44.87458098696902       55.24451509863544       32.66143808756458
H           43.88445114949820       55.06447522689665       32.27256272343744
C           49.35958722043893       54.10250510664489       31.22481061397192
H           49.78333062054300       53.51010180696930       30.42916798948325
C           51.08002737765459       56.99250434993133       34.64759730770148
H           52.05546232042339       57.37041923060857       34.90911182143506
C           46.75306314259356       56.70786591545605       36.82062744521705
H           46.36838228041238       56.91540338653401       37.80586630457448
C           47.49809286674697       52.68890425701494       29.22819593068314
H           46.63484074198831       52.29740892047332       28.69856587707465
H           48.08751256724084       51.84774163693932       29.59055753672073
H           48.10939788629167       53.24999215167435       28.52097850314804
C           44.50544288839393       53.62086184329105       30.07851328290528
H           43.93484912959592       54.52728294441663       29.87983531338944
H           43.90693005941505       52.98061567030336       30.72708736008662
H           44.66219229836477       53.10067615760286       29.13823777656111
C           52.37936278163304       54.26430163041778       30.68235841701845
H           52.04337534812343       54.58560854338229       29.69618382759108
H           52.20950998381151       53.19168201998806       30.76345660628869
H           53.44579884339498       54.45611983209532       30.75516269996094
C           53.43612973975991       56.49021824164408       32.68338616381787
H           54.23148908230564       55.80573770781030       32.41692635686111
C           53.73729139840835       57.74870844347409       32.99376400237068
H           52.98040556926366       58.48713605820956       33.19957670045410
H           54.75767477153904       58.08959643792669       33.01399268909937
C           51.55653023335398       58.03748641802427       37.52540693505480
H           51.62153688461014       59.12654921134323       37.51807179858194
H           52.40399936607821       57.64504515315511       36.96997115097147
H           51.63566102956860       57.69744103595823       38.55579168079440
C           48.70104265525815       57.65578336241445       38.96834406906860
H           47.84662789276054       57.10199640885673       39.33637449897397
C           49.32807669987930       58.48905091432039       39.81189632809576
H           50.14152980152500       59.12138162790744       39.50694417109313
H           49.00623740043122       58.58178424149390       40.83449140767968
C           43.72130059752070       56.66133428697747       37.30358656377450
H           43.98371366946982       57.65835647491187       37.65674164114701
H           44.02792118617597       55.94215477133860       38.06209032028616
H           42.64228861543277       56.60549253791962       37.19506619381463
C           42.43764481343182       55.91198835071767       34.41136908326204
H           41.78323285342541       56.29313341632032       35.18978030929357
H           42.19103210000073       54.86395566938495       34.24192737804875
H           42.23968759781513       56.45967497110008       33.49134221620823
O           48.13436331851792       54.25220242542646       34.76978811440184
O           47.93683333014189       54.07305818305811       36.01993502185645
C           48.01672762636885       59.99481581161204       30.01061727217724
H           48.70717545264586       60.82467592298987       30.15633995911414
H           47.05777355682071       60.40449479780193       29.69566304132864
H           48.39981692062832       59.35836430366478       29.21940258750000
N           47.40288939642956       59.76036372461877       32.42541323255634
H           47.12400267646110       60.72147376343131       32.54861476097840
C           47.86712048771854       59.21198382641440       31.25958604081041
C           47.38642325567456       58.79517169499620       33.36218849216421
H           47.06729219436848       58.94089154362878       34.37446575681981
N           47.81405496417331       57.65860648693868       32.86257527064857
C           48.11748265678188       57.90128629274391       31.55459842924614
H           48.49041280818267       57.12557914546109       30.91885005312252
