72
 energy: -105.841302230254 gnorm: 0.357666700842 xtb: 6.7.1 (edcfbbe)
Fe          32.74000000000000        0.57300000000000        7.72000000000000
N           30.85900000000000       -0.20700000000000        7.87900000000000
N           33.55500000000000       -1.30800000000000        8.01700000000000
N           34.61899999999999        1.37600000000000        7.40300000000000
N           31.92599999999999        2.45600000000000        7.50300000000000
C           29.83700000000000        0.53100000000000        8.32500000000000
C           28.86700000000000       -0.30100000000000        8.89300000000000
C           29.32500000000000       -1.57500000000000        8.74400000000000
C           30.55900000000000       -1.47000000000000        8.13200000000000
C           32.91400000000000       -2.39100000000000        8.32100000000000
C           33.79800000000000       -3.50500000000000        8.50100000000000
C           35.07099999999999       -2.96100000000000        8.26900000000000
C           34.82700000000000       -1.58900000000000        7.97100000000000
C           35.69899999999999        0.67600000000000        7.21700000000000
C           36.78300000000000        1.48200000000000        6.86600000000000
C           36.30400000000000        2.80200000000000        6.83800000000000
C           34.93099999999999        2.68200000000000        7.18400000000000
C           32.59100000000000        3.58500000000000        7.40500000000000
C           31.68800000000000        4.65700000000000        7.28100000000000
C           30.43200000000000        4.12500000000000        7.30700000000000
C           30.63200000000000        2.73100000000000        7.45300000000000
C           29.67400000000000        1.86300000000000        7.91900000000000
H           28.66100000000000        2.26000000000000        7.98100000000000
C           31.55000000000000       -2.39800000000000        8.41500000000000
H           31.15600000000000       -3.33700000000000        8.79500000000000
C           35.79399999999999       -0.64000000000000        7.65900000000000
H           36.81600000000000       -0.99200000000000        7.78400000000000
C           33.94800000000000        3.69200000000000        7.24200000000000
H           34.32300000000000        4.71000000000000        7.14200000000000
C           28.61400000000000       -2.93400000000000        9.20500000000000
H           27.52700000000000       -2.75300000000000        9.35000000000000
H           29.05300000000000       -3.28000000000000       10.16500000000000
H           28.74900000000000       -3.71200000000000        8.42300000000000
C           27.58200000000000        0.14300000000000        9.56900000000000
H           26.73300000000000        0.03300000000000        8.86100000000000
H           27.66500000000000        1.20900000000000        9.86900000000000
H           27.39000000000000       -0.48900000000000       10.46200000000000
C           33.38900000000000       -4.94200000000000        8.86700000000000
H           32.86400000000000       -5.40900000000000        8.00600000000000
H           32.70400000000000       -4.92600000000000        9.74100000000000
H           34.29400000000000       -5.54100000000000        9.10500000000000
C           36.35400000000000       -3.58100000000000        8.31100000000000
H           37.16000000000000       -2.95600000000000        8.71300000000000
C           36.80600000000000       -4.91500000000000        7.91300000000000
H           36.09600000000000       -5.64300000000000        7.49300000000000
H           37.86099999999999       -5.20500000000000        8.02900000000000
C           38.23400000000000        0.99800000000000        6.57300000000000
H           38.20400000000000       -0.03100000000000        6.15500000000000
H           38.82300000000000        0.98700000000000        7.51500000000000
H           38.71300000000000        1.67400000000000        5.83300000000000
C           36.90900000000000        4.01300000000000        6.56400000000000
H           36.59900000000000        4.85400000000000        7.19600000000000
C           37.88200000000000        4.36100000000000        5.58500000000000
H           38.27200000000000        3.60200000000000        4.89100000000000
H           38.25600000000000        5.39300000000000        5.51100000000000
C           32.01700000000000        6.16500000000000        7.13600000000000
H           32.46400000000000        6.35300000000000        6.13600000000000
H           32.74500000000000        6.46700000000000        7.91800000000000
H           31.08600000000000        6.76300000000000        7.23300000000000
C           29.08200000000000        4.87500000000000        7.19500000000000
H           29.16700000000000        5.68100000000000        6.43500000000000
H           28.82300000000000        5.33000000000000        8.17500000000000
H           28.28400000000000        4.16800000000000        6.88300000000000
O           33.03200000000000        0.99600000000000       10.01800000000000
H           33.42300000000000        0.20300000000000       10.38500000000000
H           32.82600000000000        1.73600000000000       10.46600000000000
C           31.01100000000000       -0.46800000000000        4.95200000000000
H           30.96700000000000       -0.58500000000000        3.84800000000000
H           30.26200000000000        0.29800000000000        5.24600000000000
H           30.73400000000000       -1.44100000000000        5.41100000000000
S           32.63700000000000        0.02400000000000        5.48600000000000
H           32.56000000000000        1.24600000000000        4.97900000000000
72
 energy: -105.927265130551 gnorm: 0.148144247132 xtb: 6.7.1 (edcfbbe)
Fe          32.74276331943482        0.57303055031386        7.70948763063651
N           30.88429005526179       -0.19638801372693        7.91539121894922
N           33.55768190524589       -1.28740022796864        8.01227680439836
N           34.59263566004448        1.37964232530211        7.39720487414941
N           31.93326811437567        2.43493228632975        7.49814406452126
C           29.81435006827101        0.53378153614850        8.29944512874270
C           28.83364289767264       -0.31224114431068        8.89244400746277
C           29.28969875458991       -1.59512550705498        8.75902485138027
C           30.58104897055134       -1.48051178538876        8.18494776332320
C           32.90579132780194       -2.40909881254972        8.31491950478244
C           33.80931540536461       -3.51563138372305        8.49696295140592
C           35.07680870087212       -2.98935710535460        8.26491463908181
C           34.85547024795403       -1.58441091917488        7.97546105222653
C           35.71286043883595        0.66746819826486        7.24717879632330
C           36.80323305295811        1.48938789667467        6.85630701992498
C           36.31220610021473        2.79202621592882        6.82551763082877
C           34.91803658925391        2.68182298329881        7.18286830928327
C           32.60294770628870        3.59040120635769        7.38412845505584
C           31.67935681249778        4.68316698874139        7.27586491107436
C           30.42427403190774        4.14330558570194        7.30001380580888
C           30.61995321288017        2.73159893948878        7.48169528792537
C           29.64567324149733        1.86438183007492        7.92190052748935
H           28.64552088133781        2.26513303064984        7.99543216790293
C           31.53791575109743       -2.45006618125833        8.41842986951164
H           31.14197874542490       -3.37866093874407        8.79253898722981
C           35.83089972295848       -0.65687507953036        7.65970492478496
H           36.84417216567264       -1.00884161199871        7.76506240986573
C           33.97034277618888        3.70498117641085        7.23973764744107
H           34.33902033278916        4.71678328760656        7.13705747108306
C           28.61809827577937       -2.90996740759021        9.19843122305500
H           27.54514920967927       -2.74875147645776        9.34479240792643
H           29.04731293514681       -3.26536598539835       10.14460162568995
H           28.75277121125011       -3.68830383255061        8.43676056757146
C           27.57592285365595        0.14235085130333        9.56590858679484
H           26.73271031653632        0.03604817340884        8.87295136229216
H           27.66042609832319        1.19269574013062        9.86644054604413
H           27.38731130456510       -0.47578065995329       10.45082935420122
C           33.39836842635653       -4.92476202254277        8.86090887673521
H           32.87424595330658       -5.39866682706716        8.01922618825084
H           32.71889754372425       -4.92215295467921        9.72435554156634
H           34.28167503099407       -5.52647530017358        9.10271376281726
C           36.37062512974744       -3.61879178583593        8.30830164959882
H           37.16170436274489       -2.97366567232816        8.69678732987422
C           36.77909138148142       -4.87498795336756        7.93131791834655
H           36.10042210999092       -5.60828169142856        7.50298906038756
H           37.82101437426315       -5.17648487603878        8.03292004181711
C           38.21770776687331        1.00511950294025        6.57381128301464
H           38.19933794754542       -0.01193782660964        6.16265106797144
H           38.81053672434457        0.99187675053816        7.49851721166355
H           38.70569910042729        1.66411338602370        5.85003475125157
C           36.93940933401477        4.03351852453495        6.54802315308277
H           36.60352076304184        4.86075089512567        7.17638532936457
C           37.86962769066040        4.35018474002368        5.60899224173156
H           38.25458898179190        3.61484035091326        4.90812303695802
H           38.24160997343142        5.36652738779794        5.51803053336950
C           32.01690799666648        6.15434567944178        7.13649915337054
H           32.45918036997193        6.34914510483224        6.15069879266933
H           32.73374433254433        6.46233361973596        7.90650340716101
H           31.10466916474542        6.75225855359934        7.23414299553336
C           29.09607293485860        4.86821866533184        7.19318140042059
H           29.16589964931100        5.66739476805538        6.44586868417756
H           28.82833092712518        5.31995160320369        8.15794285035773
H           28.29941676249839        4.17921231044774        6.88989926190544
O           33.02292077369469        0.97038671740254        9.98483681998746
H           33.42615331815611        0.20538752555361       10.39001883810193
H           32.82438528138375        1.74884255225142       10.47202551173611
C           30.99775893667308       -0.46608316385683        4.94570824242163
H           30.97046713178810       -0.58442357346267        3.85561432548874
H           30.26287153839877        0.28709717117212        5.24827409520636
H           30.74260339184379       -1.42606682284971        5.40858722332551
S           32.64599633046989        0.02547333070660        5.47380805752068
H           32.56167937095002        1.25364060120646        4.97052297664558
72
 energy: -105.954319032691 gnorm: 0.051895884144 xtb: 6.7.1 (edcfbbe)
Fe          32.74813921575912        0.57191531062561        7.70089650475463
N           30.91808483501174       -0.18805361042996        7.97952587692173
N           33.55978659223637       -1.26960031564844        8.01170735480675
N           34.57341841830119        1.37195430588964        7.39718198596033
N           31.94119422220012        2.41506467836159        7.49406449511340
C           29.79943160901123        0.53284472535708        8.28099565867382
C           28.80438765736517       -0.32314122055395        8.87828276872545
C           29.26871489426621       -1.60425339769486        8.77711778854661
C           30.61388882833485       -1.48180993617206        8.26394450690950
C           32.90416809097211       -2.41922203132617        8.30800343711602
C           33.82267266475830       -3.51745588574755        8.48571118358122
C           35.07726557878853       -3.00149201863359        8.26379939731967
C           34.87493463130483       -1.57874265339815        7.98005104241357
C           35.72297806519821        0.65748382530173        7.28236490653753
C           36.81217474075467        1.49956345129674        6.86018220180486
C           36.30974781645308        2.78040479455688        6.82060933972482
C           34.90112488426147        2.67106476063121        7.17526436211985
C           32.61164860020133        3.58816425502743        7.35835697387524
C           31.67513036227419        4.69335266936755        7.26744344150977
C           30.42465932838341        4.14945307063626        7.30294057553314
C           30.61569094688175        2.72857938886127        7.51423189251825
C           29.62283813675842        1.86249391376467        7.92822268278277
H           28.62936180552952        2.27011432735215        8.01801542620344
C           31.53343023671989       -2.50053397404985        8.43004111121781
H           31.13305545289274       -3.43694761154493        8.77272888992885
C           35.86637947965748       -0.67341366174370        7.65815984361065
H           36.87895032471703       -1.03270691341398        7.72557688737545
C           33.98560891638036        3.71203369076354        7.22748789499512
H           34.35530424011440        4.72067069831452        7.12572962938199
C           28.62169879694202       -2.87951863210801        9.19439079212878
H           27.55404448786635       -2.73810067990030        9.34022917237725
H           29.04398409535788       -3.24632127052383       10.13218480378268
H           28.76121567382805       -3.65749152049351        8.44350217919385
C           27.56206806343654        0.14023837517996        9.55113825555370
H           26.71048764139729        0.04317544646003        8.87985224275292
H           27.65383307699953        1.17942632323227        9.85716489121775
H           27.37692957491120       -0.46502830960843       10.43646403377913
C           33.41231612538175       -4.90608945536960        8.85132592060365
H           32.88674387068301       -5.38555258963755        8.02310299440229
H           32.73595697781335       -4.90606759922200        9.70853950473351
H           34.28074587976717       -5.51050997859087        9.10043136635983
C           36.38434393821763       -3.63387729667570        8.30724619808214
H           37.16102938286031       -2.97517350788895        8.69192576794337
C           36.75193578293385       -4.83889237235298        7.94114319138612
H           36.08973926058588       -5.57650339165851        7.51502079502050
H           37.78165585140687       -5.15813885599448        8.03807797581763
C           38.19780335160507        1.01687777326053        6.57835773889589
H           38.18413920580161        0.00735297831015        6.16946229160490
H           38.79522680324481        0.99845950142205        7.49207665806397
H           38.69757612491149        1.66456209409678        5.86565644481173
C           36.94900227325636        4.04754120582736        6.53746175128797
H           36.59973397389299        4.85979541564094        7.17104682899695
C           37.85326997022298        4.33832750172054        5.62226980255649
H           38.24354657685451        3.61740317036698        4.92296172314214
H           38.23769731756305        5.34123903552966        5.52278347578027
C           32.01817675442272        6.13857881347927        7.13323193773314
H           32.46045884826383        6.34385158750493        6.15787041421529
H           32.72851203317359        6.44965102106209        7.89748816116118
H           31.12043256958918        6.74365204399307        7.23453648198044
C           29.11356983271027        4.85849123557413        7.19495825036676
H           29.17095940164244        5.65497370992282        6.45443497069880
H           28.83525986164702        5.31004105222588        8.14914662361253
H           28.31784790331291        4.18010926897510        6.89602718845804
O           32.98620964524389        0.94246034545291        9.94766221134313
H           33.43393516519228        0.22291622317246       10.40008010531285
H           32.83949876875906        1.74133218144086       10.45803647197705
C           30.98517475385509       -0.46312826660018        4.93843966561947
H           30.97083582649055       -0.58148882660598        3.85823861358744
H           30.26253088938099        0.28090173400801        5.25383344789012
H           30.75692457413389       -1.41410368770380        5.41112946192875
S           32.65712710181985        0.03602800038103        5.45376318312489
H           32.56365141713290        1.26881556694425        4.95166795075246
72
 energy: -105.962097860612 gnorm: 0.036965060689 xtb: 6.7.1 (edcfbbe)
Fe          32.75024493606126        0.56726787696045        7.69703595544206
N           30.93800968988296       -0.18390783138539        8.04504794519203
N           33.56375009153481       -1.26061806329144        8.01582096955059
N           34.56802523150155        1.36062963571509        7.40593485417242
N           31.94411283837046        2.40321690614401        7.49437208694026
C           29.79740266711244        0.53260093489866        8.29463891926143
C           28.78488531558707       -0.32488444482392        8.86966882003390
C           29.26749545984145       -1.59910376323382        8.80597282217843
C           30.63526381321978       -1.47771676100403        8.33394531028938
C           32.90830042404288       -2.41962342105876        8.30595723096277
C           33.83470403262429       -3.51137791193162        8.47317740275334
C           35.08265091102325       -2.98999845809365        8.26701811768481
C           34.88414917931466       -1.57139036955793        7.97988867169124
C           35.72787405926755        0.65203916435637        7.30048807521723
C           36.81111841698225        1.50700024731254        6.87396363312173
C           36.29985686579204        2.77671087555555        6.82684855483545
C           34.88934512712741        2.65871749478931        7.17095313181750
C           32.61406650854046        3.57947219473764        7.33932548087578
C           31.67706889982365        4.68567477966120        7.25573455868274
C           30.42941520267559        4.14199042982192        7.31276222309103
C           30.61683484618993        2.72185025769810        7.53685186903334
C           29.61610135081608        1.85973925196903        7.94603391082220
H           28.62282606547295        2.27094179103575        8.04727554140808
C           31.53730010632331       -2.52405133179956        8.44747101750796
H           31.13555269254489       -3.48609216480959        8.73422505693752
C           35.88734467943299       -0.68164112788957        7.64999310948432
H           36.90255090724489       -1.05767680395418        7.66502050943904
C           33.98754706691977        3.70801293795482        7.20898918858485
H           34.36521008033330        4.71378235126861        7.09804562465274
C           28.61588064540360       -2.86911365437590        9.20524540978468
H           27.54734180573319       -2.72739805835135        9.33959803083058
H           29.03346298716084       -3.23988459361468       10.14249375085081
H           28.76821606120370       -3.63654387663716        8.44726738103565
C           27.53342359455658        0.14092395619348        9.52557077108096
H           26.67310445486554        0.05089727342085        8.86471691013601
H           27.63233535843780        1.17768097240537        9.83430372002800
H           27.34673118008281       -0.45854346896222       10.41428791248441
C           33.42948281314373       -4.89490164502197        8.84190192577328
H           32.90534223589813       -5.37693558706224        8.01603294820497
H           32.75339962043395       -4.88505359520194        9.69726563296185
H           34.29701195739371       -5.49507989177667        9.09856149971527
C           36.39331044490846       -3.61357473928615        8.32140834760531
H           37.17043402714044       -2.95599627405544        8.69970769844906
C           36.73498278271271       -4.84166260928015        7.94986274138161
H           36.05747252218409       -5.55682125826823        7.51663236856074
H           37.75839273674561       -5.17573360311482        8.03607252953010
C           38.19108221373038        1.02894673936005        6.59007947649077
H           38.16995069081206        0.02397297640792        6.17395101109789
H           38.78687155804815        1.00360103772769        7.50345937288134
H           38.69375423483059        1.67996750079573        5.88379802036275
C           36.93812229852806        4.05248542855073        6.54396242090676
H           36.58339073165650        4.86415917162850        7.17215306097470
C           37.85333556631755        4.32772519957071        5.62673459647936
H           38.23127243107110        3.60381954590689        4.92675628329189
H           38.24528680733560        5.32565147298635        5.51767040774364
C           32.02660093587343        6.12613590902411        7.12380287797322
H           32.47128131198478        6.33597454572176        6.15136145739558
H           32.73695569511691        6.42955593078775        7.89040339842651
H           31.13420970303507        6.73742256636835        7.23066463449953
C           29.12244733500541        4.84830158070263        7.20217911185790
H           29.18086627563796        5.64255819389020        6.46029964789831
H           28.84028726047908        5.30109829153013        8.15355644941647
H           28.33045192856906        4.16782963414756        6.90274115396756
O           32.90740471819348        0.89841192980536        9.92797079233589
H           33.46478004791728        0.24569629621777       10.39668492388300
H           32.87155134316866        1.74011427335595       10.42122694485619
C           30.98485311117924       -0.45312197061885        4.93449217419077
H           30.96364163687547       -0.57451382243686        3.85648093575189
H           30.26004913459711        0.28107229537362        5.26458299965550
H           30.78450308075470       -1.40403844663923        5.41863257661261
S           32.66715499374629        0.06533423921780        5.42791200996064
H           32.56256226192701        1.29601545656129        4.91805309101203
72
 energy: -105.965674227711 gnorm: 0.024367379696 xtb: 6.7.1 (edcfbbe)
Fe          32.74971084435840        0.56468304252332        7.71676189340122
N           30.95139753192351       -0.18292218492446        8.09692961489568
N           33.56773544284438       -1.25273356296024        8.01340344544678
N           34.56597421490124        1.34813257360774        7.41872047329069
N           31.94702591412586        2.39361308050486        7.50111020081797
C           29.80491186692388        0.53049722006804        8.31477495621075
C           28.77366425925882       -0.32479932091397        8.86317280237932
C           29.27531700598061       -1.59043863259663        8.83974459020405
C           30.65254779787516       -1.47342177043352        8.39638604770877
C           32.91275350104755       -2.41521526992136        8.29695519934346
C           33.84415603390556       -3.50301112752089        8.45481725329814
C           35.08956867444685       -2.97586719161038        8.26044208220667
C           34.88990259661739       -1.56428852333778        7.97245937291750
C           35.73053582411581        0.64753461572497        7.30946555831258
C           36.80776384066970        1.51345633811945        6.88725942854433
C           36.28742560124572        2.77552642511018        6.83162172280877
C           34.87935682178731        2.64573929208714        7.16943911841831
C           32.61470244883211        3.56899862735148        7.32313492164517
C           31.68087654854111        4.67268290958343        7.24119081841457
C           30.43538381419848        4.13021064261389        7.32682301968300
C           30.62187906278209        2.71392484912525        7.55938514505402
C           29.61830118342841        1.85557076883625        7.97034149905948
H           28.62426374904692        2.26695725226750        8.08037445708246
C           31.54322384091361       -2.53559888360096        8.45774651195302
H           31.14412856514075       -3.51681668980661        8.69619089566343
C           35.90214071261015       -0.68901631835888        7.63018415200542
H           36.91496280280789       -1.08009809769516        7.59780934869300
C           33.98551748801815        3.70004817275518        7.18742572045911
H           34.37145123376330        4.70083013285016        7.05334735616473
C           28.61120099578707       -2.86356603648669        9.22596287576174
H           27.54136582641897       -2.71510852739059        9.34760578146663
H           29.01944473123756       -3.24346765229421       10.16377335587062
H           28.76953724510345       -3.62081791481066        8.45844032306920
C           27.50278201585373        0.14257347484475        9.48940032608850
H           26.64400712841271        0.05624715427582        8.82510338612649
H           27.60048098068625        1.18030137632425        9.79831847472513
H           27.30245406429549       -0.45322567394884       10.37947034164099
C           33.44774054926864       -4.88569039188359        8.83315802884493
H           32.92912877456239       -5.37522432352624        8.00813099239715
H           32.77081041632873       -4.86582873335713        9.68755575845735
H           34.31949286493067       -5.47700978393340        9.09804562652674
C           36.39936302584630       -3.59195383353859        8.32563077850707
H           37.18184269913822       -2.94815026568693        8.70716569170777
C           36.71762518260417       -4.83091212776725        7.95200169723885
H           36.01060822751655       -5.52180266101816        7.52942262995572
H           37.73052647584375       -5.18827210424746        8.04886672682702
C           38.19049961145920        1.04120606362050        6.60669908307544
H           38.16581512481194        0.04254122867991        6.17497576883614
H           38.78055865508532        1.00354966701784        7.52380749993487
H           38.69584245741706        1.70341255011970        5.91166057410420
C           36.92032132255199        4.05499792538679        6.54782616110722
H           36.57040912061407        4.86917283603057        7.17232658708355
C           37.84258553794140        4.31595236491140        5.62646555383058
H           38.21596147398031        3.57845621517314        4.93908511334771
H           38.25087141502524        5.30743886867637        5.51595011213424
C           32.03951911706288        6.11204253251565        7.10720462358363
H           32.48807652063868        6.32172256825565        6.13605888279957
H           32.75235123717017        6.40407457174856        7.87771969181794
H           31.15158127877537        6.73074240787369        7.21801465764762
C           29.12770410256342        4.83574990058836        7.21541960745082
H           29.19033751869281        5.62868950667943        6.47143207220166
H           28.84261965641588        5.28922925316426        8.16590257958876
H           28.33961382540766        4.15104356947963        6.91329594206552
O           32.93748480636951        0.90204057759345        9.90175548309197
H           33.43470344087301        0.24723909984721       10.38175694822524
H           32.87857450552805        1.71629912563462       10.40538668512092
C           30.98495822418067       -0.44104585496281        4.93671040898633
H           30.95350520606319       -0.56245286892766        3.85867675135343
H           30.25468073366428        0.28263716984757        5.28021295710961
H           30.81377213555339       -1.39465952821715        5.42826039136995
S           32.66899165188403        0.10029649534048        5.41841232500075
H           32.55567089432426        1.32535340891991        4.89251313783825
72
 energy: -105.966845462659 gnorm: 0.046430442405 xtb: 6.7.1 (edcfbbe)
Fe          32.74968157780055        0.56263317919425        7.72759046669070
N           30.95731751146837       -0.18433368349730        8.12857848673070
N           33.56910140905128       -1.24605396918046        8.00638482116039
N           34.56711785488643        1.33910674359403        7.42532769326357
N           31.94962536852910        2.38742097624990        7.51597467356218
C           29.81534772800863        0.52643154073781        8.33357887464907
C           28.77060560891266       -0.32613168656394        8.86057010855685
C           29.28494661844459       -1.58484778392026        8.86774946835974
C           30.66136699509250       -1.47171138487652        8.43809273528415
C           32.91489771826441       -2.40766998799995        8.28577211347213
C           33.84782943595452       -3.49504008220608        8.43799817508896
C           35.09383941707238       -2.96427675799486        8.24868186570417
C           34.89024498457370       -1.55849452438607        7.96042114155133
C           35.73247868232481        0.64563186329697        7.30872151432142
C           36.80699309033606        1.51790644156089        6.89748030979636
C           36.27976019527024        2.77657088761618        6.83652607857836
C           34.87458370656064        2.63635156196430        7.17006901372047
C           32.61409867834024        3.55954913808833        7.31585737022596
C           31.68451564420114        4.65994052904068        7.23029889654630