87
 energy: -124.720037886444 gnorm: 0.000090754543 xtb: 6.7.1 (edcfbbe)
Fe           2.77829725431609       20.89809034845661       13.07872335024325
N            4.19515288093429       19.78569438880688       12.21380313421886
N            3.38077663245980       20.26052571042762       14.88006439447444
N            1.38270766581125       22.04465499409240       13.95782167998067
N            2.20236485995683       21.57316609771059       11.28215585575272
C            4.47709993848318       19.71118877111434       10.88730248765472
C            5.56643853647161       18.78900975884070       10.64664558345350
C            5.93136019487778       18.30537278893970       11.86279239595675
C            5.06559978674069       18.94606603568255       12.82938140240167
C            4.37291818534205       19.36977861030203       15.14230775924256
C            4.51384718064284       19.16581221145455       16.56725356494383
C            3.58447717272674       19.96265205882125       17.15991543256498
C            2.88882805308912       20.63985698200036       16.08847549020861
C            1.17469791757485       22.20267101639169       15.28928290070577
C            0.10788748983818       23.15390016448113       15.53268015340059
C           -0.29637443791700       23.59115524732280       14.29871356215304
C            0.51452147490372       22.89098671048076       13.33653526617208
C            1.17530770923975       22.42259094206728       11.01753959366269
C            1.05388426315125       22.64617747846942        9.59026022751600
C            2.07357903950097       21.93915701750297        9.01234229327261
C            2.76115128621730       21.26623166936771       10.08275256124452
C            3.82723489758969       20.40519413558293        9.88834840758297
H            4.16621646344113       20.25738333990286        8.87441985004969
C            5.15496644668010       18.73831695614631       14.19284767465039
H            5.89967385147106       18.04056492312721       14.54464847749819
C            1.86064251392032       21.54043686740201       16.29102672425724
H            1.57465281235566       21.74351702134801       17.31158977725792
C            0.40514112847826       23.06552409476701       11.96727144510212
H           -0.32606292674914       23.77400537622055       11.61093417860337
C            6.12100209628376       18.47603081088564        9.29941629694942
H            6.49277719522556       19.38071673148273        8.81759233015653
H            5.35028119023741       18.04502182818657        8.66021622188011
H            6.94089900933049       17.76573603796852        9.37341492580559
C            6.99393132339401       17.31916992542487       12.20903997300251
H            6.56334204526285       16.45822849615817       12.72048742108013
H            7.73682783702529       17.76775393895895       12.86966453964865
H            7.50098429193354       16.96701225619219       11.31411833405716
C            2.40512375990925       21.80867508652227        7.56611761932030
H            2.25996482850077       20.78127289436380        7.23022679103363
H            3.44607399931496       22.07792002509290        7.38531515515995
H            1.76819682259473       22.45517141435375        6.96743039260832
C            0.05046813628690       23.44039043395475        8.91163458022079
H            0.40614175802473       24.00385358977895        8.05539655363204
C           -1.23937961315111       23.49053975636469        9.22490976559437
H           -1.65598287231424       22.90849926471112       10.02967136526538
H           -1.93151937740544       24.10018114459248        8.66796558431043
C           -1.31341923519279       24.62795561227083       13.97088510539287
H           -2.26517206381310       24.16899787556146       13.69697244639733
H           -0.98390305636817       25.24154144671718       13.13364779630332
H           -1.47926794383090       25.27249477159993       14.83184049457823
C           -0.36557677251898       23.54542994941284       16.84150770889701
H            0.38145233147010       23.55230507826369       17.62694888698374
C           -1.61685204248295       23.87838945773759       17.14174808800232
H           -2.40982955392222       23.84368469008181       16.41523046288832
H           -1.89710311409086       24.17367790461850       18.13933655738129
C            3.28348679779475       20.14721077449350       18.60753645058972
H            2.25060036371357       19.87166850153216       18.82222058918284
H            3.42249067491992       21.18870269074046       18.89888667706218
H            3.93639145425586       19.53048309464744       19.22038314677398
C            5.50275349268429       18.24108350625319       17.19046848580263
H            5.34380254234067       17.21983466616905       16.84311103619037
H            5.41229166807515       18.25156971170069       18.27385719585894
H            6.52073233003484       18.53163006659061       16.92871408550977
C            5.29553287180759       25.87570623299254       12.94680601152528
H            6.11261877024625       26.01529945879723       12.23902813481627
H            5.58597205587445       26.32643603508419       13.89580741817973
H            4.41750228671602       26.39158162782403       12.57105203965221
N            5.91290995834126       23.53192846802819       13.57831654251966
H            6.86282941472817       23.74313116345392       13.83651924569656
C            4.98812015218071       24.43345819604253       13.11990491369121
C            5.31746931049105       22.31897184503947       13.61889626194064
H            5.80405328221276       21.42087462463561       13.93861926041319
N            4.07343410134665       22.39778921591982       13.21469782435224
C            3.85354760643349       23.70617253201280       12.90061022968652
H            2.90137345746535       24.03592282807133       12.54039390953810
C            1.33213048144121       17.49521743400026       15.14803369124799
H            0.91962139612096       17.27487902440910       16.13064829902588
H            2.37468725122360       17.77622310617115       15.26360135259341
H            1.28260534427870       16.59804831158435       14.53552561020793
C            0.55236417737816       18.62159667763285       14.49810220445810
H            0.58194420310279       19.52495663611070       15.10486635293585
H           -0.48219743873179       18.32459963989002       14.32624519776915
S            1.26824954620729       19.02224901930410       12.85125753190035
C           -0.24786710477997       19.65753602217882       12.07172686253466
H           -0.62038631222905       20.50842553203401       12.63314603029646
H           -0.98605748494634       18.86067456186209       12.03254108870637
H            0.01654409803074       19.96780665631091       11.06690529862238
