78
 energy: -115.965048861538 gnorm: 0.261682049162 xtb: 6.7.1 (edcfbbe)
Fe          35.21700000000000        3.90200000000000       10.01200000000000
N           37.18599999999999        3.66300000000000        9.43000000000000
N           34.99900000000000        5.20400000000000        8.44400000000000
N           33.31000000000000        4.30100000000000       10.64400000000000
N           35.52799999999999        2.72000000000000       11.67900000000000
C           38.08100000000000        2.82200000000000       10.06000000000000
C           39.31300000000000        2.82300000000000        9.29600000000000
C           39.14699999999999        3.63000000000000        8.23400000000000
C           37.81100000000000        4.16100000000000        8.30200000000000
C           35.92900000000000        5.47500000000000        7.45800000000000
C           35.31700000000000        6.35600000000000        6.48500000000000
C           34.06400000000000        6.60900000000000        6.89700000000000
C           33.84000000000000        5.88500000000000        8.14000000000000
C           32.45200000000000        5.23100000000000       10.08000000000000
C           31.31200000000000        5.39800000000000       10.97000000000000
C           31.49600000000000        4.59800000000000       12.03300000000000
C           32.75400000000000        3.89600000000000       11.83400000000000
C           34.59300000000000        2.51500000000000       12.68400000000000
C           35.18700000000000        1.71900000000000       13.73100000000000
C           36.61400000000000        1.46700000000000       13.29300000000000
C           36.74400000000000        2.12100000000000       12.00800000000000
C           37.87899999999999        2.12700000000000       11.23500000000000
H           38.71000000000000        1.51700000000000       11.58800000000000
C           37.22400000000000        5.01800000000000        7.39800000000000
H           37.83700000000000        5.36300000000000        6.56500000000000
C           32.67600000000000        5.87700000000000        8.87900000000000
H           31.83900000000000        6.44300000000000        8.47000000000000
C           33.29300000000000        2.96300000000000       12.69000000000000
H           32.62800000000000        2.54000000000000       13.44300000000000
C           40.17899999999999        3.93400000000000        7.11700000000000
H           41.11700000000000        3.37300000000000        7.31600000000000
H           40.40600000000000        5.02100000000000        7.10100000000000
H           39.77199999999999        3.61700000000000        6.13300000000000
C           40.55799999999999        1.98300000000000        9.66100000000000
H           40.23900000000000        1.05300000000000       10.17800000000000
H           41.21700000000000        2.56500000000000       10.34000000000000
H           41.11100000000000        1.71000000000000        8.73700000000000
C           36.05200000000000        6.86600000000000        5.22000000000000
H           36.91300000000000        6.20000000000000        4.99800000000000
H           36.42900000000000        7.89600000000000        5.39500000000000
H           35.35700000000000        6.85800000000000        4.35300000000000
C           32.99800000000000        7.49400000000000        6.20700000000000
H           31.92800000000000        7.36100000000000        6.42400000000000
C           33.36900000000000        8.44000000000000        5.33100000000000
H           34.43200000000000        8.59600000000000        5.09500000000000
H           32.61500000000000        9.07100000000000        4.83800000000000
C           30.13300000000000        6.35900000000000       10.71400000000000
H           30.29300000000000        6.89500000000000        9.75400000000000
H           30.07000000000000        7.10400000000000       11.53600000000000
H           29.18600000000000        5.78200000000000       10.65100000000000
C           30.60600000000000        4.38800000000000       13.28400000000000
H           30.84300000000000        3.58400000000000       13.99600000000000
C           29.54000000000000        5.15800000000000       13.54100000000000
H           29.26300000000000        5.97500000000000       12.85800000000000
H           28.92800000000000        4.98300000000000       14.43800000000000
C           34.51900000000000        1.24500000000000       15.03800000000000
H           33.75200000000000        0.47500000000000       14.80500000000000
H           34.02600000000000        2.10400000000000       15.54000000000000
H           35.28300000000000        0.80000000000000       15.71000000000000
C           37.69200000000000        0.71900000000000       14.09600000000000
H           37.21000000000000       -0.04800000000000       14.73900000000000
H           38.24400000000000        1.43500000000000       14.74100000000000
H           38.39600000000000        0.21400000000000       13.40000000000000
C           32.34600000000000       -0.28100000000000        7.46600000000000
H           32.61600000000000       -1.31000000000000        7.78700000000000
H           32.24800000000000       -0.26400000000000        6.36000000000000
H           31.38100000000000        0.00200000000000        7.93800000000000
N           34.72899999999999        0.56700000000000        7.47300000000000
H           35.06500000000000       -0.13100000000000        6.84200000000000
C           33.42000000000000        0.67700000000000        7.89500000000000
C           35.45200000000000        1.52500000000000        8.03500000000000
H           36.51700000000000        1.67700000000000        7.86300000000000
N           34.66100000000000        2.24000000000000        8.81900000000000
C           33.39000000000000        1.72100000000000        8.75900000000000
H           32.58100000000000        2.14600000000000        9.33900000000000
O           35.66899999999999        5.60100000000000       11.54900000000000
H           34.81800000000000        5.95100000000000       11.81300000000000
H           36.46400000000000        5.87600000000000       11.83800000000000
78
 energy: -116.020950257013 gnorm: 0.109342148747 xtb: 6.7.1 (edcfbbe)
Fe          35.22680330644395        3.91611549236701       10.01749418006346
N           37.18346163982839        3.65400269047826        9.43545809978119
N           34.99149751683235        5.19995967627692        8.44217442715112
N           33.32101020395441        4.31917727752863       10.66027190997676
N           35.52965020058214        2.73110192289322       11.67331498596698
C           38.07975643284095        2.82639240956506       10.06066289223159
C           39.31946700454507        2.80660911099432        9.30094845673346
C           39.15333247337318        3.62708793754516        8.23208712492083
C           37.80756636079520        4.15303901966804        8.31848456843706
C           35.91104407528739        5.47973869462257        7.46260674857193
C           35.31685381765054        6.36356139796812        6.47683364957992
C           34.04176320035541        6.61722067371186        6.88528601498800
C           33.84117162350022        5.87398133261026        8.12723693924985
C           32.45403077895704        5.22361006088379       10.09266074752756
C           31.30356271381215        5.39875294859195       10.96720680171033
C           31.48179846929850        4.57865111048069       12.04479143254349
C           32.75055898976420        3.88924842813292       11.82902740837189
C           34.61933392886464        2.48751817329037       12.67157987462106
C           35.22806383161932        1.70351584443634       13.71950481013894
C           36.57097440926673        1.47118227061911       13.30767407823588
C           36.71292157754561        2.12054999272101       12.02262991986352
C           37.86467902218838        2.12984359014306       11.24192960315719
H           38.69685748393422        1.52914996276530       11.59662011697756
C           37.21496627071539        5.01403453217161        7.40961953355309
H           37.82987155721016        5.35261064718903        6.58071474183443
C           32.67748960535440        5.87061503810927        8.88110859131511
H           31.85009716253816        6.44816975567330        8.48074817051049
C           33.30678379401872        2.95278131654487       12.68716271811744
H           32.65336628099666        2.55771690667110       13.45891868722648
C           40.16127124880853        3.93092365348505        7.13444089530222
H           41.09394185141934        3.38610590006947        7.31553587698968
H           40.39403565284996        5.00124988519800        7.10332589714251
H           39.77272303778373        3.62773583753088        6.15463373863329
C           40.54322130377447        1.98858855960245        9.65954869824874
H           40.24611042750907        1.06655066006473       10.16848100075730
H           41.20400619055543        2.55535779450072       10.32631499578763
H           41.10117750498144        1.71802415734697        8.75701952228603
C           36.04437481430821        6.85389667065084        5.23678602430444
H           36.89619863171782        6.20818459341428        5.00300682999451
H           36.42447325314588        7.87149340065959        5.39336747043768
H           35.37005635445664        6.85387380279173        4.37297761875702
C           33.02629256954223        7.48612722577363        6.21206496642829
H           31.97021836664174        7.34127111602785        6.43944771854649
C           33.36707714832359        8.43330710579721        5.33984137894098
H           34.40325926189539        8.61897273724883        5.09949314733075
H           32.62308497132262        9.05510916633483        4.85084586969869
C           30.15332603649466        6.35030030133868       10.70395711006408
H           30.29335703876912        6.88651385327304        9.76185664954299
H           30.08139339664014        7.09612020056047       11.50506816291040
H           29.20873306614759        5.79404903811340       10.65043457608120
C           30.61406873204109        4.39880309024466       13.25403310253186
H           30.86562024836775        3.60071954168675       13.95256560166184
C           29.55036385477230        5.15062411332682       13.53500789337346
H           29.24999934728882        5.96049614342239       12.88983557494094
H           28.94779212402890        4.97842574480225       14.42211558788672
C           34.54577037737447        1.25247727756670       15.00245517738259
H           33.77572345802810        0.49405334973472       14.79763906980391
H           34.04951464068895        2.08828652223285       15.51471098204602
H           35.27294891373492        0.81264875697266       15.69246288523976
C           37.65394728664187        0.73590692061537       14.07944992368106
H           37.21233195465306       -0.03141530024011       14.72534016209761
H           38.22394200288144        1.42435728228101       14.71948991238130
H           38.36656262888545        0.23571341476692       13.40982347178743
C           32.35259099567763       -0.28175479650864        7.46629638668825
H           32.60674141532770       -1.30145442328334        7.77886118007153
H           32.24336337357290       -0.26835209294371        6.37576249477085
H           31.40086804175865       -0.00201660794825        7.92610802678517
N           34.71819329991604        0.56059911786658        7.46757005789618
H           35.05985079918965       -0.13920296516364        6.83224370880462
C           33.41923613035624        0.66709481654677        7.89857525071115
C           35.43847134072275        1.53409861709236        8.04517622471005
H           36.49230734195827        1.68340274299432        7.87432630782059
N           34.66694579006710        2.25739901202828        8.83103429335394
C           33.40588816253002        1.72609470276554        8.75689960674911
H           32.59935168730491        2.14691466668114        9.32846082881052
O           35.65562353406339        5.59986005417460       11.51788466709666
H           34.82342212386985        5.95791942154164       11.82301113850720
H           36.48449453513646        5.88960700230751       11.85265510086806
78
 energy: -116.038827489038 gnorm: 0.039364265431 xtb: 6.7.1 (edcfbbe)
Fe          35.23223834513375        3.92090939104899       10.02193995182049
N           37.17776864274546        3.64925966677562        9.45020534514514
N           34.98355240338444        5.19094271022212        8.44269144255438
N           33.32836298606928        4.32582311278198       10.66824373098941
N           35.52888657037442        2.73639136342068       11.66394805719801
C           38.07258568654927        2.82862026093888       10.06556687086867
C           39.31599822667955        2.79430783428339        9.30995736723557
C           39.14816565376751        3.62363716253802        8.23833161976165
C           37.79620812620680        4.14443814647914        8.33973774381814
C           35.89608154327277        5.47606731744702        7.47156408388603
C           35.32175106047597        6.36282004036389        6.47935746702957
C           34.03071600660492        6.61765797198922        6.88175871109010
C           33.84295264995351        5.86060686816291        8.12054334854063
C           32.46403569384015        5.21929265400396       10.10294185299507
C           31.30554917376123        5.39793429291110       10.95707944264319
C           31.47579972056998        4.56328921281230       12.04380538585135
C           32.75279351388637        3.88638957193733       11.82312682759158
C           34.63531434243851        2.47728449708505       12.65614691934608
C           35.25805616511083        1.68967445575924       13.70108879026714
C           36.53336548322427        1.47461385210586       13.31415648906259
C           36.69069301942591        2.12613847006895       12.02677089935147
C           37.85160529485226        2.13456407947032       11.25039257216831
H           38.68385975707896        1.54467509773616       11.61240964775463
C           37.20383970475819        5.00403127968129        7.42581465880932
H           37.82193681901043        5.33672814363726        6.60187396172674
C           32.68331246648268        5.86808281629002        8.88637525785583
H           31.86388549564577        6.45753621117111        8.49639910674664
C           33.32274576862633        2.95613960324976       12.68707282194766
H           32.68675268729883        2.58821248129407       13.48295121189707
C           40.13608711529360        3.92840463853281        7.15577366559258
H           41.06773704234740        3.39357473675978        7.32579342911511
H           40.36872954124527        4.99153135263584        7.11699562770073
H           39.75579601579783        3.63529286175876        6.17707871903081
C           40.52552561573225        1.99318982569296        9.66069178696889
H           40.24618849367928        1.07283171202904       10.16560795189799
H           41.18779483168435        2.55383841113047       10.32040836597522
H           41.08827058721590        1.72935700698973        8.76812647074586
C           36.03689204200676        6.83972330968911        5.25715168526785
H           36.88169572160175        6.20081853547036        5.01765886001436
H           36.42101737627166        7.85118065267482        5.40022632362541
H           35.36946851626604        6.84736165010760        4.39706882990033
C           33.05764304096267        7.46654699095590        6.22572991525540
H           32.01251156135321        7.30778580337573        6.46715170987002
C           33.36364291435737        8.42560560999386        5.35341308092771
H           34.38071797322529        8.65161908224735        5.10311262852826
H           32.61622990455052        9.03355877942214        4.87146990773794
C           30.17626935518282        6.33915465830218       10.69144329330064
H           30.30714895825445        6.86930816823092        9.75479473855047
H           30.10240793874670        7.08796069484588       11.48037682299900
H           29.23020080558819        5.79738498040326       10.64940680179484
C           30.62952701749864        4.40142586452563       13.20963681341945
H           30.90226909677271        3.60944670193218       13.89857898156037
C           29.56320540690306        5.13802063885092       13.52277284561525
H           29.23186502423604        5.95328811451563       12.91425258620134
H           28.98069575842298        4.96148846012418       14.41250949890717
C           34.57250744877921        1.25713338443070       14.96570126366186
H           33.80054047016773        0.50969528106290       14.76587933277429
H           34.08218716180739        2.09197228702296       15.47014175274109
H           35.28177241177036        0.82186409127879       15.66564746009810
C           37.61650703565446        0.75087527981225       14.06286987751772
H           37.19500768792910       -0.01515623119839       14.71123696087469
H           38.19160185998970        1.43429655958329       14.69324140789310
H           38.32500432310120        0.26161277038746       13.39465609978672
C           32.35671528382108       -0.28016932469429        7.46964330681522
H           32.60174581553804       -1.29631513537131        7.77434955641664
H           32.24431440462552       -0.26684770010371        6.38695022324930
H           31.41170909251079       -0.00142930600355        7.92133819298536
N           34.71210243336375        0.55829928006221        7.46620127259111
H           35.05903930432201       -0.14008142365075        6.82793525787529
C           33.41908531405279        0.66187167266017        7.90495718097107
C           35.42766029713481        1.54346209609212        8.05307011883814
H           36.47390436697054        1.69191164741048        7.88326262343064
N           34.66885645950427        2.26953364961014        8.83839686441820
C           33.41638767812572        1.73086955382899        8.75712307728102
H           32.60818951798377        2.14784075410136        9.32052482775329
O           35.66300804792058        5.63818465910060       11.43933005256195
H           34.85011632695080        5.95974706786253       11.85234006914317
H           36.48668659555090        5.88606127985228       11.87872029386648
78
 energy: -116.042996689269 gnorm: 0.061027102038 xtb: 6.7.1 (edcfbbe)
Fe          35.23541891240927        3.92481066066720       10.02533093722992
N           37.16912487222899        3.64132601126028        9.46301300678983
N           34.97927100599340        5.17423828492324        8.44287202211537
N           33.33697208203764        4.32640171769751       10.66456525013508
N           35.52885770135929        2.74593652969420       11.65695963857313
C           38.06693593956084        2.82611493272680       10.07383743584940
C           39.30691343693871        2.78826185184221        9.31975359212044
C           39.13533497688007        3.61802854793478        8.25083041856351
C           37.78499992244150        4.13587315169802        8.35528239577130
C           35.89368825546305        5.46291933064114        7.47933412857203
C           35.33073579317411        6.35234768521046        6.48968477552925
C           34.03912073305044        6.61051090251703        6.88841585122184
C           33.84581780261275        5.84841107572134        8.11967486398607
C           32.47428689914235        5.21565251054918       10.09660265061859
C           31.31499171693288        5.39605138850629       10.93779877514152
C           31.48024289790933        4.56143375740886       12.02611983376033
C           32.75664475441769        3.88772403745014       11.81307874410633
C           34.63013477263507        2.48343087903619       12.64136877121842
C           35.24667243095993        1.68939816681721       13.68593202499039
C           36.53032712747982        1.47459621244672       13.30103978362582
C           36.68728833222399        2.13222836064330       12.01775779515015
C           37.85003520045850        2.13676760777085       11.25729996704846
H           38.68241532047242        1.55733004160967       11.63221108836150
C           37.19929192924477        4.99142916809301        7.43873925041925
H           37.82084766836414        5.32074829746882        6.61838588730952
C           32.68994316125698        5.86705780898393        8.88448854660244
H           31.87817951704461        6.47437250681439        8.50745502816737
C           33.32683359378291        2.96737976178052       12.68446386136320
H           32.70964927786192        2.62747953331028       13.50886604414278
C           40.11335686725381        3.93107482606136        7.16940572884345
H           41.04732968516231        3.39973501623866        7.33553729428442
H           40.33743488432430        4.99610787840888        7.13554224535273
H           39.72781341931958        3.64141453009514        6.19188961084048
C           40.51653132295487        1.99202516261935        9.66820318064844
H           40.24429121953074        1.06779421660661       10.17052562761831
H           41.17617859763423        2.55575500132129       10.32810354879911
H           41.08018298009000        1.73647707488753        8.77375667335076
C           36.04013512697945        6.82463023991065        5.26906860892447
H           36.87921553965191        6.17974937034015        5.02549506323698
H           36.42869581003438        7.83443450926468        5.41004172255676
H           35.36369312807436        6.83775443746644        4.41610554282738
C           33.06849210129329        7.45429290259235        6.24025724388755
H           32.02947487950662        7.27478776113801        6.49101660235187
C           33.34740711058694        8.42555083827414        5.36955589691001
H           34.35702765841971        8.69360915407890        5.11648151717249
H           32.58055244267084        9.01477588395696        4.89656933585543
C           30.19454273211009        6.33801553580942       10.66656495981530
H           30.32281137913172        6.85194902629539        9.72031940323385
H           30.13553162095999        7.10014183430595       11.44405206597951
H           29.24464824913280        5.80159795856666       10.64357726700355
C           30.64273499199519        4.39626850113657       13.18572962679169
H           30.93533678297876        3.60015232546559       13.86077264076399
C           29.57142590002941        5.11660003105314       13.52605918170572
H           29.20444450216011        5.93675563654479       12.93974543283257
H           29.01320504188975        4.91891651370794       14.42592710013287
C           34.57243915447244        1.25961154790035       14.94581761568993
H           33.80251846333731        0.51533507852130       14.73924982999373
H           34.09458976219920        2.10475197250601       15.44005343008801
H           35.28776957278641        0.82658946196663       15.63964422910486
C           37.60471052574770        0.75503737439775       14.04810333411333
H           37.17923738048224       -0.00643532383795       14.69758767671618
H           38.17298008425400        1.44796702584034       14.67123286773313
H           38.30375497776163        0.27033834640537       13.37109787155719
C           32.35859463271884       -0.27606466739309        7.47418795214745
H           32.59941839455946       -1.29476708898992        7.77474547286307
H           32.24704702205788       -0.26039123159913        6.39135159658342
H           31.41297947972653        0.00339355725397        7.92377031598065
N           34.71218827835477        0.56352253170453        7.47099868192269
H           35.06037836150833       -0.13207900189466        6.83012969613980
C           33.41995620533863        0.66487029928379        7.91285924996378
C           35.42478889714410        1.55202304780678        8.05881239720221
H           36.46949585634540        1.70343847952534        7.88853925053979
N           34.66731077001987        2.27631765852292        8.84485736490563
C           33.41711873323774        1.73569803585420        8.76283891359814
H           32.60585939456959        2.15244056339611        9.32088030453052
O           35.68749841717702        5.72719437891500       11.33134657550693
H           34.88414249637665        5.93908438427549       11.89413576119141
H           36.49475313161106        5.86449668226852       11.90929412172504
78
 energy: -116.045886816866 gnorm: 0.041901070040 xtb: 6.7.1 (edcfbbe)
Fe          35.23978744460783        3.93001023192040       10.02898892299730
N           37.15709965615108        3.63173561582190        9.48027862513880
N           34.97523544090015        5.15199195822007        8.44516709584667
N           33.35102236511809        4.32669820173361       10.66012762686824
N           35.52922530677041        2.76042435742867       11.64680191885454
C           38.05973890089139        2.82200218395502       10.08543887714905
C           39.29390161036368        2.78215105736995        9.33255959124370
C           39.11726955471771        3.61103567787995        8.26826082875811
C           37.77039382657195        4.12591589833139        8.37493954485872
C           35.89320543510477        5.44543578743653        7.49050824533467
C           35.34328122075740        6.33900398939185        6.50667525038248
C           34.05394395673233        6.60113828403095        6.90105785301441
C           33.85060831397280        5.83454381198833        8.12236576156927
C           32.48968643165622        5.21228367648574       10.08845383483159
C           31.32911817765131        5.39156027936388       10.91337793073971
C           31.48808248153568        4.55841859646992       12.00083047836763
C           32.76344633144814        3.88931672014741       11.80128308258439
C           34.62132838167044        2.49371622421477       12.62198167495808
C           35.22724829212850        1.68961824434401       13.66465919286015
C           36.52912493233547        1.47245474614919       13.27877581647500
C           36.68530397285420        2.13982430595048       12.00294069736374
C           37.85010168384962        2.13857390962451       11.26651835357506
H           38.68121814222980        1.57062971400084       11.65812395493298
C           37.19487975463545        4.97586243754556        7.45524619862971
H           37.82110595670148        5.30206303927191        6.63964876069820
C           32.69997595322437        5.86811703961730        8.88399140198280
H           31.89719875536066        6.49643035133745        8.52286890928519
C           33.33205653478426        2.98299228571969       12.68273650364083
H           32.73931433668855        2.67300081681817       13.53876913550343
C           40.08554959045647        3.93554058984374        7.18557464831254
H           41.02333558681453        3.40766638635511        7.34717420943766
H           40.29827258773226        5.00447225246993        7.16012768318991
H           39.69199402996766        3.64957336485130        6.20895328698009
C           40.50635197017728        1.98936006590755        9.67835610818037
H           40.24073522555226        1.05913369985386       10.17691574005732
H           41.16222662269261        2.55764343838259       10.34046778432697
H           41.07072022799688        1.74467467964573        8.77947556682035
C           36.04487535751760        6.80970722443387        5.28451960540665
H           36.87687595066313        6.15547708237327        5.03422083758162
H           36.43974254905766        7.81784079786708        5.42505627045209
H           35.35423652793344        6.83073985970951        4.44104178355933
C           33.08034144998157        7.44182196259790        6.25981140087825
H           32.04770797043967        7.23595443863870        6.51864251463845
C           33.32980895721250        8.42780416769739        5.39323687408721
H           34.33092681710917        8.73965312565365        5.13200981801310
H           32.53720342735598        8.99392292906594        4.93138330768787
C           30.21378302759006        6.33417278194508       10.64047995892592
H           30.33824957002474        6.83147226439006        9.68217559852878
H           30.17221253189618        7.10803741990771       11.40963232350875
H           29.25981134251055        5.80259553403677       10.63857530898199
C           30.65674576451015        4.38781866265291       13.15775214665218
H           30.97037765706513        3.58719496807918       13.81820603512004
C           29.58194726851436        5.09247603545248       13.52485801731100
H           29.17977522803556        5.92054240841328       12.96244602535356
H           29.05212513656336        4.86894120802366       14.43757504575951
C           34.56901791340965        1.25995397516861       14.92163941680530
H           33.80105320909637        0.51876084645725       14.70719569338326
H           34.10688357801524        2.11802948209171       15.40522787358786
H           35.29479747442011        0.82842781604773       15.60621022857153
C           37.59104171959786        0.75668381494407       14.02870107245655
H           37.15803187443208        0.00103343921746       14.68015131512591
H           38.15059258879261        1.46232583446359       14.64384149253169
H           38.27874596055249        0.27551305410020       13.34103693438322
C           32.36029918290534       -0.26869701771378        7.47803165857633
H           32.59713510790571       -1.29171125895083        7.77368041296010
H           32.25093135942543       -0.24918957474468        6.39344598567582
H           31.41243301619803        0.01141960750946        7.92617506147921