78
 energy: -116.058025688083 gnorm: 0.000167593407 xtb: 6.7.1 (edcfbbe)
Fe          35.30800855193777        4.03717628026050       10.01938019310137
N           37.16977497269561        3.64351340065187        9.43423454988237
N           35.04936965587629        5.23629077578124        8.44395533418565
N           33.44572545130543        4.47220407188461       10.65856086211424
N           35.57602392849073        2.87687574999476       11.63970046681983
C           38.06507576469020        2.82245318791334       10.04055916131892
C           39.31313921112837        2.79332967507251        9.30771958412193
C           39.14883425922618        3.62127832083370        8.24283365189008
C           37.80050816543037        4.13970812408798        8.33749988281371
C           35.95940443861481        5.51098284047152        7.47156480192207
C           35.40832782566669        6.41009209440606        6.48976621195887
C           34.12741494174298        6.67956147848309        6.89188688206389
C           33.92608079220472        5.92415369180022        8.11442760004487
C           32.53158717158927        5.25817171071285       10.02358225932860
C           31.29884039574865        5.31045094010101       10.76463191604561
C           31.48324364773963        4.53054884645205       11.87674551885609
C           32.83034733762587        4.00602378320372       11.77738556011634
C           34.67662500578584        2.62990159534108       12.63139593067258
C           35.22707780338337        1.71217619780789       13.60335111154947
C           36.47807172868935        1.40116231897807       13.16836381828007
C           36.67747365694871        2.13856202404589       11.94132856746665
C           37.84367966833619        2.10598487122618       11.20138784533249
H           38.64569640726602        1.48122403225731       11.56344908919749
C           37.24851046553436        5.00851345605410        7.41807721436099
H           37.87410285448501        5.32664924893225        6.59792382042258
C           32.75276678625464        5.94396769506581        8.84227446138961
H           31.94464032201889        6.55289511510572        8.46720972273054
C           33.40332619020482        3.16306525416871       12.71312714120225
H           32.80479913012613        2.88397198549118       13.56665469885999
C           40.11200394608809        3.97482342698889        7.16174623440730
H           41.06296269243818        3.46920317515443        7.31026293790190
H           40.29334818105464        5.04956472964037        7.14913561140937
H           39.71962817616406        3.68687731084556        6.18576781584393
C           40.50495423021790        1.99301986936859        9.70783605204682
H           40.25707262801551        0.93228894113184        9.75453036939398
H           40.85950420765771        2.30076297282785       10.69174502016318
H           41.31612775414570        2.12417731959276        8.99586329565980
C           36.10824025524165        6.87106650836026        5.25893863518679
H           36.71679125784471        6.07229010759686        4.83717033513414
H           36.76498417024182        7.71419374214083        5.47869523065473
H           35.38201765920047        7.18710335011294        4.51263298290779
C           33.12591012809455        7.50909417043170        6.25942668640097
H           32.10113868567564        7.17312687060180        6.37020922356223
C           33.36585248380339        8.62573192499974        5.57952521007582
H           34.35629857895658        9.03376804425030        5.47943064446445
H           32.56934301262005        9.18831357959990        5.12125091701307
C           30.06809146812608        6.02706424473521       10.33116065736699
H           29.93271097341018        5.94160007942343        9.25404780122657
H           30.12595613184983        7.08802239850330       10.58047277505304
H           29.19608990971325        5.60482742729208       10.82647899874732
C           30.55818940019898        4.22939984144822       12.94676948788184
H           30.64620479298009        3.23864090158583       13.37786601643640
C           29.64202257721247        5.06162874979668       13.43106659372512
H           29.54078111801805        6.07227115187923       13.07590552349434
H           28.97457390549296        4.76534545038711       14.22325292844321
C           34.50395105890029        1.24016974204349       14.81812354723534
H           33.59812771154982        0.70029130012829       14.54033431188909
H           34.21479039122224        2.08358591290405       15.44572978972768
H           35.13074670610475        0.57500705932488       15.40687735693287
C           37.49322986370586        0.49830009504767       13.78052105689756
H           37.11262412763094        0.05128182781117       14.69564909677434
H           38.40234294216140        1.05030024581496       14.02052130930763
H           37.75737197443579       -0.30346801618448       13.09072088429034
C           32.61705770632484       -0.54695586288898        8.33875062238708
H           33.20453455551830       -1.44389936746686        8.14293840552928
H           31.87991879879342       -0.44190210502153        7.54279393934639
H           32.09492150795899       -0.67182791547583        9.28207162767965
N           34.27361944385895        1.05577697584048        7.35965865983641
H           34.33513396425924        0.60193541336793        6.46303835928316
C           33.49122284499489        0.65113311162323        8.40937051122963
C           34.93796503902230        2.16755764319463        7.74804148648706
H           35.62569263323410        2.70472635001894        7.12760802272453
N           34.62380878824604        2.49095896137117        8.97923668882246
C           33.72528370836907        1.55698979274353        9.40382655124381
H           33.30973144212562        1.59863013402577       10.38891756471181
O           36.00201792138034        5.79392322951923       11.32071534324047
H           35.16763647583254        6.25852366640491       11.44680529242144
H           36.19199553916364        5.32486675056134       12.14058372936603
