78
 energy: -116.058077806942 gnorm: 0.000037402728 xtb: 6.7.1 (edcfbbe)
Fe          28.13082308895808       94.04684039736790       52.80144860149215
N           29.06317140397505       95.73311081853515       52.21698913233421
N           29.20193763697171       94.06401035974594       54.50985494250819
N           27.17025545337525       92.41197950911715       53.41632745635389
N           27.04107868131466       94.07836430145669       51.13509058568223
C           28.89062817836405       96.39508967961972       51.04191432602148
C           29.77290684118890       97.53684271513761       50.96379909469423
C           30.48824775753173       97.54884988702821       52.12125522214949
C           30.03568685201460       96.41111894596689       52.88921969188761
C           30.15533198321774       94.96811424095768       54.87525042873871
C           30.73848578108683       94.61396190520225       56.14197197799989
C           30.12509911704407       93.45334731508389       56.53764978100955
C           29.16250744194821       93.13602707219263       55.50222639743177
C           27.39339964197978       91.71483722911330       54.56341840862544
C           26.51885170445766       90.57158895509347       54.64804969506801
C           25.75366355705622       90.58946779794324       53.51314152429262
C           26.18028621200815       91.75599740444446       52.76304397591245
C           26.07275828439944       93.19515065280176       50.78116348169299
C           25.51527873199480       93.53461070173805       49.48887628959898
C           26.17580672037244       94.64574932294718       49.07023162512792
C           27.12597681693442       94.96960973467415       50.11349006402806
C           27.98805883122974       96.04725246195716       50.05433483005945
H           27.95239077441781       96.66802233446464       49.17229231103556
C           30.54176938486248       96.06977423029150       54.12858332908938
H           31.31863434210250       96.69868343989022       54.53590835890712
C           28.33058310099046       92.03376461292874       55.52943767484619
H           28.41960983148742       91.36555189039983       56.37210534996098
C           25.66410981251780       92.10859781505282       51.52991718503407
H           24.88599372872502       91.48535615471808       51.11616480063217
C           31.53784178811622       98.50578714517584       52.57370011923845
H           31.24483420800266       98.98385855555179       53.50889818222866
H           31.69946333959254       99.28186734680403       51.82975940899897
H           32.48372730677719       97.98956075263852       52.74107464425862
C           29.83006372283686       98.47727505385721       49.80929276693066
H           28.86219063848605       98.95517888251982       49.65604486774925
H           30.09178293746839       97.94484085258306       48.89469826680877
H           30.57213700139104       99.25383794376695       49.97808496160235
C           31.75335059911193       95.42080207497152       56.87484021878752
H           31.56437292163023       96.48596335563751       56.74872612788855
H           32.75974432301489       95.21128194865817       56.50788272164618
H           31.72035203754735       95.18507175786959       57.93661554490448
C           30.32551427833138       92.68010462007415       57.74284328199889
H           29.44472527149563       92.18198892512633       58.13111949624337
C           31.48064832505052       92.53439199228872       58.38401684233567
H           32.39732734408008       92.96483756912488       58.02032743571607
H           31.55322851018278       91.95227340579677       59.28769232930183
C           26.44435603179630       89.63183240642316       55.80044504471900
H           26.55352708662092       90.16763802787695       56.74222447909674
H           27.23615032417197       88.88284071180456       55.74450972415066
H           25.48484508920281       89.11883394411802       55.80179913223590
C           24.70252062325246       89.68490023273718       53.10268626399994
H           23.88646769765553       90.13637406932176       52.55046062181054
C           24.67271045859941       88.37788511660845       53.34216071558093
H           25.47711588206360       87.86898021301317       53.84415135088089
H           23.84813862926347       87.76430183035758       53.01879552968114
C           24.42779358377729       92.77000656445081       48.81559231858780
H           23.52845573048414       92.76317435010205       49.43161996390930
H           24.73108869463113       91.73605526831027       48.64874306492563
H           24.18050907342383       93.21366177663943       47.85427896756118
C           26.00870519021559       95.42760691376299       47.81254424354272
H           25.24016237209496       94.98676827982707       47.18247194872104
H           26.94192406966739       95.45238696095541       47.24928638903541
H           25.72101265399521       96.45525063969491       48.03571078564155
O           26.63989031612823       95.41305928198976       53.88484269852564
H           26.92767668032442       96.26513851191345       53.53935033206554
H           26.97723088967937       95.34379293090490       54.78458045364342
C           30.88556885465654       90.17787385556608       49.88385899899991
H           31.51117017705394       89.47554620675001       50.43456037319024
H           31.43102500307619       90.49609949264136       48.99545718778765
H           29.98014882222084       89.66681072370537       49.57214069151344
N           31.47490799696011       92.17612502891659       51.27365545727548
H           32.47144907196027       92.08752029641371       51.16128714369202
C           30.53066802949219       91.34423340580010       50.73131219510771
C           30.82505974765550       93.12569769072897       51.98341917438496
H           31.31297270156657       93.91387459818385       52.51848439825346
N           29.52802917834782       92.94603562187672       51.92322864321764
C           29.32907427717528       91.84169543121820       51.14748833602737
H           28.34200881716154       91.48140554905204       50.94307961339113
