72
 energy: -105.980208148438 gnorm: 0.000032162846 xtb: 6.7.1 (edcfbbe)
Fe          44.37758868261709       21.65045039256179       23.06100075028246
N           43.78575249958258       20.33880438115309       21.68558586712330
N           44.37247157142502       23.10714771306358       21.68989263774189
N           45.07130277987697       22.94768717571106       24.43397825479045
N           44.43534950234174       20.18859921212855       24.43020522664749
C           43.50455266123672       19.02470614500075       21.87618980490015
C           43.11091869443354       18.39954569326867       20.63161999533290
C           43.17284189295034       19.36951246553333       19.68192486293637
C           43.59240914753443       20.57615666016450       20.36195799080727
C           44.09421452970997       22.97691975560351       20.36482517369634
C           44.17878703830501       24.24974704026166       19.69546466371695
C           44.51024356623657       25.16840455531579       20.65533886336049
C           44.64698434086189       24.42242379192356       21.89119975216401
C           45.23489646230426       24.29059262385351       24.27098447093161
C           45.72201815400254       24.89331375445958       25.48176378503801
C           45.88645478149654       23.87504943340712       26.38298018924536
C           45.43698070584677       22.67231051536364       25.71426907807310
C           44.79394124950887       20.30536524289840       25.73710488588414
C           44.59843067420318       19.05316084128398       26.43319394396178
C           44.10447135548588       18.17930892975831       25.51588606922867
C           44.00984154280709       18.90771152702667       24.27068408059222
C           43.57806938939905       18.35332122370862       23.08175313988194
H           43.28959813984375       17.31387374659621       23.09245552734964
C           43.73945425739757       21.79647815558450       19.73528292630201
H           43.54634808268364       21.83650164491942       18.67460708493641
C           45.01043065816336       24.98877389411542       23.09730890535453
H           45.16736100434189       26.05577419034622       23.12257211976118
C           45.28557445091391       21.44766934227035       26.33757294510371
H           45.53015725668408       21.39447869390780       27.38617412724350
C           42.88046478563211       19.28614892314481       18.22360995502035
H           42.59542441538883       18.27511462495616       17.94381731045751
H           43.75795602903407       19.56860355532845       17.64201668122818
H           42.06543382446295       19.95911000700335       17.95548409101837
C           42.73381013218635       16.96479092660588       20.49555973770634
H           41.88321228527953       16.72916186625222       21.13554819567076
H           43.56445143322589       16.32174892084081       20.78692361432178
H           42.46444626580220       16.73174584777184       19.46847408524056
C           43.99845875771707       24.46071280918025       18.23335164952868
H           42.93989915980601       24.52409459248891       17.97486305903455
H           44.43462790278212       23.63713601305219       17.67032055668108
H           44.48215204602336       25.38627789920581       17.92831743862663
C           44.73297119636376       26.59125446227943       20.52151068260961
H           45.49186245614729       27.01059032799619       21.17158493817340
C           44.08366162321959       27.39557102724929       19.68649199685372
H           43.28938982442048       27.04297577287786       19.05182639236016
H           44.30962324301367       28.44723007932518       19.62808186742756
C           46.03528927716152       26.33911014133834       25.65037748860792
H           45.17040787527068       26.95185342666212       25.39546356030452
H           46.85976929106487       26.63241897355356       24.99931308264431
H           46.32231184109993       26.55052541839879       26.67719771569961
C           46.40657758945006       23.98115502931575       27.73058744901542
H           46.11689814789548       24.87671809082942       28.26917902131654
C           47.21985184876620       23.11017582112405       28.31663277120049
H           47.58084350303040       22.23182327159245       27.80852802748941
H           47.57355168097675       23.25873780354947       29.32318748909130
C           44.89992000384537       18.84116396794121       27.87629094031256
H           44.31017642116441       19.51986643757777       28.49230856502593
H           45.95402525769424       19.03012656822869       28.08095915624175
H           44.67102707197793       17.82082006443237       28.17324891422948
C           43.71970895102726       16.74997997007952       25.68270109595070
H           42.66952382487970       16.60550950890397       25.42918625053421
H           43.87218329905740       16.42611373670509       26.70910516498396
H           44.31631644507461       16.11293143249473       25.02921381747778
O           46.53364104657712       21.18554260339847       22.63858422872771
H           46.96359127814713       21.91310759704583       23.10292797816236
H           46.65318148191109       20.39556415997027       23.17837313980348
C           41.11497746266387       22.12155640835777       22.23688362428816
H           40.18623751226173       22.64317787446497       22.44674017157135
H           40.92044209642853       21.07120674342593       22.04671801414122
H           41.63197066501118       22.55859031714959       21.38937832986768
S           42.18874096036127       22.19326108594980       23.71361208006374
H           42.31954471450537       23.52490715079693       23.70274254889900
