78
 energy: -115.925348457585 gnorm: 0.293638370775 xtb: 6.7.1 (edcfbbe)
Fe          10.09000000000000        2.41800000000000       26.45200000000000
N            9.34700000000000        2.51900000000000       28.32400000000000
N           10.25200000000000        4.58300000000000       26.44700000000000
N           10.83000000000000        2.35900000000000       24.64500000000000
N            9.95800000000000        0.23000000000000       26.49500000000000
C            8.95000000000000        1.45500000000000       29.05000000000000
C            8.46200000000000        1.97500000000000       30.32900000000000
C            8.51000000000000        3.30400000000000       30.32000000000000
C            9.04300000000000        3.67800000000000       29.04600000000000
C            9.74400000000000        5.39700000000000       27.39800000000000
C            9.84600000000000        6.73800000000000       26.84500000000000
C           10.38800000000000        6.64800000000000       25.58100000000000
C           10.67700000000000        5.26400000000000       25.34800000000000
C           11.31600000000000        3.39300000000000       23.91200000000000
C           11.92600000000000        2.85800000000000       22.71700000000000
C           11.80300000000000        1.55400000000000       22.72500000000000
C           11.11800000000000        1.20300000000000       23.93800000000000
C           10.25700000000000       -0.56500000000000       25.41800000000000
C            9.80100000000000       -1.86400000000000       25.67100000000000
C            9.28800000000000       -1.82500000000000       27.03000000000000
C            9.41700000000000       -0.43500000000000       27.49000000000000
C            9.09200000000000        0.10400000000000       28.70600000000000
H            8.92200000000000       -0.61000000000000       29.51100000000000
C            9.24100000000000        4.97700000000000       28.62800000000000
H            8.97500000000000        5.76100000000000       29.33700000000000
C           11.25100000000000        4.75300000000000       24.18300000000000
H           11.66500000000000        5.45100000000000       23.45600000000000
C           10.80000000000000       -0.10800000000000       24.25900000000000
H           11.00900000000000       -0.85700000000000       23.49500000000000
C            8.06000000000000        4.28400000000000       31.44900000000000
H            8.01800000000000        3.74000000000000       32.41700000000000
H            7.05000000000000        4.68500000000000       31.21700000000000
H            8.78900000000000        5.11700000000000       31.53500000000000
C            7.92600000000000        1.15400000000000       31.53900000000000
H            8.65300000000000        1.21100000000000       32.37700000000000
H            7.79800000000000        0.09100000000000       31.24400000000000
H            6.95400000000000        1.57400000000000       31.87600000000000
C            9.33800000000000        8.02300000000000       27.53800000000000
H           10.19200000000000        8.54800000000000       28.01800000000000
H            8.59300000000000        7.75900000000000       28.31900000000000
H            8.87700000000000        8.69800000000000       26.78600000000000
C           10.73200000000000        7.72000000000000       24.50900000000000
H           10.67100000000000        7.47300000000000       23.43900000000000
C           11.11000000000000        8.96700000000000       24.85600000000000
H           11.18300000000000        9.25400000000000       25.91500000000000
H           11.35000000000000        9.71300000000000       24.08400000000000
C           12.58500000000000        3.76600000000000       21.62000000000000
H           12.99000000000000        4.68600000000000       22.09400000000000
H           11.82300000000000        4.05500000000000       20.86499999999999
H           13.41700000000000        3.21800000000000       21.12900000000000
C           12.25400000000000        0.51500000000000       21.67200000000000
H           12.01800000000000       -0.54000000000000       21.87000000000000
C           12.91300000000000        0.75200000000000       20.52199999999999
H           13.32400000000000       -0.08100000000000       19.93200000000000
H           13.04900000000000        1.78100000000000       20.15800000000000
C            9.87400000000000       -3.15500000000000       24.81100000000000
H           10.88500000000000       -3.60600000000000       24.90400000000000
H            9.68700000000000       -2.90700000000000       23.74400000000000
H            9.11900000000000       -3.88700000000000       25.16800000000000
C            8.62100000000000       -2.99100000000000       27.83800000000000
H            9.16100000000000       -3.94000000000000       27.63400000000000
H            7.56100000000000       -3.10500000000000       27.52600000000000
H            8.67500000000000       -2.77300000000000       28.92599999999999
O            7.50100000000000        2.47800000000000       25.81600000000000
H            7.02700000000000        2.52800000000000       26.64600000000000
H            7.13900000000000        2.45700000000000       25.00400000000000
C           16.00900000000000        3.16600000000000       27.11100000000000
H           16.78100000000000        2.36900000000000       27.04700000000000
H           16.25800000000000        3.84200000000000       27.95700000000000
H           16.00000000000000        3.73700000000000       26.15800000000000
N           14.41800000000000        1.78400000000000       28.43200000000000
H           15.05500000000000        1.60300000000000       29.18100000000000
C           14.69500000000000        2.55700000000000       27.33500000000000
C           13.17800000000000        1.32800000000000       28.32500000000000
H           12.68300000000000        0.71800000000000       29.08000000000000
N           12.66900000000000        1.73000000000000       27.18300000000000
C           13.59500000000000        2.51500000000000       26.53300000000000
H           13.38600000000000        2.96500000000000       25.57100000000000
78
 energy: -115.993000255727 gnorm: 0.119789054522 xtb: 6.7.1 (edcfbbe)
Fe          10.11124598592084        2.40707848938380       26.45855291362703
N            9.33420658148485        2.52628116456892       28.31036137821150
N           10.24353998161700        4.54754223326783       26.43004116371486
N           10.84148915331355        2.34049803039329       24.63834046830261
N            9.94662513400215        0.26949432922419       26.47728109708752
C            8.97055808147539        1.45729724999945       29.06971141568556
C            8.45613738031554        1.95823479839143       30.34682578737186
C            8.50880212181670        3.31053371243013       30.32174490952095
C            9.05596607592984        3.67854900504498       29.03440591972420
C            9.75269914204851        5.39863709434819       27.36700727152602
C            9.84340113788441        6.75417499847452       26.83559642618613
C           10.39795674254476        6.66487276156591       25.57663986423049
C           10.65924684443569        5.26014467581827       25.34998810101308
C           11.32544183483777        3.38439457716653       23.90321426527978
C           11.93771651310887        2.87952849937588       22.68743227297250
C           11.80177104253014        1.53475717119643       22.68719522927520
C           11.11916164378536        1.19589084079115       23.92304410200182
C           10.22468260090731       -0.55608936280210       25.42783969517665
C            9.78862947957388       -1.88310535857494       25.72352010496368
C            9.28919459798377       -1.83312943465855       27.03480697309008
C            9.42037502592836       -0.43884744032625       27.47927895380684
C            9.08736095358017        0.10636110138989       28.71701214262789
H            8.89340260253423       -0.60708198353671       29.51066271805010
C            9.25082026047742        4.98176277690015       28.60635177786663
H            8.97516097259600        5.75881416384828       29.31517638865331
C           11.24184945587077        4.73936952715087       24.19689262594359
H           11.64734890467616        5.43994668707157       23.47527976499092
C           10.79354449139211       -0.10805659978891       24.25432080519063
H           11.01120207084710       -0.85960484198029       23.50536985436779
C            8.06888883921286        4.26871506410327       31.42695472155280
H            8.02065340501063        3.74700771740694       32.38988799682183
H            7.07252020405153        4.67664225166094       31.21251172699484
H            8.77491754193822        5.10049011548500       31.52575747232097
C            7.93174240080083        1.15185977830040       31.52454298840305
H            8.64117008500998        1.20920193490602       32.35976916830196
H            7.79626482855931        0.10301240926937       31.25004201222608
H            6.97283833372449        1.56215379039946       31.86309884867996
C            9.34331505458293        8.00813463563803       27.52937066866184
H           10.17583116068589        8.53754908440540       28.01150170883098
H            8.60421259269898        7.76167603634150       28.30004466148833
H            8.88526634321969        8.68407095061063       26.79802336887149
C           10.71905564529971        7.71859480292829       24.54985300012897
H           10.66255446439997        7.45263880175224       23.49077101909489
C           11.09875673475601        8.95597142290587       24.86483112051740
H           11.18636914822710        9.25984288927559       25.89974390310811
H           11.34259002072378        9.69178924034638       24.10092413226911
C           12.58226074998647        3.76954894338623       21.63472914934933
H           12.98489081024550        4.67801485339148       22.09001932154299
H           11.83768695381685        4.04927353883183       20.87962333662304
H           13.40670303290837        3.24131939917365       21.15049567447215
C           12.25390793233841        0.52850085343211       21.67692105731351
H           12.03531582542338       -0.51575172132059       21.89800927565015
C           12.90425691924838        0.75511883347988       20.53473521567287
H           13.29488812764307       -0.06595340514029       19.93932194222223
H           13.06275680069222        1.75510527659740       20.15643585985904
C            9.87308062784510       -3.12672452566659       24.83910853528544
H           10.86816163066246       -3.58822947049703       24.90904819671256
H            9.68872940932844       -2.89949247962100       23.77964639286529
H            9.13426716065338       -3.86645027962430       25.16514616559997
C            8.63918439753919       -2.97024610552679       27.82115967456384
H            9.15696122606846       -3.91831726292721       27.63417975903328
H            7.58718347555230       -3.09483750444039       27.53026030197869
H            8.67663841968834       -2.76854455158491       28.89800052846297
O            7.55443099584915        2.47754253011121       25.84064742698411
H            7.03801069663191        2.52079210387969       26.64341415525942
H            7.14557280347171        2.45015360203266       24.99352992087214
C           16.01923549405827        3.16474574601135       27.10964660786221
H           16.78824746665786        2.38454522535427       27.04491796521565
H           16.26952686238544        3.83705603829981       27.94000574752165
H           16.00877663438300        3.73044626822823       26.17377325568318
N           14.41754011266465        1.78648969792788       28.42806012831957
H           15.05827994683587        1.60264188088287       29.18185345605536
C           14.69785433414701        2.54538564588000       27.32573226569490
C           13.15746570683715        1.33416159981731       28.30758376033232
H           12.67671809729751        0.72307105374888       29.05463971319645
N           12.61699755496493        1.76042736194648       27.18844780833536
C           13.57834715997435        2.50271402693970       26.54537910066603
H           13.38163901788014        2.95389303512636       25.59000539206232
78
 energy: -116.017651393682 gnorm: 0.035552496895 xtb: 6.7.1 (edcfbbe)
Fe          10.11066903382008        2.39462671295180       26.45586449097592
N            9.34478924546474        2.52769488387582       28.30399605900992
N           10.22644027897859        4.50962974909265       26.41259042405474
N           10.85263661186381        2.31807019108802       24.62887597686329
N            9.91958064536289        0.31576619766490       26.46125602674053
C            8.98829951976880        1.46061055531470       29.08133274880351
C            8.46382088472794        1.94864233209095       30.35429419673218
C            8.51690710741222        3.31283793011860       30.31439294634791
C            9.06897541665555        3.67132298236719       29.01793037869042
C            9.75183272115664        5.38746239083955       27.34010867407241
C            9.84391789618636        6.75064546763832       26.83222806866528
C           10.40549183584893        6.66304230961686       25.57680986982799
C           10.64049079891027        5.24504275856770       25.34975107270367
C           11.33410395056630        3.36843660504180       23.89493906655841
C           11.94821788925506        2.88967374887818       22.67033620984535
C           11.80290430398365        1.52290946837998       22.65973202127852
C           11.11880470277983        1.18883396531955       23.90691660241720
C           10.19203382724588       -0.53276552796480       25.43501682731005
C            9.77971333712369       -1.88111480077503       25.76862241167609
C            9.29441634569091       -1.82272506756694       27.04265931060780
C            9.41481996016696       -0.42821424431156       27.47288384162257
C            9.07411542948989        0.11321513533409       28.72056146526003
H            8.84776690631048       -0.60196394512253       29.50172122337864
C            9.25230848672257        4.97847847656108       28.58205989597309
H            8.97169594543466        5.75275350069878       29.28752499535564
C           11.22990818874984        4.71815175809984       24.20804022127221
H           11.62550552222631        5.42390158549466       23.49070752912968
C           10.78439102932617       -0.10865262924213       24.25180544301432
H           11.01075222086042       -0.87150894860349       23.52204560282921
C            8.07920799999318        4.25393234586297       31.39675386247092
H            8.02749224211582        3.74228967762561       32.35627902945566
H            7.08940647891988        4.66614950361547       31.19166951998792
H            8.77090605729814        5.08730614122138       31.50314016216862
C            7.94193559330462        1.15192277635416       31.50525439906222
H            8.63656462374805        1.20455574893517       32.34492453701938
H            7.79862231650153        0.10938452554192       31.24535460320595
H            6.98806906184058        1.55441434401321       31.84508156832774
C            9.35002555548862        7.98426364581097       27.52036153380491
H           10.16818261608901        8.51871709081433       28.00628986964318
H            8.61048977219148        7.74878373190390       28.28207526442411
H            8.89642637279264        8.66394221817903       26.79944171231949
C           10.71355197908670        7.69854961483142       24.59719313630066
H           10.64842793269657        7.41657907633914       23.54837683582490
C           11.08719371302534        8.94129170356960       24.88247339034776
H           11.18925764010560        9.27196877542339       25.89928738424578
H           11.32220572628263        9.66687125558842       24.11782958473526
C           12.57993399693123        3.77037327777852       21.65188280871015
H           12.97151173741527        4.67870339664684       22.09806668662122
H           11.85203621519009        4.04672683022890       20.88816684383278
H           13.40740501429575        3.26169058532660       21.17047523066120
C           12.25241803692743        0.54788088451111       21.69010229255381
H           12.05791977174716       -0.48934212635113       21.94133734299423
C           12.89227690593922        0.76038335241719       20.54218783811551
H           13.25856872617287       -0.05873778697276       19.94376550281223
H           13.08210831270585        1.73854165260394       20.14824567347063
C            9.87175069445440       -3.09147275948136       24.87618860900416
H           10.86094752414864       -3.55346329027648       24.93086690461281
H            9.68804157186317       -2.85843454337912       23.82631111550021
H            9.14290450478299       -3.84224872911911       25.17759388754697
C            8.66289884093014       -2.94031823427775       27.81344656820676
H            9.16827553840257       -3.88718305912052       27.62784265250529
H            7.61601178462628       -3.07033224703042       27.52733394766381
H            8.68658861326807       -2.75228682326226       28.88475266700523
O            7.63807213537381        2.48606925816436       25.85472179720306
H            7.06818201176455        2.50172532529186       26.62747806303258
H            7.17997799478584        2.43152552886455       25.01162056809454
C           16.02556047927344        3.15639043776926       27.10286303732801
H           16.79724874646029        2.39034236323923       27.03890279826829
H           16.27338563721409        3.82533113090763       27.92605810142700
H           16.01660454739445        3.72458150013846       26.17993859901692
N           14.40703953583287        1.78158350964268       28.42056918537114
H           15.04826258193404        1.58899269095073       29.17531430482173
C           14.69592338394603        2.53165070303531       27.31283521205969
C           13.12599248519926        1.35651446131022       28.29906932035236
H           12.65565603184007        0.73554369435549       29.03485367706529
N           12.57499168384076        1.79723304343766       27.19425867325556
C           13.55560297294055        2.51173654161627       26.55889636915019
H           13.37462625882892        2.95857371395352       25.60326372737527
78
 energy: -116.027892972523 gnorm: 0.029377216340 xtb: 6.7.1 (edcfbbe)
Fe          10.14084112348094        2.38232125169975       26.46487315343566
N            9.36013098819268        2.52309242571315       28.30040325679990
N           10.20850208416065        4.47921080824429       26.40216198381496
N           10.85375585342334        2.30482268063536       24.61975606720478
N            9.89664935492697        0.35028504300632       26.45764846138896
C            8.99736994503483        1.46379680636258       29.08387028194474
C            8.47490709979876        1.94698768535863       30.35051138999910
C            8.52808781791188        3.31062239917816       30.30275439296168
C            9.08057322553203        3.66150689054997       29.00732844329304
C            9.74248447062662        5.36338633420399       27.32858353909206
C            9.84403330868956        6.72520490117597       26.83705177517889
C           10.40825665623161        6.64039121842771       25.58625718622420
C           10.62545047758767        5.22140685692844       25.34733924828512
C           11.33147698343982        3.35703059831476       23.88831910914318
C           11.94838190630037        2.89260065457763       22.66688255849886
C           11.80640255257492        1.52177562077806       22.65208292613868
C           11.11600260183636        1.18477467327355       23.89541155691204
C           10.17258707502464       -0.50355590771666       25.43820063109282
C            9.77562608660621       -1.85591292800201       25.78690706421339
C            9.29459406631373       -1.79474109310190       27.05802636254135
C            9.40033535955408       -0.40292467301413       27.47467404587596
C            9.05748962599866        0.12227623574462       28.72142129299641
H            8.78886197791660       -0.59618788420091       29.48866644840777
C            9.24941838949995        4.96756480936281       28.56898926215916
H            8.95966311321029        5.74561803067994       29.26367575383954
C           11.21624115129623        4.70124232898443       24.20902193204880
H           11.60370091208144        5.41242307146376       23.49458796323535
C           10.77498608047939       -0.10734491641677       24.25136195288305
H           11.00646816023040       -0.88674978817457       23.54024363906294
C            8.08702291177711        4.25242777258257       31.37171777836953
H            8.03320386230681        3.73886604513436       32.32922797101207
H            7.09791247593689        4.66101108035625       31.15822493092745
H            8.77656384673671        5.08732206952831       31.47590729052244
C            7.94996641716407        1.14702440065299       31.49314938432743
H            8.63901514283057        1.19516396283329       32.33796077954582
H            7.80472177943961        0.10468083523733       31.23170567465736
H            6.99401993991345        1.54875822452024       31.82779072974570
C            9.35267399334988        7.95678128712826       27.51923980766386
H           10.16776375481437        8.49024448827188       28.01072808073901
H            8.60441325715935        7.72427528845644       28.27254212929145
H            8.90927415821500        8.63770998994864       26.79262144704653
C           10.70755871664454        7.67900644032260       24.62637682391784
H           10.64309161483835        7.38487517800946       23.58357776774123
C           11.06890193589052        8.92936618270660       24.90032700697567
H           11.18933222044928        9.27708165632455       25.91089203365735
H           11.29345618701685        9.64545828603750       24.12677818122393
C           12.58638958853389        3.78256587772288       21.66344853486463
H           12.95448018770043        4.69834369345143       22.11752839347372
H           11.86940743596182        4.04959420032419       20.88463270144366
H           13.43187813668477        3.28964469696561       21.19454837317171
C           12.26594451475436        0.55090721247395       21.69828924704680
H           12.09046350389644       -0.48286624280697       21.97540007211690
C           12.88944261216228        0.75217479546316       20.53757415839707
H           13.22331772712995       -0.07603207580122       19.93437657626579
H           13.08948203440230        1.72163816290215       20.12668323539296
C            9.87464821497256       -3.05792649735328       24.90274648722642
H           10.86704976152511       -3.50969611251380       24.95890715722117
H            9.68757103734224       -2.80695431813017       23.86009211443200
H            9.14928564689480       -3.81319185379345       25.19976023336808
C            8.67984714255143       -2.91444847153149       27.82711740071192
H            9.19282235973872       -3.85415991631490       27.63004608680101
H            7.63538182827540       -3.04456278420842       27.53399236364666
H            8.70225339203363       -2.72976769800447       28.89724958781469
O            7.74479718584855        2.51548826569876       25.86355725497556
H            7.13929111159651        2.45865307962917       26.61661395469961
H            7.26367906539406        2.39119185538519       25.03146811187650
C           16.02112634108540        3.13772664052268       27.09319941277305
H           16.79682074471262        2.37615435866041       27.02782824682989
H           16.27110886850034        3.80474649013375       27.91729810195239
H           16.01898297528456        3.71299873932608       26.17449144015641
N           14.38055802256057        1.77220025936972       28.40621178450232
H           15.02084074906199        1.56130606495581       29.15725615957079
C           14.68270224410274        2.52162401371029       27.29897184491417
C           13.08219687039833        1.38766204904243       28.29256832713934
H           12.60848778677041        0.76080246601406       29.02021821373204
N           12.53074610410827        1.85619417963782       27.20040457549321
C           13.52981443738061        2.53966529492159       26.56100088653785
H           13.35901170619099        2.99134625205415       25.60673946541402
78
 energy: -116.034091752488 gnorm: 0.029141518168 xtb: 6.7.1 (edcfbbe)
Fe          10.08586129408952        2.38305062848941       26.44068853582252
N            9.38222828188115        2.51433454167720       28.30247217892375
N           10.20600052122492        4.44921631196757       26.39938271559519
N           10.85657776597263        2.29443588384745       24.61103936778437
N            9.88866728957703        0.38760168734680       26.46300097422448
C            9.01013239464803        1.46515670002785       29.09105449003928
C            8.48768449738474        1.94658422269913       30.34941769861428
C            8.54296993987212        3.30704501503312       30.29519359426330
C            9.09899327244669        3.64907192502471       29.00479166880071
C            9.73912873724056        5.33308705946128       27.32470358296175
C            9.84487705887497        6.69140260947338       26.84418776350060
C           10.41100874002575        6.61083968776509       25.59741118399872
C           10.61989325996755        5.19508757760365       25.34732987116299
C           11.33435031907695        3.34673413639935       23.88340178975822
C           11.95493420104065        2.89196058342368       22.66780477739339
C           11.82022487194981        1.52149252358423       22.65124716940189
C           11.12466247053931        1.18035805420525       23.88804776272344
C           10.16503785552975       -0.46897491515217       25.44533600301638
C            9.77632515822637       -1.81877209193065       25.80071933942241
C            9.29694933797321       -1.75690429417869       27.07405940912306
C            9.39204463009408       -0.37077823778737       27.48058628076593
C            9.03962495937430        0.12987361365562       28.72370463276123
H            8.72816824851099       -0.59156550921098       29.47263200753848
C            9.24890981859349        4.95313035451758       28.56282279637701
H            8.94368641229814        5.73719293623555       29.24196676672405
C           11.20607547507308        4.68662061014803       24.20683044816360
H           11.57973169417868        5.40429729223607       23.49263702392762
C           10.77212748083251       -0.10562897272427       24.25422102523088
H           10.99789930747936       -0.90322520615050       23.56121661933709
C            8.09381754623469        4.25767836321638       31.35024228628054
H            8.03402341355473        3.74670894701127       32.30879471019395
H            7.10585503763662        4.66138392498580       31.12079088304532
H            8.78310844856163        5.09353891766713       31.44964391202177
C            7.95582313647098        1.14076821100012       31.48575789460766
H            8.64110851543136        1.18314498853354       32.33438261831103
H            7.81278379293232        0.09908316182253       31.21574740199786
H            6.99639952001407        1.54111498642559       31.81365399947835
C            9.35293095392425        7.92374800415118       27.52210082445674
H           10.16607915371565        8.45250967601375       28.02247909390567
H            8.59249866689308        7.69420154514269       28.26488822597565
H            8.92423802370986        8.60551237857215       26.78587965240526
C           10.70650532607574        7.65743465552976       24.64759674821242
H           10.63824732340836        7.35929290538815       23.60797202172970
C           11.05411704676321        8.91239147082182       24.91938909096753
H           11.17483555047732        9.27599736147787       25.92496079926221
H           11.25365488749389        9.62515074848705       24.13618477537734
C           12.59830763173482        3.79099884157186       21.67137973339009
H           12.93789972382995        4.71514963798702       22.13598904542464
H           11.89235648136048        4.04657664843516       20.87726962310954
H           13.46315681276997        3.31075889926959       21.22035091449385
C           12.28261764550100        0.54737929409776       21.70177859736635
H           12.12750895501669       -0.48292520424159       22.00253915499801
C           12.87948577240168        0.74296092105401       20.52555372993195
H           13.20195444335736       -0.09282331519737       19.92893986427471
H           13.08367902413794        1.70882314199293       20.10527556807050
C            9.88050634820984       -3.01924284142141       24.92374726256896
H           10.87635501664912       -3.46186564104065       24.98369422840155
H            9.69037369425371       -2.75962240388505       23.88502659872231
H            9.15916581988700       -3.77767599163875       25.22174909027074
C            8.69723568901806       -2.88416497222507       27.84541887168528
H            9.22248229836241       -3.81524193616783       27.63900057053889
H            7.65331792495382       -3.02074578625681       27.55235086947266
H            8.72392344930888       -2.70266227482081       28.91514920253003
O            7.85715996672724        2.52993208529734       25.86327570563340
H            7.24015914266232        2.41438241908433       26.60123445106711
H            7.35520023675504        2.34615288670317       25.04994044623460
C           16.00996348422318        3.11183432547126       27.08117592499200