78
 energy: -116.058060109592 gnorm: 0.000035605841 xtb: 6.7.1 (edcfbbe)
Fe          35.20049072157946        4.34960239755958       10.37949550739855
N           37.05594673800186        4.01539455884539        9.73742633607659
N           34.85568902267409        5.54086955067463        8.81882020900288
N           33.35541199569763        4.73893285470801       11.09017289905073
N           35.55031481209579        3.17754515990828       11.97908844235512
C           38.01132797675766        3.25734661429728       10.33613147456204
C           39.23705343071664        3.27400022918964        9.56648044799818
C           38.99410247995056        4.05613278743728        8.48210591176016
C           37.62479778590627        4.50899482179642        8.60684342240240
C           35.70877577770776        5.80606922097510        7.79511550476603
C           35.09902462844349        6.68872808543659        6.83211391309183
C           33.84360680283387        6.96364859116832        7.30328605102438
C           33.71484363977982        6.22453610141610        8.54606654801510
C           32.41853261768348        5.54858063168817       10.52066046719960
C           31.20955680883860        5.56135792412494       11.30127546681059
C           31.42627406842017        4.71903828845206       12.36101300125803
C           32.77849874180973        4.22146155719510       12.20647057259948
C           34.66538027102547        2.84234112023098       12.95756582146047
C           35.26431890296059        1.91676177127026       13.89188947314086
C           36.53464038604935        1.69954297978454       13.45451632684029
C           36.69244251081093        2.49131824189878       12.25651100121427
C           37.85288639621066        2.53726097343070       11.50596199999517
H           38.69526049366437        1.95997715103686       11.85564187108832
C           37.00381571860747        5.33062486327096        7.68907363587585
H           37.58077212261401        5.64246555919171        6.83193069776294
C           32.58350083546313        6.24976431839511        9.33813699258022
H           31.75375691475396        6.85267287882907        9.00222340604970
C           33.37496239075757        3.32353200698794       13.07253521544456
H           32.78661277069495        2.96505612150918       13.90295704916144
C           39.90196110069488        4.42241046396815        7.35869565594829
H           40.87959148009293        3.96362565313305        7.48507829008984
H           40.03357408903879        5.50340441907287        7.31158886970834
H           39.48747391848283        4.09042140929200        6.40641798699375
C           40.48276547767658        2.55225861372800        9.95279034917519
H           40.30374487172873        1.47813239695793       10.01310464684958
H           40.83446522255036        2.89105287935128       10.92741827457447
H           41.27160608945447        2.72652459599669        9.22530219767322
C           35.72705608660924        7.13102768411595        5.55688625089322
H           36.30547067610554        6.32275545143549        5.11186934593479
H           36.39921857629113        7.97358733027575        5.72687583513890
H           34.95969800999766        7.44105151174864        4.85034593220511
C           32.80487024666872        7.78256486035682        6.71858499106584
H           31.78879547507868        7.44622685395341        6.89166921690718
C           33.00247907230586        8.89036167666576        6.01122765104633
H           33.98466304965573        9.29831105908231        5.84886796338906
H           32.17962256146483        9.44526890931764        5.59171117187132
C           30.01215588952801        6.39819544241135       11.01361731695913
H           29.36736696662924        5.91658815109811       10.27643575565185
H           30.30646194435174        7.37009636889720       10.62017779010304
H           29.43636581416190        6.55088234958091       11.92432082260704
C           30.54519716653425        4.38313631867919       13.45713274781561
H           31.03144551989356        4.19197621626696       14.40698398817285
C           29.22161476852144        4.28684308902538       13.38270257134726
H           28.68824879799403        4.41797292264177       12.45757069756505
H           28.62533144865130        4.04528393505259       14.24699021128690
C           34.56703547679880        1.35442254578852       15.08287883763001
H           33.66636064031232        0.81895817546242       14.78198563228828
H           34.27303611517453        2.15066270366212       15.76747806572131
H           35.21316455596183        0.66414862700957       15.61971488946351
C           37.60052314290763        0.83655461041946       14.03833439416125
H           37.90830410541287        0.07017583276001       13.32628231337760
H           37.24782909405662        0.34311827980096       14.94061393587882
H           38.47812110306504        1.43101295463190       14.29353109873852
O           35.90711633766922        6.10609183955816       11.67387954361186
H           35.06049028387144        6.48471329264998       11.93457577317862
H           36.24461512320951        5.61671931941939       12.43198305719321
C           32.17354960933012        0.84202209672943        7.28068511307324
H           31.70313008385164       -0.00003580456495        7.78823858568892
H           32.59600838191880        0.48197147333582        6.34266073020398
H           31.41249243685382        1.58308733854523        7.05770603057217
N           34.31576305750639        0.74787428259842        8.57430658386199
H           34.51186040828693       -0.21930647209983        8.37510444047035
C           33.22525564645268        1.45095920523832        8.13366210302231
C           35.06974901868583        1.58616157310207        9.32060107767611
H           35.98721060120397        1.30684599467336        9.79617915694683
N           34.52320614454419        2.77631736553914        9.37909262493219
C           33.37557289859822        2.70796801811528        8.64512078979623
H           32.73876365163914        3.56103882480548        8.53550902552747
