87
 energy: -124.720077733578 gnorm: 0.000112608110 xtb: 6.7.1 (edcfbbe)
Fe          10.04792845948305        7.10743399350727       -7.55587510618843
N            9.73619214223134        7.56763595679429       -9.48475276587813
N           10.14164352084785        9.06052724512633       -7.11880576909754
N           10.31269896147834        6.65935203104097       -5.62953380570650
N            9.92282213955960        5.16026717548200       -8.00061882813247
C            9.45122441269175        6.70014081265963      -10.49346441431371
C            9.24864567375480        7.41095160167310      -11.73638619552680
C            9.41329975237389        8.73096735143190      -11.45284359984572
C            9.69905662335115        8.80860712074147      -10.03747780585021
C           10.05958899605724       10.10383976127481       -7.98697283637689
C           10.18676549094000       11.36247499998293       -7.28761479128395
C           10.33582574106727       11.05296629009478       -5.97148748428797
C           10.30366160397045        9.60967487503503       -5.88740347792904
C           10.42011878925365        7.52878361525605       -4.59646576302887
C           10.57929659837798        6.81773450625951       -3.34159834851737
C           10.55595203464910        5.48615300591017       -3.65807016056584
C           10.39226039444019        5.41442303064746       -5.08839455986225
C           10.13450507958554        4.11836778698487       -7.15683762251560
C            9.99300512097749        2.85766780881542       -7.85922715300379
C            9.63398167049575        3.17994153987464       -9.14042510415152
C            9.62023381136395        4.61733966356639       -9.20983037855682
C            9.37790847719914        5.32705900830218      -10.37331507988008
H            9.13403083554700        4.76087331890863      -11.25917726535994
C            9.86806439613253        9.99834418434489       -9.35213849487796
H            9.82164283202486       10.91363583450623       -9.92246047074761
C           10.42803824916504        8.90603534082386       -4.70528946950569
H           10.55067552358435        9.47945192869626       -3.79934991018924
C           10.33125047017118        4.22606364083424       -5.79380279823492
H           10.41316457695120        3.30743285132149       -5.23441324000675
C            8.93006359544411        6.75678723636094      -13.03700499792091
H            7.99839264719975        6.19510330354911      -12.96466735967521
H            9.72092324777919        6.06228829483967      -13.32224639374157
H            8.82307874286250        7.49656528444341      -13.82673368847365
C            9.32135489020980        9.91134223210360      -12.35859269989966
H           10.24913739372247       10.48384644341479      -12.33987852996081
H            8.51145723831552       10.57262500533838      -12.04821115690048
H            9.13311784623181        9.59887909402025      -13.38286844447323
C            9.36978977430544        2.26520151280580      -10.28618260900794
H           10.13733859973082        2.37670569929567      -11.05331326971585
H            8.40446553368718        2.48844902345485      -10.74102943904732
H            9.36871755935336        1.22932690212611       -9.95627361472802
C           10.19677277081576        1.52876612877296       -7.32074721637212
H            9.51478434162250        0.76931780883630       -7.68879249321815
C           11.15601698308742        1.17812162862497       -6.47151925310488
H           11.89165783289603        1.88102546291630       -6.11908404211170
H           11.25289757757205        0.16493576036253       -6.11778093171120
C           10.61417246746887        4.31402904651863       -2.74203439078952
H           11.62258068039187        3.89865334760652       -2.70734834141101
H            9.93848656670835        3.52792745590455       -3.07599528937759
H           10.33132216316189        4.61304547256022       -1.73465269421929
C           10.70165455625584        7.44931033645244       -2.04656380161879
H           10.16213246804862        8.38217729079294       -1.92843038896073
C           11.41362898192275        6.98449627842755       -1.02498203364542
H           12.00759076561249        6.09068981765955       -1.10066249072319
H           11.44857755006145        7.50231160591926       -0.08064274933140
C           10.50720247020403       11.95995847623228       -4.80167369297245
H           10.50975603467897       13.00108827511441       -5.11543357588238
H           11.44787750680305       11.75253613683993       -4.29109555788643
H            9.69684818940540       11.81915239670470       -4.08591571460005
C           10.15169286995261       12.69876464455580       -7.94733899699102
H           10.27354679709862       13.49399744802518       -7.21608098725478
H            9.20237713543046       12.84988118781885       -8.46238066546733
H           10.95178751812393       12.78426012805648       -8.68324365247139
C            4.81746794173187        5.99213408281628       -6.00341594572769
H            4.08788781427462        5.76384236338985       -6.78040064439187
H            4.34818282242257        6.65968988557966       -5.28078150634814
H            5.08962671518434        5.07011168939847       -5.49942685384300
N            5.99189459812166        7.79256176049466       -7.28864271168621
H            5.16683825071926        8.33832304624316       -7.47576292146942
C            6.03198787073503        6.61618620005651       -6.58657880467220
C            7.25448476736783        8.08074673508017       -7.67685294273109
H            7.52563382764155        8.94669886488932       -8.24450117559506
N            8.08972112962434        7.15969225427755       -7.26369493560369
C            7.34495589959690        6.24164280702276       -6.58430688953738
H            7.80032629175514        5.38008944239726       -6.14209073157735
C           14.51338686755087        8.69041221551386       -8.59057566370113
H           14.81658347793135        9.71397071775313       -8.80176382816625
H           14.82905000715346        8.06464147683798       -9.42141212631147
H           15.02193143596323        8.35603865659400       -7.68994271041453
C           13.00980674836757        8.63082920156624       -8.39502618878185
H           12.46847210319735        8.88109582408184       -9.30656218765165
H           12.70069854879033        9.31034308192911       -7.60301646022306
S           12.43283140889303        6.98528104668431       -7.83602816963942
C           12.71860247093179        6.04348755059462       -9.36546617936091
H           13.78366745870938        5.99928537127652       -9.57179271256757
H           12.17758474939175        6.50606286730875      -10.18489919151006
H           12.33569312006885        5.04412041186418       -9.19162465539473
