78
 energy: -115.979813399841 gnorm: 0.270733179616 xtb: 6.7.1 (edcfbbe)
Fe          35.19100000000000        4.20800000000000       10.18900000000000
N           37.05900000000000        3.96100000000000        9.65500000000000
N           34.92700000000000        5.45400000000000        8.69900000000000
N           33.36800000000000        4.58700000000000       10.81600000000000
N           35.48300000000000        3.04700000000000       11.74300000000000
C           38.01400000000000        3.15900000000000       10.24100000000000
C           39.25900000000000        3.19300000000000        9.49900000000000
C           39.07000000000000        4.04700000000000        8.47200000000000
C           37.70800000000000        4.51100000000000        8.57100000000000
C           35.82900000000000        5.80400000000000        7.72100000000000
C           35.22899999999999        6.65400000000000        6.71600000000000
C           33.93300000000000        6.82000000000000        7.07600000000000
C           33.76800000000000        6.09900000000000        8.32300000000000
C           32.42400000000000        5.40600000000000       10.23500000000000
C           31.22300000000000        5.49000000000000       11.03500000000000
C           31.42700000000000        4.70100000000000       12.11800000000000
C           32.75200000000000        4.13400000000000       11.96200000000000
C           34.59000000000000        2.73200000000000       12.74700000000000
C           35.18600000000000        1.86500000000000       13.73200000000000
C           36.46699999999999        1.67700000000000       13.35600000000000
C           36.63700000000000        2.38700000000000       12.10700000000000
C           37.81499999999999        2.42800000000000       11.39100000000000
H           38.65200000000000        1.83700000000000       11.76400000000000
C           37.12499999999999        5.36800000000000        7.67300000000000
H           37.74500000000000        5.73200000000000        6.85400000000000
C           32.60800000000000        6.08400000000000        9.05400000000000
H           31.76400000000000        6.65600000000000        8.66700000000000
C           33.31900000000000        3.24800000000000       12.84600000000000
H           32.71300000000000        2.92800000000000       13.69400000000000
C           40.09700000000000        4.45100000000000        7.42200000000000
H           39.81600000000000        4.01200000000000        6.44100000000000
H           41.10000000000000        4.07200000000000        7.71200000000000
H           40.12200000000000        5.55800000000000        7.32800000000000
C           40.49499999999999        2.34100000000000        9.75000000000000
H           40.21299999999999        1.44200000000000       10.33900000000000
H           41.24399999999999        2.92700000000000       10.32400000000000
H           40.92900000000000        2.01500000000000        8.78100000000000
C           35.92700000000000        7.22800000000000        5.48700000000000
H           36.92500000000000        6.75400000000000        5.37200000000000
H           36.06099999999999        8.32400000000000        5.60900000000000
H           35.32200000000000        7.01800000000000        4.57900000000000
C           32.91100000000000        7.39800000000000        6.32200000000000
H           31.87900000000000        7.03800000000000        6.44400000000000
C           33.13800000000000        8.46900000000000        5.36700000000000
H           34.14999999999999        8.86700000000000        5.20500000000000
H           32.30000000000000        8.89400000000000        4.79500000000000
C           29.97000000000000        6.30000000000000       10.70500000000000
H           29.85500000000000        6.37300000000000        9.60200000000000
H           30.06300000000000        7.32400000000000       11.12600000000000
H           29.07500000000000        5.79600000000000       11.12800000000000
C           30.54799999999999        4.46500000000000       13.17200000000000
H           30.45600000000000        3.45100000000000       13.58800000000000
C           29.72900000000000        5.51400000000000       13.76100000000000
H           29.78400000000000        6.54500000000000       13.38100000000000
H           29.04600000000000        5.28800000000000       14.59300000000000
C           34.50800000000000        1.27900000000000       14.96500000000000
H           33.47200000000000        0.97100000000000       14.70700000000000
H           34.46700000000000        2.04400000000000       15.77000000000000
H           35.07200000000000        0.38800000000000       15.31600000000000
C           37.55800000000000        1.02100000000000       14.18700000000000
H           37.56900000000000       -0.07200000000000       13.98800000000000
H           37.35899999999999        1.18800000000000       15.26700000000000
H           38.54600000000000        1.44700000000000       13.91300000000000
O           35.64700000000000        5.77000000000000       11.53100000000000
H           34.80700000000000        6.14600000000000       11.79400000000000
H           36.45000000000000        6.03500000000000       11.80500000000000
C           32.41200000000000       -0.05700000000000        7.66100000000000
H           32.69400000000000       -1.04600000000000        8.08200000000000
H           32.37300000000000       -0.13500000000000        6.55300000000000
H           31.41500000000000        0.23200000000000        8.05700000000000
N           34.75899999999999        0.85800000000000        7.71500000000000
H           35.13600000000000        0.14300000000000        7.12700000000000
C           33.43000000000000        0.96500000000000        8.06100000000000
C           35.43900000000000        1.84000000000000        8.28000000000000
H           36.51299999999999        1.98800000000000        8.17400000000000
N           34.59800000000000        2.58400000000000        8.97600000000000
C           33.33400000000000        2.06000000000000        8.85300000000000
H           32.48300000000000        2.51800000000000        9.34200000000000
78
 energy: -116.032415103367 gnorm: 0.103917971973 xtb: 6.7.1 (edcfbbe)
Fe          35.18771672228275        4.20583996211183       10.18766011760834
N           37.07805341456739        3.95945657425775        9.65272660061059
N           34.92178571770926        5.46098513151318        8.67902001965102
N           33.34209619391737        4.58212563637893       10.81465033419025
N           35.48156056973418        3.02625323367377       11.75175986594040
C           38.01712996380773        3.15108965676212       10.23763451044373
C           39.26032669526165        3.17862195428762        9.49712525768638
C           39.07642601450805        4.04621982858359        8.47022606744732
C           37.71616014019273        4.51227908336320        8.57262784087382
C           35.83054477506038        5.80579780871813        7.71339538458950
C           35.24484881737420        6.65781250890540        6.71114169973365
C           33.93321431503696        6.82193355317071        7.06198957065201
C           33.76294550949968        6.08788984448180        8.30626964981129
C           32.41598906497734        5.40996937606419       10.23132211092497
C           31.22056249988443        5.50395444577952       11.02665632807102
C           31.42042175427570        4.71083791791906       12.12228715446422
C           32.73952519527641        4.12478254456895       11.95625539869263
C           34.58595711751040        2.72271526408832       12.74522514390599
C           35.18306884415142        1.86351720257535       13.73761324329383
C           36.47546957780589        1.68578621928473       13.36492668501062
C           36.64003247788015        2.38926584281991       12.11315146089600
C           37.81636835916451        2.42323056821513       11.39220233361394
H           38.64936412777497        1.84000930790440       11.76608482397250
C           37.13504291134142        5.37183806553195        7.67074291622500
H           37.75311743125048        5.72908880264898        6.85715975790833
C           32.60099819875703        6.08327819406987        9.04170915120649
H           31.76702485820035        6.66170960436066        8.66425407872953
C           33.31044183750177        3.23884147447676       12.84477929172764
H           32.71425141984451        2.93217015982083       13.69586298073692
C           40.08370339089082        4.44866236278156        7.42689790848559
H           39.81921113754871        4.02255267189512        6.45128103199715
H           41.07741116279261        4.08407577412389        7.70574124442201
H           40.12312930787505        5.53904286253695        7.32873481896397
C           40.48412237164572        2.34404473957172        9.75721435496343
H           40.22271329824514        1.45161867477878       10.33331614427428
H           41.23481401234402        2.91487146295306       10.31666897366253
H           40.92313304736741        2.02330580281592        8.80579872109443
C           35.93547480831095        7.21522191685813        5.49860253050914
H           36.91888256819468        6.75849132001308        5.36571170793889
H           36.07197467858196        8.29770148886144        5.60698602305189
H           35.33352181701144        7.02442397477404        4.60087901165328
C           32.90701675423711        7.44324527463800        6.30032376729219
H           31.88998739000687        7.07571120220961        6.43148607367916
C           33.11928882585799        8.43875212205937        5.38875926862063
H           34.10319436204978        8.85690921548251        5.22735379545002
H           32.30471851538518        8.86553493534751        4.81713995393699
C           29.98429782398625        6.29538687901830       10.69695081037332
H           29.85376771193777        6.37445684915476        9.61331680051303
H           30.05952531623805        7.30773072082724       11.11154575472936
H           29.09987568427771        5.80758222307798       11.12399367651878
C           30.52200842450893        4.49314223411809       13.20357574849427
H           30.44803293884942        3.48592812713158       13.61265567057336
C           29.74368448447142        5.47537927338027       13.74392808586582
H           29.79987252640742        6.49885094937568       13.38993272736185
H           29.06880818768099        5.27296070919031       14.56702409140093
C           34.50735514855250        1.28755326857066       14.95317422511148
H           33.48528130567779        0.97602670321609       14.71310537557157
H           34.46412272733724        2.03040622565680       15.75891712175524
H           35.05995184191205        0.41149809220671       15.30936630732271
C           37.55373881049548        1.01897556232674       14.17354875238146
H           37.57419469812071       -0.06202904917624       13.98936027165936
H           37.36645955723212        1.18266001197949       15.24067861779859
H           38.53291342747881        1.43597795509000       13.92122168187203
O           35.64195477572434        5.78760102631419       11.51582141392067
H           34.81590987977155        6.16815353164441       11.81490296717424
H           36.48201816882704        6.06588450540033       11.83068261259832
C           32.41488968156850       -0.05689159513300        7.65810629007603
H           32.68326191888357       -1.03689609172112        8.07078192407457
H           32.36469975664377       -0.13966564363453        6.56648603350944
H           31.43302324612736        0.22746040694199        8.04510981854449
N           34.74994182046814        0.84535276526720        7.71155531646923
H           35.13183121796964        0.12854904033361        7.11984777255480
C           33.42864020179820        0.95559073224512        8.06286475719490
C           35.42693951296639        1.84784612821433        8.28599854382032
H           36.48877129688658        1.99509255108510        8.18058839335551
N           34.60452066939314        2.59932904149612        8.98512241293663
C           33.35226172975425        2.06156304144483        8.85586611467841
H           32.50570353515808        2.51507825691958        9.33761480117576
78
 energy: -116.043330379063 gnorm: 0.043447371329 xtb: 6.7.1 (edcfbbe)
Fe          35.18402971448331        4.20187400250536       10.18239948818674
N           37.09599249816465        3.95677530984345        9.65076948050767
N           34.91569171337311        5.45987322623417        8.65291586228858
N           33.31585790797750        4.57168371973770       10.80674037821762
N           35.47917726448718        3.01043337608978       11.75972099088699
C           38.01959600355273        3.14208377712713       10.23433591758987
C           39.26154607229879        3.16329557248091        9.49501512015633
C           39.08269526526492        4.04241820411942        8.47087387694970
C           37.72437733307606        4.51350072967090        8.57640768991755
C           35.83253592552153        5.80331490074818        7.70391775600326
C           35.25360210775053        6.65564097224260        6.70289314645316
C           33.93407313520120        6.81329491395350        7.04694836669991
C           33.75878827915388        6.07413843967427        8.28633448500371
C           32.40634073299641        5.40598341968001       10.22103588450193
C           31.21667253157706        5.50873232151131       11.01891331066948
C           31.41481363810470        4.70940744385133       12.11631299792076
C           32.72695723897616        4.11464177919770       11.94643063336101
C           34.57998750639730        2.71282447387450       12.74023382320665
C           35.17990490303814        1.86291237229963       13.74143115004112
C           36.47950628435753        1.69403250308303       13.37312878138215
C           36.64004069575595        2.39199662797311       12.11871962138433
C           37.81612767505015        2.41855722983940       11.39412651004526
H           38.64712582202724        1.84228631583201       11.77194309865150
C           37.14584475471662        5.37621062911090        7.67137362014947
H           37.76667023564744        5.72967532202105        6.86349724695756
C           32.59400783250118        6.07756279993094        9.02526061313119
H           31.76920175138645        6.66743753297705        8.65622830644227
C           33.30058282634528        3.22801418076023       12.83892501961340
H           32.71269753461073        2.93511674686135       13.69609432400694
C           40.07374373146249        4.44645610785548        7.43124276623460
H           39.81213317193357        4.02960125776769        6.45825946945441
H           41.06423818537342        4.09019158033682        7.70132436494210
H           40.11547410816436        5.52931878194350        7.33397619228831
C           40.47778359580457        2.34286553124432        9.76604765661111
H           40.22798221407961        1.45456870543414       10.33786415993047
H           41.22391152898867        2.91183702665993       10.32028256156049
H           40.92522286926046        2.02722877972444        8.82498172168161
C           35.94639596752222        7.20428705267706        5.50540562845925
H           36.91904252245218        6.74769151568600        5.35997157435167
H           36.09409478487463        8.27916566588192        5.60868651110438
H           35.34183266208705        7.02969974005089        4.61485353235545
C           32.90099390254191        7.47094668752013        6.28693018832236
H           31.89379294706463        7.09935601102411        6.44094658101379
C           33.09334444146689        8.43651615859097        5.41398654034454
H           34.05959970281139        8.86890478386855        5.23889570965014
H           32.28904378562212        8.84880824797049        4.83101685212213
C           29.99566806425640        6.29481993653866       10.68959551398751
H           29.85589466266002        6.37174822008618        9.61506233948338
H           30.06189968757908        7.30472287266046       11.09494181012788
H           29.11913159327004        5.81536761709096       11.12309860344511
C           30.50793584543350        4.50543239348061       13.22245940307749
H           30.45798043947775        3.50062711136181       13.62800865962135
C           29.76319977290316        5.45015609112371       13.74770930716476
H           29.80363995768806        6.46782732576061       13.39981174789805
H           29.07602495359306        5.25764903162636       14.55348508584117
C           34.50491084500733        1.29676272564183       14.94531695035596
H           33.49016543045751        0.98491019121552       14.71062858056664
H           34.45870545272291        2.03084886717585       15.74990716178048
H           35.05341400541118        0.42967357646714       15.30563653720616
C           37.55078623770811        1.01623561809582       14.16196815321866
H           37.57190628155433       -0.05737704600565       13.97649638807889
H           37.37270643022234        1.17151200160234       15.22455475502516
H           38.52697965756992        1.42593044313372       13.91933565398386
O           35.65619124551014        5.84630638478032       11.47021743256435
H           34.85059976146074        6.20207086932550       11.86786904346315
H           36.49710307001047        6.08723895797277       11.86787332935518
C           32.41471663964252       -0.05342820045424        7.65790322944856
H           32.67277524695390       -1.03211736225665        8.06164045913198
H           32.36093919582081       -0.13580797177168        6.57398402136951
H           31.44014600460206        0.23080873105963        8.03780918975604
N           34.74622787817044        0.83538402349333        7.71269800040475
H           35.13103519485924        0.11879469547000        7.11865877455466
C           33.42953368770571        0.94928781702573        8.06999416122390
C           35.42035820870949        1.85231408796966        8.29006422302830
H           36.47369179171478        2.00179933254434        8.18125123376499
N           34.61237830380738        2.60650271675831        8.99381813554959
C           33.36834553698849        2.06116570673483        8.86295893475215
H           32.52293361122474        2.50967075682480        9.34064367001758
78
 energy: -116.046619657378 gnorm: 0.044783545683 xtb: 6.7.1 (edcfbbe)
Fe          35.18569006693329        4.20675801813510       10.18060907262712
N           37.10335684049236        3.95385267449057        9.65035475996718
N           34.91271227643344        5.44986322430078        8.63386749296933
N           33.30536501442448        4.56266891423413       10.79593667121792
N           35.47943315253367        3.01066160341559       11.76317488126992
C           38.02047693342608        3.13536642582611       10.23333215992390
C           39.26220422424181        3.15325471455482        9.49477430027548
C           39.08572814174281        4.03648723183853        8.47293485717651
C           37.72859369342466        4.51163257173644        8.57849225751226
C           35.83439532892385        5.79622073286332        7.69454986204876
C           35.25597356741451        6.65096495822278        6.69448976389335
C           33.93545122477895        6.80742856387313        7.03884064995987
C           33.75665592910406        6.06123282714493        8.27102728270935
C           32.40087155228697        5.39705438461182       10.20843581114534
C           31.21430266365029        5.50505719025775       11.01166663629328
C           31.41348700889043        4.70265297091641       12.10743181270900
C           32.72113862108306        4.10593120037261       11.93526931724724
C           34.57687855344810        2.71024185338149       12.73612752209424
C           35.17803127670784        1.86589427853507       13.74213225227114
C           36.47893467554771        1.69910689112297       13.37626331096699
C           36.63983479401102        2.39633159220968       12.12196636603137
C           37.81575446254918        2.41674804499610       11.39649129316146
H           38.64581748454320        1.84257032079938       11.77816896231641
C           37.15235116686388        5.37598216167772        7.67193718775750
H           37.78000792088536        5.73352030123568        6.87141287098737
C           32.59041207360883        6.06691624972618        9.01047768013551
H           31.77120065468087        6.66740628027818        8.64591500457541
C           33.29479034692537        3.22037145803785       12.83037235570818
H           32.70926417885746        2.93414657220450       13.69101029096478
C           40.06936576149212        4.44491611145559        7.43199373132864
H           39.80327883388254        4.03383330096721        6.45825792632475
H           41.06199089333072        4.09145479948931        7.69432018066277
H           40.10788932895558        5.52774372126302        7.33930259514762
C           40.47833051960129        2.33973944787188        9.77717425296956
H           40.23227358187057        1.45108056189402       10.34922627740503
H           41.21693860654975        2.91380870193763       10.33526631007817
H           40.93708250339454        2.02539861578410        8.84187220967642
C           35.95716701109352        7.19641610201742        5.50267321195789
H           36.92101063047534        6.72354659992532        5.34849200688486
H           36.12758657580703        8.26693799582159        5.61287419546297
H           35.34660837845669        7.04176013067297        4.61332045887548
C           32.89219935614523        7.47386977322745        6.29062488941102
H           31.88869052037363        7.10126710209070        6.46328640914002
C           33.06641115948818        8.44685899079843        5.40712077968306
H           34.02135886718881        8.90527942890371        5.23327348421675
H           32.24799839475563        8.86155856750947        4.84695546690165
C           29.99946015526990        6.29574121912101       10.68112013699067
H           29.85398868953575        6.36483339137299        9.60700438309863
H           30.07061291893148        7.30930137317739       11.07520699251120
H           29.12404601207280        5.82534002876328       11.12438972877073
C           30.51061046903923        4.49421021685649       13.22327044455541
H           30.48074376900196        3.49135671804430       13.63485425087735
C           29.74684216021915        5.43933228535122       13.74909864255872
H           29.79392863578904        6.46020744644853       13.41411036131462
H           29.07752113983500        5.24742203201078       14.56902487073426
C           34.49910608029310        1.30563370986123       14.94325770664403
H           33.48572404508327        0.99287402104881       14.70680156107919
H           34.44870245851336        2.04120666566781       15.74561971925966
H           35.04658910620731        0.44159281806947       15.30977122818802
C           37.54908732311764        1.00809582560581       14.15203606953967
H           37.56539434585061       -0.06290556454081       13.95384738073859
H           37.37833309434917        1.15109043040130       15.21685340079328
H           38.52691309476214        1.41435663147007       13.91197729448523
O           35.68206082282801        5.93533011202233       11.40578980958809
H           34.89143872923216        6.21652500441360       11.93604038121420
H           36.51368158617412        6.09093823648685       11.91258872668044
C           32.41289023034328       -0.04642903235731        7.65948829096230
H           32.66088050633066       -1.03060186221983        8.05539435065348
H           32.35954384747591       -0.12275631689296        6.57544981060346
H           31.43912646044790        0.24168723480363        8.03641371958253
N           34.74762872205464        0.83186526530523        7.71815143886281
H           35.13113823430202        0.11618021763118        7.12152167984187
C           33.43253470154736        0.94764357601275        8.08075575701499
C           35.42244376848505        1.85211835172367        8.29454971012769
H           36.47324752258897        2.00543894735375        8.17872320218114
N           34.62042706091884        2.60601201793279        9.00407372690244
C           33.37802228844242        2.05840540695908        8.87664789235601
H           32.53303726968204        2.50415942946597        9.35567025924668
78
 energy: -116.048593889556 gnorm: 0.027255857297 xtb: 6.7.1 (edcfbbe)
Fe          35.18855794125309        4.21116439743340       10.18019308777498
N           37.10835531448781        3.95109119458148        9.65151940039908
N           34.91059015667304        5.43566846335716        8.61686153195894
N           33.30052491257489        4.55617121673000       10.78713802473452
N           35.48213373122249        3.01828821392712       11.76962316169576
C           38.02167484239303        3.12980633241974       10.23420270577430
C           39.26343146638580        3.14462279039243        9.49551772888978
C           39.08862298922623        4.03013547709271        8.47605036841171
C           37.73186866052991        4.50914359042839        8.58108406067829
C           35.83614244475520        5.78779627797070        7.68575595947878
C           35.25728426657533        6.64716486784945        6.68666377692143
C           33.93755932683735        6.80289433794615        7.03222630606903
C           33.75560546486779        6.04802374594866        8.25725376861732
C           32.39785945407989        5.38863055472056       10.19740265057872
C           31.21241469310632        5.50099593039844       11.00542528604684
C           31.41260683757644        4.69700408019309       12.09929109691212
C           32.71696751018774        4.09879907402815       11.92538464686809
C           34.57549780828494        2.71194129803444       12.73569054002264
C           35.17609824681744        1.86842475530568       13.74310305212112
C           36.47682511815307        1.70165595576302       13.37908684717617
C           36.64049725746085        2.40158879158064       12.12676312102186
C           37.81605613122530        2.41596932376439       11.40025033180985
H           38.64461319132371        1.84057912826757       11.78412899161018
C           37.15757099992472        5.37474467912054        7.67354152844642
H           37.79360059551410        5.73976308422555        6.88192821334612
C           32.58876504394481        6.05492608350250        8.99727015493154
H           31.77360818042035        6.66346404362264        8.63485578507725
C           33.29021786614851        3.21491693653840       12.82304617080885
H           32.70340205365472        2.92929235094341       13.68304086404657
C           40.06709594343139        4.44353313967960        7.43197583778034
H           39.79293054584988        4.03800267394043        6.45674167228404
H           41.06341037154711        4.09022811974672        7.68503467669402
H           40.10106855564413        5.52852030021733        7.34599998758169
C           40.48128067461399        2.33617529217338        9.79009883222208
H           40.23523679916422        1.44600969786571       10.36283474832179
H           41.20960630861579        2.91764284007988       10.35687712288413
H           40.95419550899061        2.02249851873105        8.86016744868244
C           35.96542809957276        7.19263269323416        5.49720303841540
H           36.91825803627078        6.69470429949486        5.33266289028891
H           36.16452088701123        8.25887396634530        5.62012157429884
H           35.34626122298615        7.06363536540868        4.60796881042466
C           32.88443103406581        7.47521927537786        6.30178568578031
H           31.88385439292533        7.10019161600983        6.48663666703033
C           33.03812846852369        8.46748428253654        5.41447121867008
H           33.98869190593575        8.92925360668226        5.21976131279557
H           32.20012462085950        8.87585456819937        4.87456030619550
C           30.00109838481133        6.29795050536533       10.67243618988160
H           29.85053528569045        6.35370972262287        9.59632143215144
H           30.08375930475704        7.31785375464240       11.05163602944922
H           29.12453030145548        5.83947875512488       11.12857433971094
C           30.51995730957441        4.48093717243503       13.22260274221313
H           30.50476980126821        3.47970036048999       13.63889549655807
C           29.74123074706682        5.42816512095694       13.75964565811317
H           29.77096977949527        6.44709333126611       13.41595693513679
H           29.07852772010961        5.22443757559245       14.58337353445338
C           34.49077297105836        1.31317204689311       14.94328729602903
H           33.47746081015230        0.99983661822377       14.70137438574670
H           34.43497344380939        2.05447063731505       15.74186921976661
H           35.03717888026173        0.45058101421340       15.31801818932245
C           37.54681416943500        0.99426855603493       14.14150304006444
H           37.55499851143207       -0.07444106603709       13.92238900307419
H           37.38314782543038        1.11963226508590       15.21102422907797
H           38.52744449420703        1.39839441133638       13.90221222165185
O           35.70380869068392        5.95948208125513       11.42671613005632
H           34.94328104172658        6.29176594851662       11.90022271911067
H           36.52015176004856        6.12158620946814       11.92302985311469
C           32.40945160898107       -0.03601293761851        7.66115764875069