87
 energy: -124.720496309829 gnorm: 0.000043779187 xtb: 6.7.1 (edcfbbe)
Fe         -13.77563437459823       -4.57695567870001       14.46624461427889
N          -15.57817576514020       -3.70532353361838       14.34696308426234
N          -13.32461414384214       -3.89616927435415       12.63787768130293
N          -11.98769983576421       -5.45583384783978       14.58948228001894
N          -14.27016333290524       -5.32078552127571       16.25899779616056
C          -16.55269295735944       -3.69781003191798       15.29444415301159
C          -17.70695165289013       -2.95678918484126       14.83700050262814
C          -17.41768089538711       -2.54319498917629       13.57403450503164
C          -16.08575656440170       -3.02597949672757       13.28327055024881
C          -14.14657430075243       -3.21876029572438       11.79197311412532
C          -13.47239203642746       -2.91654175733762       10.55573609951349
C          -12.20292711197663       -3.41716958859447       10.67739216804610
C          -12.14407190446832       -4.04021644129340       11.98580933991913
C          -10.96957361248305       -5.35509660713851       13.69389525159682
C           -9.81272565422590       -6.08548089694539       14.14836488708506
C          -10.16106351231889       -6.64724797773833       15.34695963700572
C          -11.53105359358079       -6.23948340147456       15.59559434001533
C          -13.52138066375448       -6.15635013302618       17.02465093779665
C          -14.22691654271387       -6.50891192074454       18.23709928236493
C          -15.41979461009980       -5.85738856684114       18.18779713160720
C          -15.43013988503830       -5.12711500980557       16.94050400786233
C          -16.49116939331339       -4.34932679757269       16.51330405332083
H          -17.34596890262546       -4.26673170955418       17.16736390026999
C          -15.43717643819112       -2.81215454023387       12.08361370456556
H          -15.97146534610109       -2.26448229114087       11.32256060730283
C          -11.02774534977191       -4.68205705142745       12.48658463894431
H          -10.13641154279850       -4.67649188719428       11.87818388951728
C          -12.24203224127275       -6.58585728479433       16.72817874927192
H          -11.75556833569273       -7.22398918549307       17.44984436905086
C          -18.25017039857894       -1.74942376595719       12.62652579433066
H          -17.74116946128509       -0.82626194496052       12.34779807617757
H          -19.20675928680116       -1.49116293596263       13.07438285966976
H          -18.44057623273360       -2.31763422007647       11.71559790142409
C          -18.94130088811170       -2.73998131221340       15.64397097408125
H          -18.70239397115994       -2.24781491893833       16.58709926161496
H          -19.42382443475798       -3.69096221399603       15.87302180372031
H          -19.65173561539572       -2.11862479931614       15.10419827215227
C          -14.09532847580233       -2.24551067974559        9.38157285372919
H          -14.08560334666301       -1.16053269693636        9.50075257085897
H          -15.13044576354472       -2.56203748510579        9.26187685964183
H          -13.54726021616897       -2.49533613436200        8.47528007050191
C          -11.11660467207562       -3.39577461594260        9.72347404414609
H          -10.45667266165598       -4.25539213764695        9.74503382094111
C          -10.87203787258346       -2.42034647522097        8.85432192771086
H          -11.46266252431059       -1.52163597562632        8.81969147815765
H          -10.04891304932801       -2.47678706719849        8.16143981981218
C           -8.54032977631064       -6.23726745224894       13.39047224139134
H           -7.90064482505377       -5.36416088078904       13.52818358028337
H           -8.73499671444572       -6.34632876870314       12.32444792935807
H           -8.00176789111316       -7.11692572536884       13.73720044680104
C           -9.38354023353772       -7.49947130611441       16.21901106227975
H           -9.94382376026354       -8.25865886877832       16.75293216357947
C           -8.07135763375987       -7.41372286999615       16.41187072761667
H           -7.47341559928136       -6.64935168139464       15.94733512530957
H           -7.55259025845281       -8.09272410736719       17.06832472447126
C          -13.68312370117810       -7.40541015994591       19.29573887128864
H          -12.76874663212399       -6.98786831946794       19.71838124566394
H          -13.44683646794413       -8.38646382391632       18.88317249457323
H          -14.40299164058207       -7.53612442465077       20.10010809406895
C          -16.53548518063154       -5.85079141683333       19.17611696623967
H          -16.29259327333071       -6.46888525871248       20.03686917338942
H          -17.45209380760431       -6.23432787412254       18.72649900170997
H          -16.73066523596280       -4.83701338027743       19.52696466717122
C          -12.82014324476729       -2.85256204388706       18.15692905159275
H          -13.31054343767899       -2.63005249249577       19.10260152651411
H          -11.79664437389427       -2.48755054100601       18.19602326397711
H          -12.79575648797742       -3.92995558429812       18.02171452367007
C          -13.57065543723758       -2.19732447960321       17.01394699663957
H          -13.54501962393708       -1.11123566580985       17.10647933865176
H          -14.60265756781607       -2.54144573150787       16.96887875729547
S          -12.76773914072965       -2.61164619893274       15.41242847792283
C          -13.39712472790530       -1.20255021891116       14.45043663339037
H          -13.01301099389138       -0.28046509014885       14.87878262128294
H          -14.48238828977331       -1.21109048359168       14.45130102653113
H          -13.03078977919850       -1.32331178226108       13.43708467583943
C          -14.60090853087490       -9.13912057119438       11.37998387954413
H          -15.40455914453196       -9.12319282987585       10.64378625173585
H          -14.62512842478013      -10.10195364084782       11.89029769889489
H          -13.65208467304935       -9.04398263318995       10.86146710749545
N          -15.85494960498921       -7.88714136585851       13.14980923043132
H          -16.65077044712811       -8.50360993572955       13.16548400352637
C          -14.75095380859140       -8.02460170572467       12.34941595336240
C          -15.67630603421871       -6.78155665757216       13.90715512668463
H          -16.38302374968837       -6.42768663534650       14.62896707240434
N          -14.52815298740007       -6.21205330225759       13.63522241721243
C          -13.94086624909631       -6.97285315423209       12.66824964049339
H          -12.98184123845386       -6.71464665530815       12.27016254485864
