78
 energy: -115.964005525784 gnorm: 0.277937430101 xtb: 6.7.1 (edcfbbe)
Fe          35.31800000000000        4.20400000000000       10.33600000000000
N           37.15900000000000        3.92900000000000        9.79800000000000
N           35.01800000000000        5.44800000000000        8.81500000000000
N           33.47600000000000        4.57600000000000       10.95200000000000
N           35.63799999999999        2.99400000000000       11.86600000000000
C           38.16600000000000        3.17200000000000       10.39200000000000
C           39.42200000000000        3.19200000000000        9.59400000000000
C           39.15500000000000        3.95700000000000        8.50400000000000
C           37.77700000000000        4.42400000000000        8.64900000000000
C           35.90900000000000        5.79500000000000        7.83200000000000
C           35.34800000000000        6.74900000000000        6.86300000000000
C           34.09800000000000        7.03100000000000        7.29600000000000
C           33.90500000000000        6.21300000000000        8.51800000000000
C           32.55300000000000        5.45700000000000       10.43800000000000
C           31.38400000000000        5.57100000000000       11.29400000000000
C           31.57600000000000        4.72700000000000       12.35700000000000
C           32.85400000000000        4.10500000000000       12.10800000000000
C           34.72699999999999        2.67100000000000       12.88100000000000
C           35.31400000000000        1.79100000000000       13.87800000000000
C           36.60300000000000        1.65300000000000       13.49000000000000
C           36.79599999999999        2.36400000000000       12.24000000000000
C           37.97400000000000        2.41900000000000       11.54200000000000
H           38.81500000000000        1.83300000000000       11.91400000000000
C           37.19400000000000        5.30200000000000        7.76900000000000
H           37.81000000000000        5.64300000000000        6.93700000000000
C           32.75800000000000        6.22400000000000        9.29300000000000
H           31.95000000000000        6.88600000000000        8.98200000000000
C           33.45700000000000        3.20100000000000       12.98100000000000
H           32.86100000000000        2.87800000000000       13.83400000000000
C           40.07800000000000        4.23500000000000        7.32400000000000
H           41.04399999999999        3.70700000000000        7.47600000000000
H           40.27200000000000        5.32600000000000        7.24800000000000
H           39.61000000000000        3.86700000000000        6.38600000000000
C           40.67700000000000        2.33300000000000        9.85800000000000
H           40.59500000000000        1.37600000000000        9.30000000000000
H           40.75800000000000        2.11100000000000       10.94400000000000
H           41.58300000000000        2.87600000000000        9.51200000000000
C           36.05799999999999        7.31600000000000        5.60300000000000
H           36.64200000000000        6.50900000000000        5.11100000000000
H           36.75099999999999        8.13300000000000        5.89800000000000
H           35.30100000000000        7.70000000000000        4.88700000000000
C           33.13000000000000        7.90100000000000        6.71800000000000
H           32.11900000000000        7.49800000000000        6.56800000000000
C           33.32000000000000        9.30400000000000        6.28700000000000
H           34.29800000000000        9.79400000000000        6.39700000000000
H           32.48500000000000        9.87200000000000        5.85100000000000
C           30.19100000000000        6.47900000000000       11.01200000000000
H           30.06600000000000        6.59800000000000        9.91400000000000
H           30.36500000000000        7.47800000000000       11.46500000000000
H           29.26700000000000        6.02700000000000       11.43300000000000
C           30.80100000000000        4.51900000000000       13.54000000000000
H           31.12100000000000        3.69200000000000       14.18700000000000
C           29.63700000000000        5.24000000000000       14.03100000000000
H           29.22600000000000        6.08900000000000       13.46500000000000
H           29.15400000000000        4.94500000000000       14.97400000000000
C           34.64400000000000        1.21000000000000       15.12600000000000
H           33.67300000000000        0.74800000000000       14.84500000000000
H           34.45800000000000        2.02000000000000       15.86300000000000
H           35.29700000000000        0.43100000000000       15.57400000000000
C           37.73499999999999        1.06900000000000       14.29400000000000
H           37.91400000000000        0.02000000000000       13.97500000000000
H           37.47200000000000        1.07800000000000       15.37300000000000
H           38.65999999999999        1.66000000000000       14.12400000000000
O           35.99699999999999        5.66800000000000       11.64900000000000
H           35.21500000000000        6.11500000000000       11.97300000000000
H           36.83800000000000        5.85100000000000       11.87200000000000
C           32.46900000000000        0.13200000000000        7.58000000000000
H           32.66100000000000       -0.86100000000000        8.03900000000000
H           32.50500000000000        0.03100000000000        6.47400000000000
H           31.46500000000000        0.48700000000000        7.89600000000000
N           34.85100000000000        0.90200000000000        7.78300000000000
H           35.21800000000000        0.17800000000000        7.19900000000000
C           33.51000000000000        1.09900000000000        8.03200000000000
C           35.55899999999999        1.81000000000000        8.43000000000000
H           36.64600000000000        1.87500000000000        8.41200000000000
N           34.72500000000000        2.59700000000000        9.08100000000000
C           33.43500000000000        2.17600000000000        8.84400000000000
H           32.58600000000000        2.68700000000000        9.27900000000000
78
 energy: -116.025878578861 gnorm: 0.113143085132 xtb: 6.7.1 (edcfbbe)
Fe          35.31689571204273        4.18993522096762       10.32017929757675
N           37.19039220547671        3.92492290143819        9.78288876836560
N           35.01798514808257        5.47878599785616        8.80091584840038
N           33.45917475561196        4.58255349102605       10.97102501735471
N           35.62470094000814        2.98211141466872       11.87813069637179
C           38.16799942467654        3.15896521919912       10.38037541594957
C           39.40625715590448        3.17036324071739        9.59212797144035
C           39.15189606045081        3.94922348849852        8.50639271440067
C           37.78762842494849        4.42935079958785        8.64711584541990
C           35.91210824996929        5.79796599819035        7.81933919254664
C           35.36053547547031        6.75780263204268        6.87038539727014
C           34.10031149558611        7.04983138542835        7.30605102534686
C           33.89633914388930        6.21509254358059        8.50975271215473
C           32.55184049486993        5.46808392922580       10.44383255204352
C           31.38134668099420        5.58039744199763       11.28526473501394
C           31.57050176981068        4.74059582394163       12.36286942073499
C           32.85900866181112        4.11043444887232       12.12015336687100
C           34.71899842808988        2.66414020793747       12.87249861243609
C           35.31746676352548        1.80221659531049       13.87469750537026
C           36.61471053777928        1.66284323487725       13.49710039327723
C           36.78848110157397        2.36846104874478       12.24449784141456
C           37.97450312654847        2.42217337926209       11.53718576913390
H           38.81086283235369        1.84180271665295       11.91141364595019
C           37.19998197241365        5.30099465597478        7.75534583533391
H           37.81378080358333        5.64216615275386        6.93146731223358
C           32.75397023054352        6.22155052009541        9.28739624700661
H           31.95390210292880        6.88502994553212        8.98142451383990
C           33.45061684444428        3.19287485434919       12.97656477978993
H           32.86711650602415        2.87606064450780       13.83228780217761
C           40.06567594018706        4.23384371273023        7.34030082160431
H           41.02255241093964        3.71710032168971        7.47486871214369
H           40.26527003330111        5.30839767642455        7.24791912547700
H           39.61622808233603        3.87943220630387        6.40414663689192
C           40.65228902396110        2.34618749384650        9.86125172093911
H           40.59253887645637        1.39624331352270        9.31299978913236
H           40.75627679305924        2.11881787146245       10.92672621577233
H           41.55542632564051        2.87037563502994        9.52463287154257
C           36.05181724342992        7.30063738822692        5.62858337768925
H           36.63166614228653        6.51791785017153        5.12550293025104
H           36.73670358805168        8.11447873610652        5.89737648708274
H           35.31188327245930        7.69106694839035        4.91903632524934
C           33.13034656458589        7.94244648983335        6.71600501756880
H           32.12852249571976        7.53169989716273        6.57788532673531
C           33.32128216099895        9.23856290945823        6.30099135775014
H           34.27413854240359        9.74837092138182        6.40813370704090
H           32.50773450650881        9.81970487090658        5.87237071203915
C           30.20220065047699        6.47160919056440       11.00536647828335
H           30.06565048287785        6.59992637248815        9.92685572610944
H           30.35848359543528        7.46022766164972       11.45636007263107
H           29.28743754295893        6.03382320950344       11.41936792018508
C           30.77181388682321        4.53141566476041       13.54265236343460
H           31.10120509776636        3.71397907812806       14.18398716781975
C           29.67735938158146        5.21747555698961       14.00236886907908
H           29.25634552635045        6.06585305319326       13.47593858369261
H           29.19259466891799        4.93836657342205       14.93464019199416
C           34.64890101611308        1.22399566366082       15.10255266083841
H           33.68933702932188        0.75956169313501       14.84441954866006
H           34.46033143445862        2.00748856678662       15.84750536064939
H           35.28368534128555        0.45478252737620       15.55833324779791
C           37.73437113609848        1.06080182854257       14.28807510235216
H           37.92109805699458        0.02460551489218       13.98158637731740
H           37.48394326269464        1.07261096138430       15.35424674340807
H           38.64890231854002        1.64318792446325       14.13417224685314
O           35.97689068816508        5.68812722965527       11.63264169042066
H           35.21692960775530        6.13996455849781       11.99704774529444
H           36.86134850343155        5.87359252420555       11.89194229631765
C           32.46924525642240        0.13093914391306        7.57415950032236
H           32.65069123798833       -0.85199117907931        8.02611937519683
H           32.49434421149922        0.02600087789711        6.48368253163278
H           31.48114720333940        0.48091796068548        7.88496691254672
N           34.84270667458721        0.88708425847330        7.77909359692113
H           35.21485998070505        0.16211627240816        7.19164376092876
C           33.50926682109287        1.08638496667832        8.03546758955253
C           35.54643877330525        1.81826781584885        8.43403607401548
H           36.62197287644804        1.88390398836496        8.41627844807836
N           34.72856813939674        2.61155477639288        9.08862880795454
C           33.45207892616170        2.17522039958887        8.85012468044718
H           32.60718561926895        2.68319118964439        9.27732695912956
78
 energy: -116.040865115404 gnorm: 0.056804306077 xtb: 6.7.1 (edcfbbe)
Fe          35.31259425148767        4.17904066422436       10.30858750096089
N           37.21437575859034        3.92001252812490        9.76277695661418
N           35.01707761606791        5.49359626816668        8.78143623105560
N           33.44045231196143        4.58771348588227       10.98335076968989
N           35.61418588425970        2.96710123655714       11.88421297570539
C           38.16452188370751        3.14335301284057       10.36165617572140
C           39.39067461689766        3.14947301317466        9.58591428957206
C           39.15073938291187        3.94380592081481        8.50498608476014
C           37.79581585077840        4.43149001680401        8.64076246010843
C           35.91697410832548        5.80192766914636        7.81093749070509
C           35.36679228459408        6.76085075702029        6.87717035171732
C           34.10231205762395        7.04849439410916        7.31604661110075
C           33.89869015302030        6.22217374197464        8.51050692688417
C           32.55087544221183        5.47735175734802       10.44687407012977
C           31.38025723260462        5.58803148537387       11.27853081205867
C           31.57170642075657        4.75213717329872       12.35979465066412
C           32.86318483196040        4.11688163715497       12.12537155291538
C           34.71484261201990        2.65883244713030       12.86251037884165
C           35.32235536953937        1.81173408257952       13.86900202556375
C           36.62627646377364        1.67329011185406       13.50182609334083
C           36.78338431363379        2.37336585873942       12.24574157773469
C           37.97067963786534        2.42575607969682       11.52959513056580
H           38.80512711909329        1.85485947867944       11.91054231031415
C           37.20628763594551        5.30136642100759        7.74197132326247
H           37.81797372728735        5.63935534574690        6.92024007683858
C           32.75570926761480        6.22353969412162        9.28725468342542
H           31.95762479785618        6.88284189721091        8.97908728441444
C           33.44349107366541        3.18643911429120       12.97165790667895
H           32.86835388436623        2.87211240113231       13.83002638770166
C           40.05820403765665        4.23336613658344        7.35338093018782
H           41.00939981074483        3.72271840605269        7.48097486446103
H           40.25261766567259        5.30093722167275        7.25817417648023
H           39.61272951854066        3.88847985713262        6.41998667877993
C           40.62679758680001        2.35332686267796        9.86412888026728
H           40.58592355192479        1.40451522165988        9.32399528817127
H           40.73904700829778        2.13251385924321       10.92131334488635
H           41.52046060341743        2.88061141079075        9.53282919895549
C           36.04522976835383        7.29210871583913        5.65655069132241
H           36.61872070208401        6.51629054313161        5.15209468693860
H           36.72966614626286        8.10256410221704        5.90997858044396
H           35.30944115114136        7.68391983450407        4.95515834151918
C           33.12673830360777        7.95604493772975        6.72184282758318
H           32.13002189883469        7.53635455502867        6.60548706554401
C           33.32413604400157        9.18498055060202        6.33141358625203
H           34.26900604128156        9.69818594993348        6.41910416380370
H           32.53363437819063        9.77221269359541        5.88446538858140
C           30.21011559726422        6.46611327484062       10.99774459738975
H           30.07113684540988        6.60225454808899        9.92896355975321
H           30.35352722631698        7.44891035654072       11.45037890385724
H           29.30170386702908        6.03112133216858       11.40522822847583
C           30.76182832740266        4.53751958382871       13.54067693749283
H           31.09815665781327        3.71588246782720       14.16573488319912
C           29.71465186979496        5.20739836596406       13.97741253255155
H           29.28381195966719        6.05678866077499       13.47806266764343
H           29.22132563889448        4.92958959411953       14.89702819452874
C           34.65293807192381        1.24086306005810       15.07997420770472
H           33.70064197351433        0.77830282584332       14.82509784092859
H           34.46203296602754        2.01214464600058       15.82745878567760
H           35.28087581120313        0.47782299610873       15.53666215434193
C           37.73596819665243        1.05294739926616       14.28277777198522
H           37.92245740407461        0.02452256806366       13.97754606701827
H           37.49200900888410        1.05929379038637       15.34227348235638
H           38.64942431007057        1.62542481075709       14.14152191394423
O           35.96724625243755        5.74891054386524       11.58763044496894
H           35.23702158256608        6.17657600570356       12.05226763912917
H           36.85777905062369        5.88894129206484       11.92548790494813
C           32.46687924778210        0.13279632306051        7.57123311276457
H           32.63717002409864       -0.84891965018400        8.01317297166353
H           32.48834737524370        0.02877009815733        6.48861952636442
H           31.48715260855717        0.48242763041155        7.87532733440487
N           34.83818128661824        0.87461756273493        7.78267382099926
H           35.21422135227883        0.14956952190189        7.19370775104471
C           33.50979022880719        1.07656640650910        8.04553484190579
C           35.53785979999837        1.82587827550818        8.43703086289286
H           36.60516780452512        1.89402360558189        8.41542628111713
N           34.73310557345234        2.62310488003511        9.09615738007887
C           33.46701099331698        2.17398264651572        8.85935564298583
H           32.62235088051681        2.67679602489649        9.28158197265975
78
 energy: -116.045450596344 gnorm: 0.043416318743 xtb: 6.7.1 (edcfbbe)
Fe          35.31408958840606        4.18538029630686       10.30913030592662
N           37.21658262925175        3.91737822576151        9.74936317501419
N           35.02220400084471        5.49253237371060        8.78012204814003
N           33.44007614484601        4.59252100501767       10.98650961292507
N           35.61550362678611        2.97085365400827       11.88369180137729
C           38.15674999690746        3.13360990061359       10.34676516075813
C           39.37866352696766        3.13476038075193        9.57444702385947
C           39.14740533803716        3.93601695439171        8.49729551714005
C           37.79630310906062        4.42766200899185        8.63055738868068
C           35.92025275857917        5.79923150852222        7.81052767917930
C           35.36493464573732        6.75984862865493        6.88751796794577
C           34.10024397283138        7.03430727339038        7.32989606581298
C           33.90291949357944        6.21516454591150        8.51685938738041
C           32.55411214722753        5.48018234952365       10.44862525273261
C           31.38282884241328        5.59004587242813       11.27609907424688
C           31.57705960012812        4.75135971428003       12.35150342429315
C           32.86750315100137        4.11787275148202       12.12296153539320
C           34.71642568166121        2.65966887437337       12.85486757469189
C           35.32902070972076        1.82139160816769       13.86313129343168
C           36.63394498230059        1.68234393569064       13.50059656550126
C           36.78517481533954        2.38088968250511       12.24368221345205
C           37.96743137350061        2.42850217231979       11.52224816859013
H           38.80375760206418        1.86534844303572       11.90824603758527
C           37.20860708800490        5.29847189735064        7.73170082400820
H           37.81881063448164        5.63534376726127        6.90777912222886
C           32.75822727393334        6.21965188154303        9.28895395084780
H           31.96221004574793        6.88006370219790        8.97801350215835
C           33.44184598686788        3.18100702895358       12.96553460952191
H           32.86909480079257        2.86369220754152       13.82390061351441
C           40.05679524674257        4.23616627720018        7.35602498059699
H           41.00801141261946        3.72790900735548        7.48323294360150
H           40.24409365411913        5.30493514611886        7.26977218693334
H           39.61228940270906        3.89785364605881        6.42064415953395
C           40.61353027858171        2.35322326417993        9.86870211751775
H           40.58665499725029        1.39963444683331        9.33725902155155
H           40.71917839712604        2.14555842802521       10.92856745458257
H           41.49931020320184        2.89243720291857        9.53990895145090
C           36.04097186727497        7.29086460642122        5.67360649847164
H           36.60918846130791        6.51181121587957        5.16940010661578
H           36.72937755871897        8.09643431635364        5.92850134203211
H           35.30194013545970        7.68701532256800        4.98042795402284
C           33.11228406086742        7.93037866386833        6.74232832738577
H           32.11277444316796        7.51398363003535        6.64791233511508
C           33.33859047220606        9.16619136658835        6.31817008968610
H           34.28695286848086        9.66473839144381        6.42485091882254
H           32.55061257836521        9.76677570321800        5.89000846597984
C           30.21229508907026        6.46221513786511       10.98809217250282
H           30.08089877002594        6.60509797191901        9.91932767130356
H           30.34452187964839        7.44347000383343       11.44673965999760
H           29.30372493681796        6.01967035459477       11.38475544783590
C           30.76760595843326        4.52322396260326       13.52765105554864
H           31.10093790065218        3.69537245620457       14.14336589923652
C           29.71984369907885        5.20951104204732       13.96665849933392
H           29.31111302375831        6.07702060991858       13.48201488942502
H           29.22463475510371        4.92686473894074       14.88141061593475
C           34.65270355202592        1.25593654869301       15.06569221394891
H           33.70258789113306        0.79675877175942       14.80078647761397
H           34.45826068029678        2.02809702630533       15.81017089607863
H           35.27853506744606        0.49412796537211       15.52376413896544
C           37.73853091737914        1.04239556259554       14.27411623534887
H           37.91848882676421        0.01589936885590       13.95861486360009
H           37.49701449065234        1.03627427014772       15.33381980544977
H           38.65935846746351        1.60560185145990       14.14413063457701
O           35.96642665216574        5.84356095428270       11.53003170404970
H           35.25119218476468        6.19349150344946       12.11995932745824
H           36.84693657767069        5.90160941670649       11.96835113777874
C           32.46279385287892        0.13839643649674        7.57072688564380
H           32.61939632245275       -0.85042041124382        8.00179118149863
H           32.48711129825873        0.04232354254643        6.48742225858185
H           31.48366431875802        0.49283789303760        7.86929741594783
N           34.83723648936030        0.86858627922266        7.79362253134331
H           35.21312471800412        0.14336297156571        7.20387157911835
C           33.50994438974405        1.07157023560256        8.06009849228502
C           35.53639594173119        1.82734503769888        8.44223278516574
H           36.60180191934892        1.90160155287133        8.41178921531671
N           34.73616551891954        2.62491503508573        9.10618679911272
C           33.47199552452275        2.16937624943306        8.87503208438672
H           32.62721878044953        2.66989238037450        9.29763067537323
78
 energy: -116.047761825263 gnorm: 0.032566410756 xtb: 6.7.1 (edcfbbe)
Fe          35.31764880585830        4.19596708992823       10.31392238888487
N           37.21535077030507        3.91797217674164        9.73920330730850
N           35.02765950033067        5.48115929225464        8.78200152216408
N           33.44348613636446        4.59477557405808       10.98782550277372
N           35.62331062004517        2.98583587272396       11.88608325118730
C           38.14942149538106        3.12698665799603       10.33311136678817
C           39.36901324848215        3.12107459207920        9.56095961964084
C           39.14482755299176        3.92736329771397        8.48714087004620
C           37.79624356747821        4.42345228194307        8.62031532837744
C           35.92360920508908        5.79551311908426        7.81424655419895
C           35.36343865288698        6.76038126309484        6.90035342452986
C           34.09881260313171        7.02013847845364        7.34595040036263
C           33.90795894967423        6.20039822930908        8.52329253264353
C           32.55833006047654        5.47992999634313       10.45074499055370
C           31.38529808319442        5.58944534991917       11.27526479089622
C           31.58157954333816        4.74760981470161       12.34415399005548
C           32.87092128266782        4.11636291565135       12.11983666614116
C           34.72260822636301        2.66710829639140       12.85137689888981
C           35.33677228280022        1.83024295426100       13.85739590010027
C           36.64159262318588        1.69047869089144       13.49793827013656
C           36.79125946879289        2.39180276784745       12.24281545504586
C           37.96623654267530        2.43244218717750       11.51531998117123
H           38.80386752371209        1.87278874750346       11.90290314713920
C           37.21057584888182        5.29584738172390        7.72322262509744
H           37.81830144558274        5.63191426057452        6.89575193753962
C           32.76166383415324        6.21218411939150        9.29128782876263
H           31.96923707475973        6.87618194295788        8.97735498434764
C           33.44266286891008        3.17740490344051       12.96162127984899
H           32.87015643263856        2.85029512960923       13.81618463803160
C           40.05840346862490        4.24027853510827        7.35463852835157
H           41.01206980043156        3.73513390174826        7.48225598447355
H           40.23749391770772        5.31265351791121        7.28268291289108
H           39.61666387333834        3.90930661271683        6.41411117820359
C           40.60507723552005        2.35025911686075        9.87307451014012
H           40.59270223729153        1.38831229195932        9.35469299916609
H           40.69887321561322        2.16006946124735       10.93900082806259
H           41.48525081710557        2.90042447683150        9.54578811853347
C           36.03828884895909        7.29563278234104        5.68873599700590
H           36.59934944446493        6.51120865366472        5.18237683804894
H           36.73428479800209        8.09371009118667        5.94980105697562
H           35.29605070970884        7.70053005773231        5.00345079214482
C           33.09990813323887        7.90474918442831        6.77213883247503
H           32.09566354021853        7.49940613274171        6.69868229196288
C           33.34474038211142        9.14846017374994        6.33263537173602
H           34.31486555801169        9.60803123990958        6.41490971263122
H           32.56700881141417        9.74943029167733        5.88968873798449
C           30.21225357345610        6.45693621899456       10.97845914490149
H           30.09496542742728        6.60718557393353        9.90715390422814
H           30.33207436492072        7.43719902366652       11.44545499436895
H           29.30108194281457        6.00298853493417       11.36062013692276
C           30.77498933294164        4.50806315638212       13.51489249350194
H           31.08863793825453        3.66200350872706       14.11438214409421
C           29.72877565403595        5.21720161916244       13.96144094875061
H           29.34647693443463        6.09912196874439       13.48095606360426
H           29.22215148673821        4.92072952648866       14.86548351213206
C           34.64985792895729        1.26915509196024       15.05325275645160
H           33.70025940431447        0.81532075460204       14.77382507003269
H           34.45054300840146        2.04598595229717       15.79275006811755
H           35.27133020300688        0.50624264342115       15.51607779936925
C           37.74078466166453        1.02705984554677       14.26155451612391
H           37.90835066708631        0.00272018912621       13.92562442973254
H           37.49944771310189        1.00180069240306       15.32287698189963
H           38.67181549496674        1.58000399197059       14.14360296369658
O           35.95870130062139        5.88004541742491       11.55733884481709
H           35.27029980682064        6.26963309423572       12.08689877272368
H           36.82071026668230        5.94968847826449       11.98946693387599
C           32.45583512895195        0.14895029945660        7.57151520637146