69
 energy: -103.326933179236 gnorm: 0.579494353410 xtb: 6.7.1 (edcfbbe)
Fe          14.60500000000000       11.88200000000000       10.14400000000000
N           16.38700000000000       10.98300000000000       10.39300000000000
N           13.82900000000000       10.62400000000000       11.50200000000000
N           12.80800000000000       12.73500000000000        9.85100000000000
N           15.40200000000000       13.09100000000000        8.72500000000000
C           17.56300000000000       11.30900000000000        9.75100000000000
C           18.61500000000000       10.41700000000000       10.20600000000000
C           18.07300000000000        9.54300000000000       11.06700000000000
C           16.68800000000000        9.89800000000000       11.21300000000000
C           14.47500000000000        9.60700000000000       12.18300000000000
C           13.56200000000000        9.02400000000000       13.12400000000000
C           12.37100000000000        9.62400000000000       12.95900000000000
C           12.52700000000000       10.65800000000000       11.96600000000000
C           11.64400000000000       12.45200000000000       10.54200000000000
C           10.56400000000000       13.28700000000000       10.03900000000000
C           11.07600000000000       14.03500000000000        9.05600000000000
C           12.48100000000000       13.71600000000000        8.93300000000000
C           14.70800000000000       14.04900000000000        8.00200000000000
C           15.57700000000000       14.66700000000000        7.05500000000000
C           16.90200000000000       14.06200000000000        7.27200000000000
C           16.71800000000000       13.08600000000000        8.30700000000000
C           17.71200000000000       12.30200000000000        8.82700000000000
H           18.72400000000000       12.49000000000000        8.46700000000000
C           15.78700000000000        9.26800000000000       12.02900000000000
H           16.15100000000000        8.41900000000000       12.60800000000000
C           11.54100000000000       11.47900000000000       11.50000000000000
H           10.55500000000000       11.34400000000000       11.94300000000000
C           13.38700000000000       14.33800000000000        8.11900000000000
H           13.00900000000000       15.15100000000000        7.49900000000000
C           18.75300000000000        8.41200000000000       11.84300000000000
H           19.83600000000000        8.39100000000000       11.59500000000000
H           18.30000000000000        7.43800000000000       11.56100000000000
H           18.63600000000000        8.58300000000000       12.93500000000000
C           20.09300000000000       10.48800000000000        9.78400000000000
H           20.64699999999999       11.14800000000000       10.48500000000000
H           20.17100000000000       10.90600000000000        8.75800000000000
H           20.54100000000000        9.47200000000000        9.81500000000000
C           13.98500000000000        7.86500000000000       14.03400000000000
H           14.94200000000000        8.12000000000000       14.53800000000000
H           14.13100000000000        6.94600000000000       13.42800000000000
H           13.20600000000000        7.69100000000000       14.80700000000000
C           11.06100000000000        9.41900000000000       13.71400000000000
H           10.47700000000000       10.29000000000000       14.04700000000000
C           10.58900000000000        8.21200000000000       13.99000000000000
H           11.13900000000000        7.31200000000000       13.67700000000000
H            9.64100000000000        8.09500000000000       14.53600000000000
C            9.10400000000000       13.31000000000000       10.53500000000000
H            8.95800000000000       14.17400000000000       11.21800000000000
H            8.88000000000000       12.37200000000000       11.08700000000000
H            8.41500000000000       13.41500000000000        9.67000000000000
C           10.28300000000000       15.07900000000000        8.26800000000000
H            9.40800000000000       15.55500000000000        8.73500000000000
C           10.59400000000000       15.45500000000000        7.02600000000000
H           11.45900000000000       15.01300000000000        6.50900000000000
H            9.98900000000000       16.21100000000000        6.50400000000000
C           15.20800000000000       15.69700000000000        5.99800000000000
H           14.78900000000000       16.60000000000000        6.49100000000000
H           14.44400000000000       15.27400000000000        5.31200000000000
H           16.11400000000000       15.98700000000000        5.42400000000000
C           18.14600000000000       14.29100000000000        6.45800000000000
H           18.12700000000000       15.31700000000000        6.03300000000000
H           18.19000000000000       13.55700000000000        5.62500000000000
H           19.04300000000000       14.18600000000000        7.10500000000000
O           14.21300000000000       10.43900000000000        8.62000000000000
H           14.98900000000000        9.88100000000000        8.57900000000000
H           13.48300000000000       10.36200000000000        8.11900000000000
O           14.21700000000000        9.19600000000000        7.59800000000000
H           13.82200000000000        8.45400000000000        8.05600000000000
H           14.44100000000000        9.22500000000000        6.73800000000000
69
 energy: -103.511579729833 gnorm: 0.202587064386 xtb: 6.7.1 (edcfbbe)
Fe          14.60635607750405       11.89778632383439       10.15939015031148
N           16.38986174406899       10.97914789905508       10.39307943803317
N           13.82754710980408       10.62885465303409       11.50468477980460
N           12.80130017090723       12.74104280502779        9.85193652803160
N           15.40031451753172       13.09081158017449        8.73159981399835
C           17.56424643275573       11.30481475195669        9.75888069698926
C           18.62751154056269       10.41900783881805       10.20282514877582
C           18.07782519466726        9.54018911317528       11.07450137428775
C           16.68819407608252        9.90177752930575       11.20481643232201
C           14.46476960612698        9.61796860552426       12.18553154452256
C           13.55867516561317        9.00964859158783       13.12618067596249
C           12.35637212871547        9.62819294858123       12.97459104136888
C           12.53401596400210       10.65259823810467       11.96629805588062
C           11.64241079415648       12.45521073674526       10.53357532108053
C           10.55398245030145       13.28566152963681       10.04455633637658
C           11.06701037947146       14.05306502218380        9.04877487634986
C           12.47618696189905       13.71807720592150        8.93980415881054
C           14.72690178560039       14.04109212522321        7.99935536344621
C           15.60592609312475       14.66032282301114        7.05148367192246
C           16.87916957576213       14.07130163581206        7.25943832165504
C           16.70471863333464       13.09948869050266        8.30544162049585
C           17.71234718616597       12.30501115742537        8.82537075632978
H           18.71955944282236       12.48819860315347        8.46413188285416
C           15.78639749867639        9.26727166799590       12.02815565143656
H           16.15035859673135        8.42311849415338       12.60622389734266
C           11.53672199253152       11.47948802010976       11.50183792377812
H           10.55591775015956       11.34412099015512       11.94443917459040
C           13.38756758821781       14.33946698757529        8.11705076157935
H           13.01551658961352       15.15013004733633        7.50271298519807
C           18.75033349966429        8.41826286510253       11.83824552292802
H           19.82348825640817        8.39055033857684       11.59906027496894
H           18.30434161637033        7.44853291142849       11.56622720032090
H           18.63687288930211        8.57940298713882       12.92183537754290
C           20.08467371477429       10.48920712851434        9.78401201074325
H           20.64082144665120       11.14119233103782       10.47661431399241
H           20.17236336756521       10.89984738219091        8.76844013515963
H           20.53579290482641        9.48558754926375        9.81254493671519
C           13.98037831528090        7.87113856752793       14.03211822001457
H           14.93039341920929        8.11719315180229       14.53239944732482
H           14.12797550136195        6.95568535668438       13.43662780109901
H           13.21399597918528        7.69166641721154       14.79897704399705
C           11.07121552161791        9.41666932673735       13.71135048980140
H           10.49222905306451       10.28657711654135       14.03670523663093
C           10.59200739840139        8.21118848417048       13.98970281581524
H           11.12888259548662        7.31656997237897       13.68082365172186
H            9.65220592801782        8.09190317716918       14.52992957047210
C            9.11435732671954       13.30682902667187       10.53435787687886
H            8.96049487052146       14.16346355131534       11.21077701915315
H            8.88036954848742       12.38225393237300       11.08045830560384
H            8.42497779217860       13.41201994994829        9.68166988575843
C           10.29500445448982       15.07368208791213        8.26863983317318
H            9.42221805214729       15.53997301845656        8.73878750452942
C           10.59423650187331       15.45215432984710        7.02806605024782
H           11.44245549961752       15.01797494805426        6.50456417220005
H            9.99726726541415       16.20224684886222        6.50845058700034
C           15.21542019015269       15.68846795613634        6.00949552683663
H           14.79379065628276       16.58942598503800        6.48599284756557
H           14.45571415900642       15.27897623821317        5.32120302120516
H           16.10164015688112       15.98388718420965        5.42908158587164
C           18.13509655381069       14.29394689133648        6.46307495742243
H           18.12987740384515       15.30689985533205        6.03559369667312
H           18.19215382999577       13.56606399713425        5.63506526274827
H           19.03144006480151       14.18715937127920        7.09577439295871
O           14.22901334375940       10.55699724062757        8.72923314853553
H           14.98615747445677        9.94977433827939        8.63146491348735
H           13.47476384171689       10.43130763084417        8.16909929104741
O           14.21915848707182        9.08782284427148        7.52466557971766
H           13.80926224164881        8.36937219238513        8.00601317618268
H           14.44447583102254        9.13325890287471        6.62318893241977
69
 energy: -103.557343687982 gnorm: 0.087335562397 xtb: 6.7.1 (edcfbbe)
Fe          14.60779428864917       11.91560824224263       10.17686957298672
N           16.39650943040442       10.98654487226414       10.40136248617213
N           13.82619851108130       10.64873678307447       11.52154664034367
N           12.79599868872635       12.75812271982684        9.86224132834681
N           15.40206051257701       13.10172795416850        8.75173907191893
C           17.56460027944237       11.30848213385316        9.76817003193191
C           18.63311536194510       10.42479518972914       10.20136926683473
C           18.07796341414864        9.54501208719208       11.08002899574331
C           16.68484989206780        9.91035010388583       11.19758692841733
C           14.45532424390922        9.63650790206158       12.18987549651527
C           13.55246584074234        9.00037803703873       13.12143028087518
C           12.34653099079896        9.63515577868115       12.98681514820094
C           12.53819273013266       10.65711108765687       11.97121385781063
C           11.64034663793709       12.45928194304381       10.52721520719681
C           10.55147448632240       13.28646616507828       10.04676542477974
C           11.06633111805768       14.07025206228776        9.04702714017228
C           12.47788579745118       13.72664993579935        8.95197487315759
C           14.74077450010393       14.03271339474849        8.00358199745908
C           15.63089152400627       14.64930268070128        7.05106962681582
C           16.85763578850977       14.07510279667170        7.24858072928605
C           16.69406427793406       13.11156792560984        8.31331062299041
C           17.70888403758427       12.31106683465343        8.82570383158354
H           18.70932968989972       12.48304036156254        8.45218113372542
C           15.78125640607666        9.27305507663480       12.02555154414186
H           16.14550654923098        8.43238036934890       12.60129577235458
C           11.53136101211949       11.48301953184167       11.50524716227096
H           10.55481273605059       11.34501575327854       11.94757275131024
C           13.39485370896677       14.34102827437172        8.11962121113855
H           13.03302020825505       15.15155357858475        7.50865034319868
C           18.74321361806444        8.43023859631852       11.83093501213220
H           19.80791135440664        8.39376309130739       11.60101276735687
H           18.30385047868189        7.46402532861912       11.57041981055091
H           18.63459768447900        8.57746582330407       12.90746900115202
C           20.07085544784389       10.49274768766550        9.78339582535605
H           20.63171659677068       11.13671473330068       10.46661499572185
H           20.17139994604316       10.89412069782414        8.77629482570897
H           20.52550768032558        9.50115303273799        9.80871049172531
C           13.97006418200929        7.88133136586488       14.02604245052567
H           14.91326887334966        8.11932947357384       14.52365736086285
H           14.12056950670230        6.96589678125923       13.44664438443465
H           13.21614115627874        7.69554761235370       14.78910085166545
C           11.08980341648496        9.41216314473906       13.70582057317250
H           10.52096474925682       10.28604431743572       14.01509326607725
C           10.60129189340655        8.21035935681340       13.98996520029529
H           11.11656213812860        7.31479018596362       13.68288019392226
H            9.66859851924016        8.08942362793155       14.52249966845909
C            9.13180298720826       13.30108109636964       10.53288928344606
H            8.96923513670726       14.15014507256200       11.20370621215045
H            8.88422928157657       12.38919054625176       11.07365033045568
H            8.44188505500229       13.40593007818742        9.69293203677791
C           10.31784176337174       15.06333126831714        8.27337414392825
H            9.44839166157832       15.50881751176758        8.75451891290194
C           10.59505113836176       15.44671720888174        7.03001489429104
H           11.41545906108226       15.01626149989899        6.48197147870072
H           10.00253560227185       16.19115523466774        6.51815641161881
C           15.22832094206733       15.67465351972824        6.02615693387806
H           14.80372810183178       16.56885751285725        6.49241109734044
H           14.47357305436789       15.27485408727296        5.34075078475730
H           16.09266168929002       15.97846260952739        5.43591277181222
C           18.11909516941453       14.29808651528236        6.46901293634119
H           18.12958639064960       15.29913428916143        6.03802743203025
H           18.19119316246679       13.57516327575062        5.64927747701579
H           19.00904814677216       14.18891858956572        7.09237179104938
O           14.23303736568922       10.60249671791546        8.77075151832666
H           14.97103847901045        9.98050789177426        8.63646675372529
H           13.48620325821370       10.44962168309334        8.18234314897826
O           14.22034525805981        9.02082406343472        7.47888604953494
H           13.80202985372831        8.30964213258835        7.94921627648291
H           14.43235753667448        9.05900316223949        6.56204616765812
69
 energy: -103.580257296900 gnorm: 0.047314433200 xtb: 6.7.1 (edcfbbe)
Fe          14.61581847086523       11.94658700866470       10.20416229300614
N           16.40386810503827       11.00160965558592       10.41285065214569
N           13.82723299092286       10.67647494356433       11.54056485893636
N           12.79703913564447       12.77721654597395        9.87939495883922
N           15.40698006570798       13.11725389032218        8.77358694922106
C           17.56630904006170       11.31848029985461        9.77967133449107
C           18.63322711871847       10.43225434779797       10.20227327192901
C           18.07431152345704        9.55313358290184       11.08368198605479
C           16.68213722357149        9.92623696619770       11.19914342651368
C           14.45191917496219        9.65919416967091       12.19441182472761
C           13.54959711203020        8.99926013149084       13.11159790061864
C           12.34317598900698        9.64188187327122       12.98836130617061
C           12.54289068824871       10.67508207919467       11.98219261187109
C           11.64259129942915       12.46801507503789       10.53146213020479
C           10.55578101842061       13.28586964771045       10.04998561096854
C           11.07327237321027       14.07853090601482        9.04970823528905
C           12.48538763967350       13.73713746719030        8.96977589563030
C           14.74601002374597       14.03421693560167        8.01875104307483
C           15.64006706616902       14.64420382462303        7.05327276031403
C           16.85234978118445       14.07340254814979        7.24562315030246
C           16.69285245208025       13.11904558400621        8.32855558132542
C           17.70866985827526       12.31755889406077        8.82922227902098
H           18.70175667258749       12.47325955121959        8.43497753591322
C           15.77730719629267        9.28634451385640       12.02681193414513
H           16.13862355795861        8.44252330088839       12.59477868404589
C           11.52856320063840       11.49421569309120       11.51580152087794
H           10.55214946917362       11.34722931437787       11.95123938407891
C           13.40198926559466       14.34835296882311        8.13034714281144
H           13.04464199442668       15.15256474342028        7.51180545900528
C           18.73434594721327        8.44093848205905       11.82582662928647
H           19.79588177916473        8.40070259293394       11.59742256860909
H           18.29420239955874        7.47726322869152       11.56904759819387
H           18.62833344757340        8.58065936218003       12.90079029776724
C           20.06020456028162       10.49773359119197        9.78146051058441
H           20.62514109439800       11.13963065658007       10.45915739076760
H           20.16504738689824       10.89395874093312        8.77593606852302
H           20.51473993712088        9.50939981829892        9.80583330141400
C           13.95923825148793        7.89086398206153       14.01830664838236
H           14.89882040134751        8.12832114099184       14.51634567189028
H           14.11133280894235        6.97072055094815       13.45153249239000
H           13.20637951348059        7.70616888290315       14.77861374244425
C           11.10311559620030        9.40737696937570       13.69451401695283
H           10.54389907138214       10.28736041124275       13.99293383358139
C           10.60986753790140        8.20876417761386       13.98812131430859
H           11.11047426039321        7.30711621177193       13.68487028866908
H            9.68285214276565        8.08889625623430       14.52152872383360
C            9.14567795582639       13.29437508751732       10.53119888013750
H            8.98000322319635       14.14067054824251       11.20084870926893
H            8.89377012967948       12.38663102217749       11.07036307061781
H            8.45545844529425       13.39818350966273        9.69558067905561
C           10.33819614250107       15.05129963328861        8.27773795487835
H            9.47549236286839       15.48458386335398        8.77439966235095
C           10.59292817066250       15.43736746349625        7.02929961358614
H           11.39597611840931       15.01257242045181        6.45596717459637
H            9.99859047478844       16.18207150945971        6.52909218171545
C           15.23401898467284       15.66397224021857        6.03848353111958
H           14.81075263675376       16.55002764361587        6.51057114605986
H           14.48187887337715       15.26157066583025        5.35912694786986
H           16.08994887570368       15.97202320029003        5.44396976285327
C           18.11285210798012       14.29844698917117        6.47478755289857
H           18.12521925786540       15.29527253712958        6.04218124007599
H           18.18982452725916       13.57643347657609        5.66003246114139
H           18.99361970318208       14.19014778085958        7.10184646326992
O           14.23485139945784       10.63095320576719        8.79650892653464
H           14.95303973058261       10.00306401068149        8.62551042287540
H           13.50464135450111       10.46108630809664        8.18669483250590
O           14.22282004066665        8.94307370720967        7.42233058259937
H           13.78577592296081        8.22406142667976        7.86403746508347
H           14.40926791860442        8.95710023164925        6.49017791977454
69
 energy: -103.594308555676 gnorm: 0.032790487464 xtb: 6.7.1 (edcfbbe)
Fe          14.62305931507424       11.96701189254054       10.22083499310690
N           16.41254059149394       11.02815457932330       10.43229708320662
N           13.83331393230038       10.71173136104326       11.56572777077914
N           12.80770845640912       12.80062082349629        9.90670363108644
N           15.41635472878457       13.13842314484173        8.80311649168699
C           17.57103141402611       11.33487108124512        9.79354235364559
C           18.63207634155750       10.44220518426108       10.20683802499383
C           18.07098947870171        9.56553870295055       11.08869288810854
C           16.68272624918353        9.94838371385351       11.21031208608542
C           14.45497628259488        9.68408733073222       12.20303269680940
C           13.55009423425527        9.00559834174533       13.10242966482090
C           12.34490381673996        9.64864088908036       12.98495143565290
C           12.54745225458554       10.69920422852251       11.99732122014517
C           11.64997359016425       12.48252080227701       10.54693631494652
C           10.56515360257637       13.28766448914033       10.05535323646848
C           11.08630302230767       14.08141231492370        9.05627000169890
C           12.49844216148317       13.75000393298055        8.99132262020360
C           14.75088399185264       14.04402059749452        8.04193977192838
C           15.64194600727207       14.64396023978204        7.06246844546500
C           16.85624021492350       14.07101526275230        7.25272742868134
C           16.69778023612137       13.12712586887332        8.34820704294539
C           17.71256962964742       12.32500927543157        8.83409433894283
H           18.69804020587241       12.46190220569416        8.41479889177488
C           15.77672211353522        9.30513940591437       12.03302332224717
H           16.13237408744014        8.45234044974322       12.58922335596221
C           11.52872783406459       11.50973939237539       11.53085843127493
H           10.54959332299077       11.35227425622706       11.95584332799791
C           13.41105199974383       14.35984951985838        8.14613394780118
H           13.05319797097922       15.15472919789786        7.51576076902280
C           18.72539123172042        8.44884103928070       11.82411382538804
H           19.78619917334575        8.40570675021604       11.59317191403316
H           18.27949532882590        7.48835120277441       11.56530969459888
H           18.62136110388496        8.58485864598249       12.89991546709814
C           20.05511228309697       10.50319234390120        9.77773772106635
H           20.62396682631564       11.14707036072568       10.45031873322438
H           20.15625814896282       10.89574006570133        8.77005691103514
H           20.50738971008481        9.51392525972129        9.80250405151281
C           13.94984923141235        7.89822952904927       14.01092765597524
H           14.88699469667665        8.13682739016505       14.51269640276033
H           14.10076285150046        6.97261557256822       13.45282059628457
H           13.19036914733641        7.72149836024933       14.76736982964791
C           11.10767595721681        9.40366669822944       13.68564931869916
H           10.55100081037912       10.28810133534499       13.97389428566446
C           10.61691215314936        8.20653163542535       13.98834662871546
H           11.10942346187568        7.29922240852866       13.68609623170744
H            9.69154727653267        8.08856377100840       14.52396164440916
C            9.15474770305450       13.28782017051284       10.53011383999063
H            8.98619097535170       14.13269920354051       11.20109900854201
H            8.90503378883376       12.37863333543783       11.06821821340957
H            8.46600330904087       13.38911185301943        9.69341733571249
C           10.35213388475572       15.04600084036451        8.27960588744211
H            9.49535482771420       15.47376153866840        8.78954991696825
C           10.58829594518693       15.43020628518899        7.02705169153202
H           11.37398028885608       15.00249566714163        6.42927585275755
H            9.98407566233857       16.17377915213143        6.53776996965545
C           15.23455264342206       15.65689227057044        6.04933638614689
H           14.81176027842548       16.53855958730574        6.52761929559011
H           14.48309104085018       15.24920333387859        5.37430993041661
H           16.08764350402465       15.96738292408832        5.45192151591503
C           18.11195206716408       14.29666120498235        6.48162134174015
H           18.12159364044784       15.29261715046380        6.04636685040483
H           18.19288498549868       13.57328723192365        5.66936375312167
H           18.98782979251191       14.19298132506710        7.11427115909964
O           14.23233971532770       10.63587948300125        8.80313282118834
H           14.93617297211811       10.00726319889483        8.59802785637825
H           13.52071640023703       10.46027801526129        8.17669128197430
O           14.22542790380632        8.85321327829704        7.35306089106259
H           13.76054051869227        8.11945881726468        7.75148733974205
H           14.37674167334317        8.83369327912193        6.40803536189977
69
 energy: -103.602990655293 gnorm: 0.021929042474 xtb: 6.7.1 (edcfbbe)
Fe          14.63042134280094       11.98139977827884       10.23416872074819
N           16.41940722260366       11.05797015997843       10.45205650502863
N           13.84028173817144       10.74409995520088       11.58757408684989
N           12.82386955574153       12.82220270661869        9.93545763534309
N           15.42475425802282       13.15445992480583        8.83002885898076
C           17.57747065556324       11.35374828222668        9.80699669535763
C           18.63226433603605       10.45344482153365       10.21345446992255
C           18.06985256647478        9.58099788229639       11.09603058273481
C           16.68621962747356        9.97378961530256       11.22695080015957
C           14.46058499834820        9.70846418707898       12.21488772951184
C           13.55163106332271        9.01710912548658       13.09772518459767
C           12.34769612134532        9.65665232473956       12.98196444238675
C           12.55148660559196       10.72310281667469       12.01359770015315
C           11.66106387325736       12.50149259047015       10.56853054555579
C           10.57619062013862       13.29432990994981       10.06276283944788
C           11.10027546497800       14.08374692912477        9.06489600227119
C           12.51268435881935       13.76445749740988        9.01265035223820
C           14.75773264332221       14.05711029293702        8.06577684715852
C           15.64403539174209       14.64615253844175        7.07734374139832
C           16.85988465401327       14.07225372384185        7.26557705645172
C           16.70353192721704       13.13730392932792        8.36655764837255
C           17.71881554177778       12.33388088390374        8.83950030885255
H           18.69657095481638       12.45360834693530        8.39749472542804
C           15.77911142789112        9.32833836193155       12.04416702364669
H           16.12811784549523        8.46438400240873       12.58770265090151
C           11.53230387321981       11.52904792111206       11.54896623272108
H           10.54956584011481       11.36285905780981       11.96277591131132
C           13.42044680028143       14.37398386833456        8.16336032085979
H           13.05677814001758       15.15662443384191        7.51963792365372
C           18.71709187511651        8.45530191630107       11.82570933899493
H           19.77742433164668        8.40688970563092       11.59081891873978
H           18.26185560915801        7.50014459465868       11.56108929372181
H           18.61484801987989        8.58844825684355       12.90258026592470
C           20.05390947917774       10.50861274633904        9.77280657432300