87
 energy: -128.466841198974 gnorm: 0.000129778521 xtb: 6.7.1 (edcfbbe)
Fe         -31.15528923370970        1.01094609582068      155.34249975795052
N          -31.01707355302814        0.04514219448289      157.09062410384598
N          -30.04621446598761        2.50665575362319      156.07628755014113
N          -31.24857014983398        1.94079153583879      153.57275410994646
N          -32.31421126564896       -0.45605477708644      154.62920971379168
C          -31.61289240444221       -1.12719105299101      157.42667312529107
C          -31.22890061137655       -1.53163791830253      158.76189178379187
C          -30.38024546893500       -0.57371018397669      159.22132417294685
C          -30.26911806584373        0.40950502248738      158.16536582606935
C          -29.47134474297360        2.56521942313417      157.30593220680169
C          -28.79409486792658        3.82166380266947      157.49272017057626
C          -29.00408900808800        4.54846922743447      156.35135161305433
C          -29.76476666610315        3.68639748115261      155.46608519960142
C          -30.69866312944730        3.14502631915196      153.26122719536016
C          -30.89809547971565        3.45070133655007      151.86948126926978
C          -31.56609717689549        2.38317178186269      151.32996591400874
C          -31.79759564069690        1.46374496305759      152.42737235793328
C          -32.84099912650724       -0.54207291057886      153.37967990432026
C          -33.70040551861248       -1.69998834583754      153.26675133907887
C          -33.67295294177202       -2.31500053972479      154.47980098936839
C          -32.79583366792614       -1.52482098305720      155.31532128678407
C          -32.46945351720855       -1.85311597207963      156.61868552158393
H          -32.90438326100371       -2.75122489086805      157.03133969908379
C          -29.53790651290833        1.57607613613414      158.27408165242088
H          -29.00150803977863        1.74585698679745      159.19578284655580
C          -30.03500428741434        3.98113704998962      154.14364066153891
H          -29.66757981478731        4.91984600855822      153.75830387980378
C          -32.58584013500169        0.33001550638343      152.33771119705105
H          -33.05492320273569        0.12501528721490      151.38768505108007
C          -29.67943149720116       -0.48237474797239      160.53402982105436
H          -28.60086895126552       -0.41660083155504      160.38885487895780
H          -29.88995686075434       -1.35517303885332      161.14758353727410
H          -30.00059017069745        0.40520756663391      161.08029730502480
C          -31.70739153496217       -2.77228515434328      159.43636217277822
H          -31.42642724879898       -3.65603740890468      158.86242031511773
H          -32.79372831922657       -2.76261628693354      159.52930486533049
H          -31.28020055744414       -2.86136420991996      160.43237697740727
C          -28.07605549264779        4.23144829031516      158.73252676636028
H          -27.31967629177302        3.49321286077938      159.00030796756849
H          -28.77109457546857        4.31937801583145      159.56876232982407
H          -27.58973644192375        5.19395815289915      158.59387794619579
C          -28.56018741349851        5.90094128312718      156.08922015238818
H          -27.58865193152140        6.15829237769111      156.49867278090153
C          -29.25174069049092        6.83305061604700      155.44245940071394
H          -30.24278905894704        6.64805387872588      155.06417695714916
H          -28.85788475924366        7.82459062078482      155.29036081715714
C          -30.40448457003650        4.67836955921266      151.18429061383958
H          -29.31458615217787        4.71621327023041      151.20111390783072
H          -30.77767883883822        5.57335836975637      151.68299319254129
H          -30.72919190333037        4.69626989748414      150.14678333822255
C          -31.95151899105567        2.21091514789110      149.94543676372578
H          -32.25450986415429        3.11794388400283      149.43221940446409
C          -31.92147143766844        1.06914964402614      149.26654642791502
H          -31.57685391800310        0.15066127475571      149.71033933330622
H          -32.21892287789207        1.01979316423578      148.23186563144617
C          -34.43517950696366       -2.08485166064159      152.02791666997473
H          -33.73687447763127       -2.28389257116714      151.21444928801606
H          -35.10016544008167       -1.28160180555931      151.70941481336934
H          -35.03177420744143       -2.97903177408594      152.19258423126911
C          -34.37314056232695       -3.55304507638892      154.92736417161194
H          -35.00316338889328       -3.94983263331451      154.13482408621232
H          -35.00090434218878       -3.34606322663684      155.79436689617418
H          -33.65318299088158       -4.32238635737729      155.20913388715786
C          -34.98260190355329        3.81244618685146      158.29762185055023
H          -35.91757057780440        3.30703249370793      158.53993392423473
H          -35.21621558441753        4.83134054719604      157.98842988835219
H          -34.36707180539371        3.85291522398237      159.19084220415940
N          -34.79140336491641        2.87957312969318      155.98119894204612
H          -35.70170835325430        3.18116808551536      155.67482463665553
C          -34.25378381734862        3.08942710370537      157.22459604077574
C          -33.87834588323533        2.20023285636645      155.25036540737756
H          -34.02719277469056        1.89660528959516      154.23469586943358
N          -32.79832611395529        1.96774746699650      155.95420335542559
C          -33.01629245758114        2.51424118661098      157.18400088169855
H          -32.27265718018612        2.45656156639361      157.95141826284134
C          -26.19324532649756       -0.33328499951683      153.15173980899706
H          -26.19264235680737       -0.92942023382162      152.23905218399508
H          -25.42006125047261       -0.72312518537230      153.81392584411719
H          -25.94830887639305        0.69293407092141      152.89639160429368
N          -28.08706926055808       -1.54427305479111      154.25627251059049
H          -27.67482112972987       -2.46018968885117      154.18818865535269
C          -27.52387963252372       -0.37701007866994      153.80960041190929
C          -29.28846276206339       -1.23771624394459      154.79671783030435
H          -29.95494512721921       -1.95601683967469      155.22742133969484
N          -29.51900418092698        0.04938258498097      154.71973691543849
C          -28.43088255988075        0.59857376957062      154.10878668291261
H          -28.37444049883719        1.65163933399684      153.92624720150292
