78
 energy: -115.929457568422 gnorm: 0.365211105608 xtb: 6.7.1 (edcfbbe)
Fe          28.18700000000000       93.94799999999999       52.99499999999999
N           29.25500000000000       95.61300000000000       52.37600000000000
N           29.29600000000000       93.89000000000000       54.74200000000000
N           27.14000000000000       92.29799999999999       53.65699999999999
N           27.07400000000000       93.98799999999999       51.25200000000000
C           28.97100000000000       96.36000000000000       51.30499999999999
C           29.70600000000000       97.53199999999998       51.30399999999999
C           30.41800000000000       97.51100000000000       52.49000000000000
C           30.06200000000000       96.34199999999998       53.12100000000000
C           30.17800000000000       94.80899999999998       55.12499999999999
C           30.80000000000000       94.47499999999999       56.30700000000000
C           30.28900000000000       93.19799999999999       56.62400000000000
C           29.33600000000000       92.90800000000000       55.64800000000000
C           27.45000000000000       91.51899999999999       54.71300000000000
C           26.56100000000000       90.45600000000000       54.83100000000000
C           25.65300000000000       90.62800000000000       53.74999999999999
C           26.13500000000000       91.70199999999998       53.01199999999999
C           26.12300000000000       93.10899999999999       50.90100000000000
C           25.71200000000000       93.31699999999999       49.59200000000000
C           26.39500000000000       94.45600000000000       49.17399999999999
C           27.18200000000000       94.85400000000000       50.25699999999999
C           28.02300000000000       95.98300000000000       50.32200000000000
H           27.93000000000000       96.67400000000001       49.48599999999999
C           30.48800000000000       95.95500000000000       54.39200000000000
H           31.16400000000000       96.65199999999999       54.88600000000000
C           28.50100000000000       91.78500000000000       55.60500000000000
H           28.69100000000000       91.02100000000000       56.35900000000000
C           25.66900000000000       92.09500000000000       51.75500000000000
H           24.82100000000000       91.52400000000000       51.38000000000000
C           31.37800000000000       98.55200000000001       53.00200000000000
H           30.93000000000000       99.07199999999999       53.87499999999999
H           31.58299999999999       99.29800000000000       52.20500000000000
H           32.32500000000000       98.06499999999998       53.32000000000000
C           29.71200000000000       98.61700000000000       50.23200000000000
H           28.72000000000000       98.65200000000000       49.73400000000000
H           30.48900000000000       98.38900000000000       49.47099999999999
H           29.91600000000000       99.60399999999998       50.69900000000000
C           31.87300000000000       95.34699999999999       56.95500000000000
H           31.51100000000000       96.39500000000000       57.01800000000000
H           32.79800000000000       95.32200000000000       56.34100000000000
H           32.08800000000000       94.97799999999999       57.97999999999999
C           30.62500000000000       92.30199999999999       57.64500000000000
H           30.00200000000000       91.40300000000001       57.74600000000000
C           31.71200000000000       92.41000000000000       58.60599999999999
H           32.39100000000000       93.27500000000001       58.58600000000000
H           31.86700000000000       91.62800000000000       59.36400000000000
C           26.53500000000000       89.49200000000000       56.03100000000000
H           26.51500000000000       90.07599999999998       56.97599999999999
H           27.44500000000000       88.85499999999999       56.02099999999999
H           25.62600000000000       88.85599999999998       55.98200000000000
C           24.49400000000000       89.92800000000000       53.35699999999999
H           23.86000000000000       90.40300000000001       52.59600000000000
C           24.01500000000000       88.63199999999999       53.83600000000000
H           24.57900000000000       88.07599999999999       54.59900000000000
H           23.08500000000000       88.19900000000000       53.43900000000000
C           24.75300000000000       92.46400000000000       48.76300000000000
H           23.70500000000000       92.70699999999998       49.04100000000000
H           24.93900000000000       91.38699999999999       48.96400000000000
H           24.89800000000000       92.67899999999999       47.68299999999999
C           26.30300000000000       95.10599999999999       47.80500000000000
H           25.29300000000000       94.92799999999998       47.37700000000000
H           27.06400000000000       94.66300000000000       47.12700000000000
H           26.46800000000000       96.20099999999999       47.89700000000000
O           26.92000000000000       95.14799999999998       53.87000000000000
H           26.18000000000000       94.60200000000000       54.13500000000000
H           27.00200000000000       96.02399999999999       54.00200000000000
C           30.77700000000000       90.22899999999998       49.75100000000000
H           31.11500000000000       89.26399999999998       50.18600000000000
H           31.58100000000000       90.63100000000000       49.09800000000000
H           29.85600000000000       90.05200000000001       49.15500000000000
N           31.19700000000000       91.58499999999999       51.92300000000000
H           32.09300000000000       91.20699999999998       52.15199999999999
C           30.48300000000000       91.21700000000000       50.87200000000000
C           30.56200000000000       92.50200000000000       52.60200000000000
H           30.94100000000000       92.98099999999999       53.50400000000000
N           29.42100000000000       92.72600000000000       52.00899999999999
C           29.33100000000000       91.96299999999999       50.95500000000000
H           28.45400000000000       91.98999999999998       50.32000000000000
78
 energy: -116.011120293043 gnorm: 0.151564085251 xtb: 6.7.1 (edcfbbe)
Fe          28.19623279490617       93.93775796165211       52.97900728702724
N           29.21417054599157       95.60353826145986       52.38448909322268
N           29.27646018647089       93.89309274465424       54.72411026299103
N           27.16353921239417       92.30679359379791       53.64214456372847
N           27.06931203634850       93.99839796744732       51.28291531903817
C           28.95176819681845       96.34540948868168       51.28625013391446
C           29.70839802738508       97.54659077286065       51.29767212731837
C           30.42213879244072       97.52978606531839       52.47586388762224
C           30.06370365595449       96.33069917013697       53.13058633912748
C           30.17346592668837       94.82235100709703       55.11442655643867
C           30.81506194376261       94.46602082999090       56.31679845718664
C           30.31177930092000       93.20131684904941       56.64390133942216
C           29.32718181709564       92.90395374602461       55.64309420228248
C           27.45649494101617       91.53090951035527       54.71843877101561
C           26.54365158225567       90.45293241206203       54.83749165316008
C           25.64830863462247       90.59555693491835       53.76268463179056
C           26.12643917304156       91.71612152738979       53.01276160052053
C           26.12974173509965       93.09563437784860       50.91581097629513
C           25.70957358357211       93.32345487691754       49.57812615060961
C           26.38301983358140       94.45516475231587       49.16271086703227
C           27.20151691463578       94.85867090942544       50.25802115943105
C           28.02773694295203       95.98227731498990       50.30335065715029
H           27.93247771486959       96.67314482427985       49.47606137446473
C           30.49625407157099       95.96519443627062       54.39497677170665
H           31.17051711420618       96.65574959006686       54.88358824085115
C           28.50293849628241       91.78403385357622       55.60789395230567
H           28.68169649062715       91.02450927551570       56.35902416825679
C           25.65835959284563       92.09265865801456       51.75663240930901
H           24.82579871725623       91.51956334794897       51.36959323193357
C           31.37609173980343       98.55582774480555       52.99798403233029
H           30.94074305083844       99.06999324143234       53.86539255025945
H           31.58839709249968       99.29343465309006       52.21875320480217
H           32.31316981880612       98.07894200857825       53.31327964217883
C           29.71113274081896       98.61384251826789       50.23768745755902
H           28.73578945163712       98.65556278787460       49.73984844685820
H           30.47762150870295       98.39633121280558       49.48207390275952
H           29.91536932994741       99.59165823144129       50.68742491707076
C           31.86464535728837       95.33604756470805       56.95806326459581
H           31.51497864329149       96.37522094934906       57.01783971520074
H           32.78406346919786       95.31938064410754       56.35660513948922
H           32.08725135586251       94.99281970645841       57.96948059029447
C           30.65593648028476       92.30413351903232       57.68710030863907
H           30.03054417375601       91.41369728819328       57.76398667469016
C           31.68583987925556       92.40512352727266       58.58673289401306
H           32.37280173698014       93.24357728616600       58.58035128583857
H           31.85086028073746       91.64037690400097       59.33857925214674
C           26.53049892856457       89.50175453175191       56.01588580029392
H           26.51585387748036       90.06882736273343       56.95671181440323
H           27.42680126786174       88.86615881562172       56.01610864767544
H           25.64250661599461       88.86636242261666       55.98795784952775
C           24.47781146284492       89.87930079714761       53.37783653728990
H           23.86134183752677       90.36958078487004       52.62056962278702
C           24.02659460773321       88.66367338629331       53.82713891129382
H           24.57018530188913       88.09205558946169       54.57085074467759
H           23.10988218985692       88.22609243429368       53.44266888573999
C           24.75916117840577       92.47417566983447       48.77011385727592
H           23.71838153538668       92.70240801949474       49.03728796101416
H           24.93659190986162       91.40753568109332       48.95959518536088
H           24.89476773484202       92.67269829893401       47.70129150952695
C           26.29888481731502       95.10351975336370       47.81059677012864
H           25.30649473852856       94.93407096695687       47.37801922632322
H           27.05245115657838       94.67471349748934       47.13569308820037
H           26.46708327074536       96.18367300982649       47.89070207412611
O           26.90546446150843       95.13637506618446       53.87762155146116
H           26.15261764407332       94.61572948872629       54.15214786617638
H           26.98298173893770       96.06099069005765       54.01987593499027
C           30.78552396674196       90.22457641192146       49.75776515491368
H           31.11698065206183       89.26835855894291       50.17758854709492
H           31.57225707999915       90.62019617903883       49.10374280900415
H           29.87776984293297       90.05785404842926       49.16847027769171
N           31.22003725283535       91.56615265048775       51.90773494010496
H           32.11854840070935       91.18679658258961       52.13942209747527
C           30.47152205783481       91.20390809534703       50.84741651757631
C           30.57380789593437       92.49934666696186       52.60469648839592
H           30.94856248721538       92.97211912940143       53.49302304528551
N           29.42060378906128       92.73725375284026       52.02915369005522
C           29.32711015275488       91.96172398568643       50.94986274827661
H           28.45794606066350       91.98876282395098       50.32084038197399
78
 energy: -116.032384762677 gnorm: 0.051873750200 xtb: 6.7.1 (edcfbbe)
Fe          28.19948987238936       93.93232380476361       52.96568358006231
N           29.16977787632026       95.59999290646485       52.39581082829222
N           29.26642242274345       93.89502112150028       54.70439151559394
N           27.18638203631145       92.31233198109423       53.62287620787376
N           27.07483287438959       94.00191339200775       51.30605839278119
C           28.92914815895273       96.33400594807692       51.27712918143691
C           29.70600069131158       97.55156384594423       51.29534101321490
C           30.41642970280559       97.53672255553622       52.46100437118711
C           30.05192578666109       96.32159130622793       53.13768542157291
C           30.16905829339670       94.83125400514410       55.10050666947617
C           30.82188689162741       94.45322208112849       56.31739609612403
C           30.32642189094615       93.20571620327289       56.64625007401486
C           29.32234053107419       92.90308661886083       55.63198364803728
C           27.46522117428877       91.54617697200496       54.71676712494373
C           26.52881546539306       90.46225201746610       54.83850975400179
C           25.65221429387270       90.58413892153241       53.77462520558878
C           26.12675048503342       91.72680767279090       53.00936765797189
C           26.13821354904118       93.08841297225725       50.93312507664253
C           25.71149865953173       93.33160566767205       49.57581641058577
C           26.37598191951705       94.45149995338130       49.16225813469175
C           27.21881217318203       94.85921329498925       50.26337720442550
C           28.03108129420885       95.98143522112500       50.28484647675349
H           27.94434229203879       96.66343036995615       49.45232796475457
C           30.50053070205261       95.97547737719046       54.39481196935510
H           31.18347589769492       96.65913342518132       54.87369761328137
C           28.50458342512770       91.78652362262306       55.60934536981991
H           28.66616798001432       91.03429511723446       56.36751077390134
C           25.65053211930381       92.08766551079384       51.75648350323575
H           24.83170824302375       91.50788208977404       51.35706881493371
C           31.36995199683941       98.55407167919802       52.98997237944373
H           30.94610362013949       99.06637310822745       53.85550075921721
H           31.59417067739286       99.29309969394816       52.22722771699834
H           32.30190251231146       98.08518441979771       53.30398604118629
C           29.70876237726782       98.60732772787401       50.24209855324158
H           28.74417621666966       98.65857686509307       49.74293605502687
H           30.46946532053872       98.39856354193134       49.48850666015828
H           29.91771637702101       99.58108789771146       50.67912726899139
C           31.85305561321244       95.32109865459681       56.96108337776859
H           31.50810102890156       96.35457076529880       57.01379839857899
H           32.77339131814971       95.31096710157240       56.37262037561005
H           32.08124384479454       94.99914726701638       57.96827273784209
C           30.67533228934337       92.30381535097543       57.71086497396846
H           30.04009543014632       91.42565292745699       57.77577723631497
C           31.66737729356173       92.39985960051739       58.57225729321041
H           32.36655325368071       93.21656288052267       58.57839615569711
H           31.83674142797982       91.64628274100480       59.32309502695156
C           26.52471884007822       89.51690253800021       55.99801861858121
H           26.51958054635731       90.07269093712809       56.93748096292648
H           27.41281577465639       88.88159669442749       55.99758241310008
H           25.64941456548910       88.87869095872664       55.98668825838703
C           24.47055394371176       89.84952234292059       53.39463586823604
H           23.86717974699314       90.35212120498934       52.64201247449569
C           24.04254812587249       88.68268670527884       53.82173261645404
H           24.56905031644404       88.09263466349401       54.55098502064504
H           23.12843671831488       88.24717391324381       53.45048220709487
C           24.76661303592088       92.48589335524795       48.78283947765880
H           23.72940001142979       92.70396747195646       49.04304965216414
H           24.94091668534180       91.42610509128562       48.96573025981611
H           24.89435404192692       92.67192359316250       47.71877624026421
C           26.29653728003039       95.10136422075095       47.82100908001605
H           25.31581385707217       94.93883718197723       47.37994680225211
H           27.04643550467732       94.68370753238663       47.14635531357956
H           26.46732627307327       96.17273818842494       47.89165659581175
O           26.87747468952414       95.13718008159236       53.89851906354474
H           26.10042044005051       94.65720596061888       54.18669967896904
H           26.94322107277909       96.07937251680647       54.04364827217630
C           30.79119225407800       90.22107458003714       49.76291391288526
H           31.12325899557423       89.27191818403539       50.17632563723492
H           31.57186922561551       90.60906136007067       49.10982216064186
H           29.89694383149637       90.05337158500603       49.17073352878215
N           31.24615403723943       91.54528221339548       51.88510263866250
H           32.14671823158194       91.16061434601549       52.11221530451169
C           30.45721785360900       91.19725009920775       50.82740049715549
C           30.59927535793257       92.48743423034271       52.60082549064726
H           30.97929570518542       92.95263000298823       53.48054459008161
N           29.43319108605856       92.74714359412238       52.05672962767466
C           29.32752590551769       91.96496030010709       50.95704501258152
H           28.46035874616266       91.99400615351458       50.33291565820705
78
 energy: -116.038929608426 gnorm: 0.025120206613 xtb: 6.7.1 (edcfbbe)
Fe          28.19465591411739       93.93685262134160       52.96775182648133
N           29.13761817394352       95.60845733420345       52.40419102314637
N           29.26628073136794       93.89846001536600       54.69348781338785
N           27.19726508967849       92.31566108320679       53.60777531640879
N           27.08317131610550       94.00358849930740       51.31397249012593
C           28.91224535257634       96.33499249529176       51.27559964420217
C           29.69805727770095       97.55413219738558       51.29223204343640
C           30.40556240769985       97.54037520412668       52.45382509383263
C           30.03316227910815       96.32471871380062       53.14095852025726
C           30.17032003643885       94.83421153601280       55.09066448893149
C           30.82423014927713       94.44571805843594       56.31229026749977
C           30.32668392454010       93.20680566705704       56.64047866998010
C           29.32070935388858       92.90585618436408       55.62158637155265
C           27.46846747507498       91.55934409744279       54.70997555662031
C           26.52228551004379       90.47763264950699       54.83639097225214
C           25.65597417558685       90.59037109082948       53.77544911586057
C           26.13236176890676       91.73142545565918       53.00107037347600
C           26.14645793726617       93.08932951781206       50.94092955124531
C           25.71476864889699       93.33725164162297       49.58058346426802
C           26.37687624122362       94.45081786976277       49.16490997461717
C           27.22765723781428       94.85783879360974       50.26521792857130
C           28.03554885806488       95.97948951456547       50.26867121266449
H           27.96812660650335       96.64334188566657       49.41871305449826
C           30.50089406685891       95.98205850414664       54.39127714124307
H           31.19974138530316       96.65896650533571       54.85782331751913
C           28.50052801908924       91.79413488327947       55.60799238549225
H           28.64269414762391       91.05180553517292       56.38011697554280
C           25.65211749642358       92.08423354856322       51.75075615984665
H           24.84416086833433       91.49634699357442       51.34034873607929
C           31.36458964342881       98.55291066580817       52.98152138636097
H           30.94617359761875       99.06517121577863       53.84864709152631
H           31.59624537935745       99.29521183594080       52.22426772706022
H           32.29486393930141       98.08126849683789       53.29213324252797
C           29.70538765105275       98.60494526646313       50.23719479821184
H           28.74228590223151       98.66340989285476       49.73832328336387
H           30.46489857938954       98.39315627355427       49.48460784575938
H           29.92242492868860       99.57778782841594       50.67103954914187
C           31.84457328472609       95.31311506642946       56.96638104830795
H           31.49476499439540       96.34395005496499       57.00618719654960
H           32.77275704801706       95.29963712988410       56.39219002151223
H           32.06204258763049       95.00353773958801       57.97956355245599
C           30.66693887244164       92.30220928510820       57.71424705344824
H           30.02327824521565       91.43307983330929       57.78230052987409
C           31.67428836286289       92.38602401338997       58.57666719190240
H           32.39270737202185       93.18448822553438       58.57948250413109
H           31.82938754280978       91.63437882408762       59.33082065493191
C           26.52231185124000       89.53370743503211       55.98977291338404
H           26.52986999942606       90.08773973492353       56.92863682730643
H           27.40703800063422       88.89621620378144       55.97358463902769
H           25.64612067482773       88.89797923757709       55.98771674110381
C           24.47086715625836       89.85020277420395       53.40054256700876
H           23.86150657769545       90.35625835902546       52.65992429578317
C           24.04576283718574       88.66674795117275       53.82837879709577
H           24.57987316093542       88.05874898375036       54.53576283023281
H           23.12743024306095       88.24068392680687       53.46115023304144
C           24.76768760273123       92.49295749054664       48.79693431801841
H           23.73225747376174       92.70975969491555       49.06055952815795
H           24.94614868397361       91.43572394335182       48.98113535811773
H           24.89129244612371       92.67539859480488       47.73263719843110
C           26.29687927140089       95.10399540071394       47.82756825115528
H           25.31852678684304       94.94350107456991       47.38201297819352
H           27.04845163329554       94.69055020984338       47.15378927383287
H           26.46782485847415       96.17397291608702       47.89927460929783
O           26.83487626344435       95.14333825800136       53.93178431845543
H           26.03560248110397       94.69730832094668       54.22413975159516
H           26.88799010758773       96.09168581839002       54.07099613690296
C           30.79358884890308       90.21413224397017       49.75937049129643
H           31.12985665108709       89.27004555694737       50.18051254616908
H           31.57869879286712       90.59796840121388       49.10996739809306
H           29.90795524790575       90.03692201975457       49.15925767602992
N           31.27228443119726       91.52912566656742       51.86107737732511
H           32.17495703217529       91.13537108900924       52.07119821095323
C           30.45331403776387       91.19466580257807       50.81557974234305
C           30.63895263760293       92.47348159488345       52.59427109869121
H           31.03956907940543       92.92937618835259       53.47016787329815
N           29.46105811654294       92.75249392540256       52.07991603972658
C           29.33493519798024       91.97046193869473       50.97184743823596
H           28.46028143591755       92.00497949978140       50.35791837559042
78
 energy: -116.043652848190 gnorm: 0.023236473667 xtb: 6.7.1 (edcfbbe)
Fe          28.19360662955409       93.93857472305979       52.97557780710204
N           29.10684522528432       95.62058107407593       52.41488325172593
N           29.27269380815487       93.90032348849621       54.68342008030102
N           27.20394898871228       92.31754523371798       53.59281317770511
N           27.09618373398246       94.00154578719953       51.31910254733731
C           28.89566923160142       96.33888914977351       51.27907553584954
C           29.68823984320382       97.55607003474020       51.28975727445783
C           30.39139114205381       97.54432850764253       52.45053240751738
C           30.01008315649435       96.33149230185593       53.14628925806356
C           30.17760516403434       94.83375853432851       55.08000233517397
C           30.82949147531489       94.43791173199230       56.30500508857067
C           30.32874910845586       93.20418203440934       56.63136995077124
C           29.32151350752122       92.90865828008894       55.61114543519984
C           27.46827525472312       91.57438345629753       54.70314515551892
C           26.51744861195142       90.49451839838937       54.83521326842791
C           25.66024101307007       90.59566538031252       53.77173950186150
C           26.14006684529668       91.73073450312498       52.98902193584220
C           26.15682836799797       93.09110615698501       50.94689256135339
C           25.71834588228378       93.34238351790391       49.58768935154968
C           26.38143725723621       94.45082043797332       49.16915260619754
C           27.23677931178132       94.85449763782319       50.26811166611059
C           28.04423157945079       95.97441905184742       50.25340529839553
H           28.00303467388227       96.61410768553901       49.38201860336225
C           30.50303651326065       95.98658818416605       54.38652235173575
H           31.21913522117219       96.65641659909234       54.83804646807392
C           28.49211473331066       91.80526114236196       55.60859803055099
H           28.61363753525796       91.07390173473070       56.39440639008265
C           25.65806533015622       92.07616879846195       51.74018856632755
H           24.85881381465228       91.48389598567397       51.32060125284276
C           31.35863310722944       98.55124238668805       52.97410218267098
H           30.94574183338164       99.06385058378217       53.84449496971295
H           31.59233861783364       99.29528855776657       52.21689228445830
H           32.28864449366131       98.07194521026733       53.27720278628728
C           29.70052713152018       98.60132439141968       50.22762562483532
H           28.73574687322234       98.66736291755718       49.73114731403948
H           30.45779305415525       98.38000169215265       49.47403288231697
H           29.92886839652703       99.57464852576804       50.65853199413558
C           31.83775524916243       95.30549798193938       56.97587240116569
H           31.48438159539332       96.33629603250262       56.99900745960223
H           32.78050915929973       95.28498396055106       56.42411408459824
H           32.02775768214099       94.99661046786018       57.99745036442818
C           30.65854033776406       92.29926486883525       57.71076586787895
H           29.99602952213822       91.44826472823520       57.80201074211922
C           31.67692136551414       92.37028892348413       58.56962931519627
H           32.41453001136778       93.15173663704333       58.56182952402236
H           31.80928533277536       91.61851435020111       59.33001440060589
C           26.52019005182595       89.55121215478680       55.98673806751882
H           26.54627162636090       90.10372786189838       56.92665395998231
H           27.39956081729223       88.90581652207914       55.95006714182085
H           25.63469576394294       88.92601110931612       55.98811252553806
C           24.47442515543126       89.85125144899794       53.40585146777291
H           23.84227546374071       90.36131362253681       52.69046006233578
C           24.06401281669703       88.65478793190633       53.82708600591727
H           24.60924672136440       88.03939709024102       54.51835194250215
H           23.13342804688368       88.24375620226475       53.47121631960761
C           24.76410643520556       92.49805294351442       48.81463074915091
H           23.73103452602329       92.71634135125261       49.08804521391434
H           24.94732611118359       91.44133387347976       49.00072217019996
H           24.87993646636428       92.67995191437286       47.74832284203508
C           26.30000505965868       95.11027551293836       47.83492125780757
H           25.32200527992863       94.94807317370463       47.38660937623546
H           27.05537357319071       94.70137978989055       47.16111587330975
H           26.46610693366942       96.18153304373664       47.91261690621958
O           26.77886836428842       95.14808604563737       53.98441702053550
H           25.94419450703481       94.75361504341888       54.26441786793408
H           26.80512106088499       96.10292899097182       54.09841846953622
C           30.79571303821662       90.20494410517431       49.75283120699756