78
 energy: -116.058074332422 gnorm: 0.000083395783 xtb: 6.7.1 (edcfbbe)
Fe          28.16432111228237       93.92300568587123       53.03713980387698
N           29.09711109555511       95.61042510965117       52.45519846850476
N           29.23780442498841       93.90981365240449       54.71821975827476
N           27.18733092044670       92.28834765921754       53.62414065926086
N           27.04980129695707       93.98574468221766       51.36160534506234
C           28.92055416253899       96.28720806468777       51.28806788528122
C           29.81169773461787       97.42267442165918       51.21614345335043
C           30.53767799121474       97.41355601838831       52.36699381268981
C           30.08077591431835       96.27176169783262       53.12594722740980
C           30.18602473992779       94.80991441902387       55.09607824475011
C           30.75962224362801       94.44948950287429       56.36806984374493
C           30.13918623188970       93.29150474586856       56.75385265534544
C           29.18292861883650       92.98297081266946       55.70690064425825
C           27.40980237899031       91.57578500840245       54.76045240491536
C           26.52598073960854       90.43917325398743       54.83614469177064
C           25.75321380252909       90.47785012974870       53.70684714874220
C           26.18674816454248       91.64905674067748       52.96786439528676
C           26.08549536414971       93.10020282386627       50.99170860740701
C           25.54394739733511       93.44518024286327       49.69684897598856
C           26.21076201480285       94.55857228546681       49.28830397843719
C           27.14966553110063       94.87889104584221       50.33955982289413
C           28.01545046168488       95.95532963082341       50.29682238735753
H           27.98762959479854       96.58191774743479       49.41872665656358
C           30.58606239806225       95.91299307882105       54.36029437570722
H           31.36521088770039       96.53399254156629       54.77556738850388
C           28.34991453394943       91.88239719261618       55.72695126572101
H           28.43259865159207       91.21087100529999       56.56778559057339
C           25.67034420149699       92.01290794665755       51.73755698973638
H           24.89355610215164       91.39255230477816       51.31719974648590
C           31.59999470175383       98.35500145663779       52.82170171502688
H           31.31688097087424       98.82691083567721       53.76293348714918
H           31.76614398661574       99.13628648739511       52.08415106137382
H           32.54083880170790       97.82678387665392       52.97926645548325
C           29.86801740891763       98.37636546878380       50.07229408282080
H           28.90294819913323       98.86357471668877       49.93036152984779
H           30.12058400408644       97.85336192403564       49.14962612665444
H           30.61671552252905       99.14538840352478       50.24593459608849
C           31.77111075118178       95.25115765876546       57.11110233712849
H           31.57657619478780       96.31666019273680       56.99820847767275
H           32.77860522601951       95.05060438409133       56.74182323015564
H           31.73851935670703       95.00209911820059       58.16972163493863
C           30.32520309628163       92.51360511611988       57.95849331449006
H           29.43660080659255       92.02690002261032       58.34296840518837
C           31.47616138494463       92.35331493008690       58.60374502551878
H           32.39907524625447       92.77355325267550       58.24360858171296
H           31.53895182249073       91.76983481586224       59.50732382109213
C           26.45026755590878       89.48632378210057       55.97735711255559
H           26.57020976465926       90.01065759615310       56.92407515623787
H           27.23533050816221       88.73147788277768       55.90740435015906
H           25.48638720274178       88.98150760550435       55.97902473962846
C           24.69058038878902       89.58868216326634       53.29242652171489
H           23.87501856364612       90.05404393757219       52.75072296482305
C           24.64932965493740       88.27922577489392       53.51660081999460
H           25.45199317867547       87.75688656745777       54.00728428611197
H           23.81642554320836       87.67770846991058       53.19191201972502
C           24.46527099009423       92.68275065782235       49.00699629429576
H           23.55936393890119       92.66587830383260       49.61353095669087
H           24.77464440992033       91.65164384172378       48.83433330909849
H           24.22566055535164       93.13351735212397       48.04706582097427
C           26.05854347967556       95.34164601732289       48.02946683705320
H           25.29084181083303       94.90700504339665       47.39407913525000
H           26.99594637871398       95.35775608712403       47.47301644703332
H           25.77861650406129       96.37240870292297       48.24900882500286
O           26.57684662172286       95.28963228472966       53.97253987635830
H           25.90084543833389       95.25156317754904       53.28707214250866
H           27.02352037280010       96.13862017344235       53.88356133487106
C           30.84526249211265       90.11113189612624       49.97985587063273
H           31.47364153002406       89.38942971349715       50.50163138301278
H           31.37970435382324       90.44949894165002       49.09224116725897
H           29.93134486986739       89.61525490245859       49.66841035661266
N           31.47059373481409       92.07299736506528       51.40516497316541
H           32.46406524826212       91.98579828912204       51.26735004552634
C           30.51238218663397       91.25638647013930       50.86418664588005
C           30.83944050841582       93.00528025775513       52.15384178543784
H           31.34085418069514       93.77957871671410       52.69700246033934
N           29.54085900750606       92.82872964014074       52.11948995086335
C           29.32193376799770       91.74466214442549       51.32111170679691
H           28.33012906614838       91.39082412950796       51.12997859413713
