78
 energy: -116.056858345072 gnorm: 0.000050560514 xtb: 6.7.1 (edcfbbe)
Fe          15.88964555152876       -4.20352565052838        3.16251665665480
N           14.49846996944663       -5.60579012454906        2.90292482611291
N           14.55052803696639       -3.02127294966203        4.04310189888310
N           17.28663232532073       -2.76523187476348        3.36709448224567
N           17.23977113396769       -5.36585223805251        2.22067092099714
C           14.65213087471981       -6.81516350457664        2.29978478833987
C           13.40797128342673       -7.55526139067585        2.31126957441617
C           12.50125516551253       -6.76324052800482        2.94131024212241
C           13.20369591646961       -5.55049088242022        3.30411686325643
C           13.25426503123918       -3.31908208894765        4.31307885372345
C           12.61019830510580       -2.22442979580206        5.00766135506773
C           13.55405818789840       -1.25787030549791        5.15415267150544
C           14.76036443199181       -1.77466535805152        4.54285620544216
C           17.12318401320008       -1.53613810949821        3.92450393638898
C           18.37755968725908       -0.81186106682842        3.93736503019669
C           19.31238555456784       -1.66786844678710        3.41742058833059
C           18.60825831213212       -2.86660573385368        3.04977549064864
C           18.55106172083081       -5.08204578401487        1.99125675838052
C           19.19711924093002       -6.18286127697758        1.30608158893562
C           18.24108793485317       -7.15421840184812        1.16758635450014
C           17.03177009292535       -6.61988725528497        1.73191335884557
C           15.82555779137995       -7.30095048517304        1.75863678585075
H           15.80517420135929       -8.28864457208092        1.32339121761682
C           12.61419229204355       -4.49425320065664        3.97170373742659
H           11.57323957923368       -4.59172597104078        4.23954309904519
C           15.95015711766153       -1.07345762501532        4.49398691102960
H           15.97731104546597       -0.10168576212647        4.96133750428353
C           19.20572540571103       -3.94281879719799        2.41742481349178
H           20.26965124718756       -3.89127441981984        2.24826590308642
C           13.23175644904022       -8.91367547409887        1.72338623854945
H           13.89678598292762       -9.63184054998792        2.20445441520766
H           13.46170672844812       -8.90198792342442        0.65785083638231
H           12.20852433746752       -9.25903292377729        1.84841480320937
C           11.06204309423305       -7.01951124720255        3.23025612528960
H           10.43703192236140       -6.26611328868451        2.75081129661580
H           10.87347496391017       -6.98196910299002        4.30347076283961
H           10.76115811808645       -7.99786509748672        2.86344878574769
C           18.36538953097416       -8.48881468283605        0.51697187285279
H           17.72658811823396       -8.54699533516742       -0.36498743732030
H           18.06418158937420       -9.28170321166918        1.20243667787199
H           19.39130381599573       -8.66856842907180        0.20565257837869
C           20.56936779643175       -6.24524222040788        0.84632647763158
H           21.04724455458196       -7.21396071661470        0.94866035979856
C           21.24812647518432       -5.24990150300390        0.28727225695471
H           22.26786192627871       -5.37554364360527       -0.03706788314269
H           20.80665227583242       -4.28372206985720        0.11082591735319
C           20.76439849657086       -1.42559384204343        3.19064600384464
H           20.98684825422932       -1.38858862031307        2.12337522568343
H           21.36015260244069       -2.22594524748086        3.62964672890405
H           21.06845857948062       -0.48000365304801        3.63263032698547
C           18.60236692189627        0.54309219619784        4.39740201034052
H           19.54433043375663        0.70684821017206        4.91024711494550
C           17.78733231647081        1.57379797081891        4.20389850667549
H           16.86624688968299        1.48006550434445        3.65395821959209
H           18.02682027856083        2.55823548852440        4.57046116752582
C           13.44412597025852        0.08472501471016        5.79166394452644
H           14.15899659689615        0.18200418946876        6.60915948766279
H           12.44485105834922        0.24310875954254        6.18960377024934
H           13.65293546672504        0.87164164872638        5.06659010512191
C           11.18508146919294       -2.22773944517110        5.44304370455560
H           10.52370675146850       -2.34163854362346        4.58399787435684
H           10.93244477979884       -1.29893382182233        5.94868024178903
H           10.99532199497213       -3.05455364315341        6.12790297228117
O           15.45268934971769       -3.26694399289321        1.11322708163582
H           15.85517310014148       -2.40034134699801        1.23616808671160
H           16.05405581510549       -3.78393721428579        0.56619942482108
C           17.39637941207431       -5.00378875302157        8.46888720783388
H           18.39901808366015       -5.38608214503303        8.65991868414814
H           16.70175329947335       -5.52451696131165        9.12798334825894
H           17.37591390939996       -3.94528242084344        8.70826809662279
N           16.97159813957553       -6.43560128826667        6.45858107559604
H           17.17915166304530       -7.31046690902092        6.91146697049394
C           17.01996860059051       -5.19846429079542        7.04588038172331
C           16.59890570797714       -6.26324192146989        5.17025293581815
H           16.47797356959239       -7.06188964300173        4.46774163683332
N           16.40834203035114       -4.99326886695310        4.90669862008561
C           16.66606793735784       -4.31842191715855        6.06374708079938
H           16.58097139151681       -3.25265347518440        6.11215546255256
