87
 energy: -128.466581088012 gnorm: 0.000047032621 xtb: 6.7.1 (edcfbbe)
Fe         -80.89033811348600       59.46032647150697       46.93887826528437
N          -79.58345646559938       58.54852909006124       45.72228647309170
N          -81.87368223736378       57.73012870824350       47.18531363419812
N          -82.19148794847887       60.38045956822502       48.15616833056419
N          -79.90925492736791       61.18920797968180       46.68692254801383
C          -78.54925428772762       59.12191991703336       45.05560009892838
C          -77.83127659603632       58.13485159751571       44.27829796746892
C          -78.45359130504664       56.94694072454281       44.50238444816890
C          -79.54968147741410       57.22760323895283       45.40452850367964
C          -81.53075509752681       56.52050057115390       46.66990277531239
C          -82.48000316416073       55.51146617948652       47.06141793544317
C          -83.43686560212929       56.14768676212093       47.80562634969941
C          -83.01734678268582       57.53418728180824       47.89001861789376
C          -83.24752706629469       59.80661936644773       48.79277609710093
C          -83.93532171219854       60.77131205726755       49.60921900699564
C          -83.29050283397422       61.96547544799510       49.42409866328633
C          -82.18673113357630       61.68576533214937       48.52622375560388
C          -80.17812549272180       62.37387461215499       47.29571751808403
C          -79.22683439802314       63.38471577795533       46.88896551739606
C          -78.38391309085695       62.78219018680053       46.00762679755353
C          -78.82272401605069       61.40814155970202       45.90179047894225
C          -78.19071431115815       60.45605202015646       45.12249368491039
H          -77.33999804785904       60.77418086725146       44.53843109428234
C          -80.44034557918572       56.27176099351293       45.85218754854751
H          -80.28842322606685       55.25449738499981       45.52329475214410
C          -83.64243284048607       58.48454966229961       48.67393688264071
H          -84.49543700600060       58.16713070483664       49.25377521272907
C          -81.22666610521952       62.61387668577969       48.16395721073013
H          -81.30169651174717       63.59963798785755       48.59616206555943
C          -78.13305842056687       55.59511809764837       43.96155785308430
H          -77.93519540117387       54.89453787508469       44.77329494156678
H          -77.25567582443250       55.63211888581187       43.32019411396292
H          -78.96811198605555       55.20690538722198       43.37748006923189
C          -76.64609808538049       58.43426555703243       43.42463138513947
H          -75.82886471030828       58.83449447193607       44.02592692620758
H          -76.89888977672312       59.17422687470962       42.66491588751425
H          -76.29291625359055       57.53628001976739       42.92328884643288
C          -82.42268456458451       54.07826556389509       46.65724463831427
H          -81.46283451699921       53.63985037135429       46.93177676182741
H          -82.54214649253571       53.97728508700600       45.57761856506530
H          -83.21536229395629       53.51186798075175       47.13994841891598
C          -84.62626497138405       55.55412967414690       48.37945503693039
H          -84.50342692372008       54.54505326310272       48.75970478234251
C          -85.82783613102480       56.11837718457839       48.43294738662084
H          -86.01873617468256       57.09465608168298       48.02082506511722
H          -86.67102482764932       55.61002406972289       48.87120851237002
C          -85.14871977940201       60.49112395957052       50.42740034175234
H          -84.96648976384533       59.66494382953113       51.11513790637662
H          -85.98854294625659       60.21551975622218       49.78824993542504
H          -85.43415600627532       61.36820243662141       51.00319002349866
C          -83.65307190127642       63.24254485982698       50.00264173932770
H          -84.01728095724843       63.19992401686923       51.02405009666561
C          -83.61857895129457       64.41827576387151       49.38505795856818
H          -83.31850957581970       64.51619349687654       48.35545818278372
H          -83.91221035125461       65.32681122503297       49.88466612872443
C          -79.23775624343214       64.79446595241581       47.37383463368511
H          -79.15528220303182       64.82636828162606       48.46039460340856
H          -80.16734686286441       65.29105065006181       47.09349926225362
H          -78.40905918978999       65.35689444127146       46.95011426341281
C          -77.22145807549407       63.35489412879565       45.26995374855490
H          -76.29989950259974       62.83889822359137       45.54207354766756
H          -77.10095182308442       64.41141592896756       45.49730156496314
H          -77.36088444219602       63.24936630288587       44.19378185271665
C          -78.88516063471106       57.86791923658821       51.90965268157712
H          -78.46391674883972       58.63564428071893       52.55883257470573
H          -78.23127453066924       56.99636957620611       51.94392495081635
H          -79.86105934377659       57.58590705692922       52.29230078672992
N          -77.95157687418029       58.79992502149982       49.78056624391286
H          -76.99394028991213       58.82102910263614       50.09030369460435
C          -79.02354486474984       58.37020709139275       50.51904118444291
C          -78.41743515003002       59.18774386437764       48.57152639794479
H          -77.80063986093778       59.57091001793648       47.78509288292096
N          -79.71588632655177       59.03000254494751       48.49998211031603
C          -80.10760634593404       58.52214440519275       49.70319557682117
H          -81.13624924625664       58.30170032797521       49.89978785173874
C          -83.88107791350723       59.30248483986924       42.21721169369946
H          -83.55080058921864       59.91767133240918       41.38006759809539
H          -84.96468542727136       59.38984436611687       42.29758265018909
H          -83.63041526299094       58.26714111881937       42.00844461842247
N          -83.35836168693888       60.99287670976418       43.98980947988598
H          -83.89939795154507       61.73779378002604       43.58252539354167
C          -83.22220899211300       59.72848846938966       43.47806881673741
C          -82.63963623638779       61.05032710903228       45.13397632740942
H          -82.56272103238958       61.92081993920280       45.75202075269192
N          -82.05844940770568       59.90183172038564       45.37716353201603
C          -82.41067859738781       59.06964995387946       44.35630528128255
H          -82.05856337961396       58.05962969775359       44.32278970482556
