87
 energy: -128.184000394176 gnorm: 0.317521645570 xtb: 6.7.1 (edcfbbe)
Fe         -81.06000000000000       59.40299999999999       46.87199999999999
N          -79.54399999999998       58.43700000000000       45.80499999999999
N          -81.68800000000000       57.67400000000000       47.18700000000000
N          -82.24900000000000       60.24100000000000       48.00500000000000
N          -79.79200000000000       61.14000000000000       46.59500000000000
C          -78.44999999999999       59.09099999999999       45.23500000000000
C          -77.70200000000000       58.20200000000000       44.38099999999999
C          -78.35399999999998       57.04099999999999       44.43100000000000
C          -79.49600000000000       57.11699999999999       45.33599999999999
C          -81.40900000000001       56.46500000000000       46.56700000000000
C          -82.48300000000000       55.59100000000000       46.91000000000000
C          -83.34699999999999       56.23000000000000       47.71300000000000
C          -82.85100000000000       57.53500000000000       47.87299999999999
C          -83.25400000000000       59.67900000000000       48.70399999999999
C          -83.89200000000000       60.64500000000000       49.53700000000000
C          -83.26700000000000       61.78799999999999       49.34300000000000
C          -82.21299999999998       61.55900000000000       48.36800000000000
C          -80.25600000000000       62.34799999999999       47.01299999999999
C          -79.41899999999998       63.43399999999999       46.47500000000000
C          -78.30100000000000       62.78799999999999       45.67200000000000
C          -78.67199999999998       61.38400000000000       45.83599999999999
C          -77.99600000000000       60.35999999999999       45.35300000000000
H          -76.97699999999999       60.55400000000000       45.01800000000000
C          -80.37500000000000       56.12799999999999       45.70300000000000
H          -80.26499999999999       55.11199999999999       45.32900000000000
C          -83.54600000000001       58.39999999999999       48.62700000000000
H          -84.39200000000000       58.02499999999999       49.20200000000000
C          -81.35100000000000       62.49199999999999       47.83600000000000
H          -81.57299999999999       63.52100000000000       48.11400000000000
C          -77.85599999999998       55.84799999999999       43.67000000000000
H          -76.91800000000001       55.47700000000000       44.13500000000000
H          -77.64700000000001       56.13500000000000       42.61700000000000
H          -78.61700000000000       55.03900000000000       43.70000000000000
C          -76.35099999999998       58.60100000000000       43.64299999999999
H          -75.58600000000000       58.88600000000000       44.39699999999999
H          -76.53200000000000       59.46599999999999       42.96999999999999
H          -75.97399999999999       57.73600000000000       43.05700000000000
C          -82.51200000000000       54.14900000000000       46.38499999999999
H          -81.60899999999999       53.60699999999999       46.73900000000000
H          -82.51700000000000       54.15400000000000       45.27399999999999
H          -83.41700000000000       53.62900000000000       46.76600000000000
C          -84.67400000000001       55.77500000000000       48.42600000000000
H          -84.98399999999999       54.72300000000000       48.34700000000000
C          -85.53399999999999       56.65500000000000       49.19300000000000
H          -85.86600000000000       57.61599999999999       48.77300000000000
H          -85.86400000000000       56.37200000000000       50.20300000000000
C          -85.07100000000000       60.38500000000000       50.49400000000000
H          -85.13000000000000       59.30000000000000       50.72299999999999
H          -86.02100000000000       60.70399999999999       50.01500000000000
H          -84.91600000000000       60.94500000000000       51.44100000000000
C          -83.64300000000000       63.08300000000000       50.03799999999999
H          -84.25300000000000       63.10600000000000       50.95200000000000
C          -83.20500000000000       64.20600000000000       49.49800000000000
H          -83.04500000000000       64.27800000000001       48.41200000000000
H          -82.99499999999999       65.08300000000000       50.12700000000000
C          -79.58499999999999       64.95099999999999       46.70500000000000
H          -79.50700000000001       65.17200000000000       47.79100000000000
H          -80.58199999999998       65.27900000000000       46.34100000000000
H          -78.78400000000001       65.50200000000000       46.16699999999999
C          -77.09799999999998       63.47400000000000       44.90400000000000
H          -76.29800000000000       63.73900000000000       45.62800000000000
H          -77.45200000000000       64.40000000000001       44.40300000000000
H          -76.68300000000001       62.77000000000000       44.15100000000000
C          -78.93600000000001       57.13199999999999       51.64699999999999
H          -78.87800000000000       57.69700000000000       52.60200000000000
H          -77.93300000000001       56.71500000000000       51.41299999999999
H          -79.67199999999998       56.30800000000000       51.76100000000000
N          -78.65700000000000       59.17800000000000       50.18000000000000
H          -77.80200000000001       59.47300000000000       50.60600000000000
C          -79.37200000000000       58.05300000000000       50.54500000000000
C          -79.28600000000000       59.78500000000000       49.18999999999999
H          -78.93100000000000       60.68899999999999       48.69600000000000
N          -80.39299999999999       59.11200000000000       48.91800000000000
C          -80.47600000000000       58.03300000000000       49.76000000000000
H          -81.31500000000000       57.34999999999999       49.72099999999999
C          -83.84999999999999       59.30899999999999       42.50900000000000
H          -83.13600000000000       59.56800000000000       41.69799999999999
H          -84.79600000000001       59.86900000000000       42.34800000000000
H          -84.04600000000001       58.21599999999999       42.48100000000000
N          -82.92000000000000       60.99600000000000       44.09899999999999
H          -83.03500000000000       61.76400000000000       43.46899999999999
C          -83.26600000000001       59.67900000000000       43.81800000000000
C          -82.42499999999998       61.05400000000000       45.31300000000000
H          -82.05900000000000       61.96500000000000       45.78500000000000
N          -82.45099999999999       59.84199999999999       45.84200000000000
C          -82.96899999999999       58.96200000000000       44.92000000000000
H          -83.07500000000000       57.90800000000000       45.14100000000000
87
 energy: -128.289839615383 gnorm: 0.155061107647 xtb: 6.7.1 (edcfbbe)
Fe         -81.01863179273211       59.39718191463130       46.92733928227403
N          -79.54386103566824       58.45447295239778       45.77214608038447
N          -81.71764699598802       57.66653344738501       47.16835863220800
N          -82.23839375425972       60.27746306756191       48.02681654688089
N          -79.81101764920597       61.17277039321078       46.57140065097541
C          -78.43734160598189       59.07917442361429       45.23447151622500
C          -77.67930201869004       58.19443640101440       44.38785775675019
C          -78.33930919598536       57.01990752102142       44.42654311940939
C          -79.48212913874688       57.14127319590496       45.32572707322876
C          -81.43818900731156       56.45978444387604       46.56858961989488
C          -82.50062037372804       55.55033244631814       46.90173011186253
C          -83.40574361458317       56.19996495186914       47.70005137750234
C          -82.86995474536285       57.51007317808244       47.85888090019961
C          -83.24578239504203       59.70624442280268       48.72012212992681
C          -83.90846836891699       60.65414251571111       49.55309444953991
C          -83.28971264743471       61.83112584663047       49.33461511654187
C          -82.21526202232320       61.59187824785179       48.36939569119447
C          -80.24094791331460       62.37908788033893       46.99972172129844
C          -79.39138131790415       63.44137822007531       46.46643603949475
C          -78.34189332819503       62.81485440799108       45.71245401873372
C          -78.67721344704023       61.41305090274668       45.85188008986576
C          -77.97752197107211       60.36233241997954       45.35131444167607
H          -76.97614052947836       60.55796485068876       44.99303660656383
C          -80.37550160704876       56.15632370689099       45.71019577708145
H          -80.26585691493564       55.14049351561966       45.33728902907487
C          -83.53953504453423       58.39800867944537       48.64087347616262
H          -84.36074508644360       58.02255155828890       49.22359039690193
C          -81.34043452847007       62.52522592097623       47.84199168770355
H          -81.54650540701206       63.53898269195911       48.12686739110691
C          -77.86230805890224       55.82797378275491       43.66999423148678
H          -76.92985326580009       55.46839233398804       44.12485774644352
H          -77.65292193389432       56.11828272792282       42.63165094602035
H          -78.60935290890576       55.03144478428182       43.69128552453563
C          -76.37764109965585       58.58872359123601       43.65663485580645
H          -75.60756293710239       58.87514267414004       44.38728548437690
H          -76.53848982418137       59.44382243534317       42.98492636804520
H          -75.98887148740006       57.74870003100698       43.06938765998306
C          -82.51739461486083       54.13980497959968       46.38621052692167
H          -81.62229283094577       53.60864347119048       46.73414987674392
H          -82.52071331375920       54.14632890698574       45.28890627064070
H          -83.40891470103961       53.62660067097026       46.75708289907148
C          -84.66669209019332       55.79244683830575       48.41803191202820
H          -84.92812749515116       54.73031262486412       48.39659613300584
C          -85.52311290422598       56.62365377719971       49.15701542198529
H          -85.86304931552014       57.58747354191222       48.78170609012472
H          -85.89753608227277       56.33265155344503       50.14239615571798
C          -85.06458994258347       60.38187842622729       50.48822897979044
H          -85.12975287182992       59.31418796948257       50.72285521957876
H          -86.00764409756482       60.69946367944901       50.02407132431649
H          -84.92201758006421       60.93716255226170       51.42346345365269
C          -83.62669621459310       63.08637154659804       50.02481600591517
H          -84.20002977179269       63.07909603343182       50.95524569308794
C          -83.21827791689280       64.23601289890271       49.49813391873383
H          -83.02308971262768       64.29975414016461       48.43465161868949
H          -83.04364180983725       65.11012727010412       50.11387386420672
C          -79.57953228903096       64.92909657479198       46.70134799072347
H          -79.50885801755460       65.16496845634545       47.77338634570540
H          -80.56349587348151       65.27033104192066       46.34568194122964
H          -78.79874297522279       65.49072575999993       46.17477983339189
C          -77.14779528723676       63.45168375242358       44.93890600124276
H          -76.32750284774515       63.72780526172114       45.62254476011749
H          -77.45702030836624       64.37292841266571       44.42121347328450
H          -76.71398534684005       62.77818253707969       44.18066534004560
C          -78.93133442947342       57.13353553926107       51.65494792196832
H          -78.87415888078715       57.68537021436160       52.60094745509728
H          -77.94386405318443       56.71506992973703       51.42320810742569
H          -79.65790701412321       56.32050282191634       51.75904044656664
N          -78.63840646012147       59.16629675022394       50.20304197651595
H          -77.78170127823250       59.46714920331041       50.62474415136361
C          -79.36011556296573       58.05117880143656       50.56716789617310
C          -79.27720715420736       59.77260802270818       49.20155030314236
H          -78.93912497605803       60.67108188599395       48.70749182550921
N          -80.36188074264643       59.10159666354193       48.91866563778528
C          -80.45411556902349       58.03799455470682       49.76298159569331
H          -81.29273732660320       57.36299833734301       49.72214625785211
C          -83.85692503011840       59.30835559376352       42.49335492769156
H          -83.14980601325829       59.56278618676073       41.69434940736858
H          -84.79273539334120       59.85729974209917       42.33609651477274
H          -84.04766371609345       58.23086900595408       42.47561542478581
N          -82.93611862561472       60.99487890885569       44.07093642557529
H          -83.04936591902859       61.77012293785174       43.44707915153923
C          -83.27846082140665       59.68586174523373       43.79531191148223
C          -82.42562981757781       61.04455218937232       45.29657135478721
H          -82.07068851505440       61.94544324731876       45.77531077335643
N          -82.39739574516805       59.82826501497749       45.80161058908595
C          -82.96449149949923       58.97034052794545       44.90099268457115
H          -83.07461427192800       57.92465301172512       45.12906266257845
87
 energy: -128.346628441076 gnorm: 0.065880601116 xtb: 6.7.1 (edcfbbe)
Fe         -80.97862464590048       59.39488393781286       46.97438139114737
N          -79.52672448599093       58.46739954262867       45.76430149165643
N          -81.74974255670421       57.66360920670834       47.15730220503209
N          -82.22734081685640       60.31522801311203       48.04750477003535
N          -79.82131587716162       61.19456725464949       46.57052415731111
C          -78.42762661859301       59.07535767448501       45.23652775078408
C          -77.66355389787684       58.18716127737832       44.39754530882863
C          -78.33095369596326       57.00356552236691       44.42850481474283
C          -79.47656022428399       57.16864183308115       45.31947206389356
C          -81.46981249615338       56.46075504889996       46.57217843699572
C          -82.52125940006165       55.52496822804769       46.89632430278177
C          -83.46319044336808       56.18205628795155       47.68382717592205
C          -82.89549361052178       57.49837927890804       47.84312266646911
C          -83.22742770834182       59.73234351015853       48.74024907500586
C          -83.91250549632122       60.66713202632333       49.56803455817679
C          -83.30799733365112       61.87249273034671       49.32726075764834
C          -82.22014208175267       61.62656183618360       48.36838043296070
C          -80.23579518294207       62.40391824763284       46.99165796093035
C          -79.36575816665807       63.44661766833378       46.46088482657465
C          -78.37702183266703       62.83416921783075       45.75053587071770
C          -78.68595384769158       61.42620551866227       45.86260461920114
C          -77.96998687888365       60.37083497018447       45.34537025199881
H          -76.98259383435830       60.57152009306742       44.96738194646843
C          -80.38513635300771       56.19275533866222       45.71791842252365
H          -80.26862622993194       55.17674382178193       45.34881864063964
C          -83.52341775597947       58.40709691212032       48.65759722849253
H          -84.31962058267534       58.03180031755331       49.25889373479428
C          -81.33278121371512       62.56125188992380       47.84917945481333
H          -81.51113636734679       63.56896110959445       48.14857133697356
C          -77.87121083773845       55.80859277887060       43.67332417375459
H          -76.94065866963163       55.45032169892131       44.11559746240205
H          -77.66172897639170       56.09785620816040       42.64250953528640
H          -78.60828411791604       55.01815195062119       43.68598514239903
C          -76.40306067150865       58.57119030312080       43.67321840774160
H          -75.62542008760514       58.86316912012654       44.38475180635812
H          -76.55649003918859       59.42038893375734       43.00135512060388
H          -76.00825631235392       57.74795621816046       43.08089335837906
C          -82.52702545285959       54.13270392358167       46.38829412993169
H          -81.63511940862807       53.60547114442909       46.72865791657609
H          -82.52667928409126       54.13186081550338       45.29817909965149
H          -83.40766329074098       53.61376942593410       46.74889721398355
C          -84.65042203819316       55.79505225151667       48.40445010499663
H          -84.84674250475470       54.71598788911020       48.46811139749826
C          -85.51741047279420       56.58066873951915       49.10518387699570
H          -85.84503127713450       57.56435956831319       48.78812882595093
H          -85.95635426788684       56.26498326126026       50.05528022674071
C          -85.05536209734333       60.38525251936979       50.48192251115955
H          -85.12468418103509       59.32690465864654       50.71906527150369
H          -85.99828901200019       60.69790422228207       50.02966732837972
H          -84.92839353043742       60.93549492258620       51.41362845008005
C          -83.60753391132432       63.09492778807031       50.00622262625116
H          -84.13794966858246       63.05392376039199       50.95828862331719
C          -83.23258160460543       64.27248322395870       49.50192843039274
H          -83.00710304944312       64.33774508260451       48.45596136473402
H          -83.11124469888213       65.14981442484735       50.10788367238538
C          -79.57087726885993       64.91268325644099       46.69731452436040
H          -79.50863286675647       65.15315816242710       47.76164225029142
H          -80.54946625781186       65.25318260795601       46.34669606453817
H          -78.80505511216985       65.48498564183966       46.17768397236710
C          -77.19889506467175       63.43642165420457       44.97723144282723
H          -76.36599143452023       63.71228246106991       45.63766244164140
H          -77.48265152757891       64.35176495206818       44.44597932407033
H          -76.76907527521770       62.76746929776419       44.22164501835384
C          -78.92608043864695       57.13370532282437       51.66797897570230
H          -78.86772610105994       57.67296723852964       52.61073842475192
H          -77.94869600210123       56.71302015218110       51.43671482704497
H          -79.64763248548167       56.32782687623158       51.76054034467752
N          -78.61525142994233       59.15845626729960       50.23278622896176
H          -77.75812495973732       59.46437931017275       50.65273011194379
C          -79.34635951958283       58.05225100838079       50.59019202583935
C          -79.25135733076058       59.75761533544600       49.20981970818362
H          -78.93194301340118       60.65525424819300       48.71907165685188
N          -80.31214272891670       59.08075849504636       48.89758500361285
C          -80.42431240804478       58.03910271912197       49.75786177908068
H          -81.26441813378449       57.37213846236926       49.71996300687604
C          -83.87232121400540       59.30676842234382       42.47167603807394
H          -83.16696460328134       59.55755412935499       41.68186462866456
H          -84.80214868989982       59.84599178427836       42.31240841263112
H          -84.05403215596799       58.23823322415110       42.46504572185311
N          -82.96130999602281       60.99785645335194       44.03910353121817
H          -83.07300184023011       61.78120540942554       43.42342578179420
C          -83.29683343448622       59.69663738244465       43.76812341958390
C          -82.41471475861336       61.03522235776074       45.26405596351763
H          -82.07470854738212       61.92653648189643       45.75337554230721
N          -82.33843507410670       59.81766146695696       45.74464485695581
C          -82.94581711095056       58.97891729352261       44.86703595510139
H          -83.06522411757618       57.94007897689177       45.10216128534935
87
 energy: -128.380728192833 gnorm: 0.056022157985 xtb: 6.7.1 (edcfbbe)
Fe         -80.95825616633205       59.39944041551811       46.99278209244812
N          -79.51514466251783       58.47670384506025       45.76673551097843
N          -81.77635177534890       57.66916916321432       47.14433142906196
N          -82.21589947587542       60.34399277070588       48.05745922937129
N          -79.83384171082804       61.20751492589525       46.58012281659965
C          -78.41723374375965       59.07526653463812       45.24371211352653
C          -77.65959632941319       58.17404488597884       44.41154941679344
C          -78.33143190280687       56.99114890130808       44.44004171042787
C          -79.47750708212222       57.18178624796590       45.32485765500716
C          -81.49380642090503       56.46823298251928       46.56252288295492
C          -82.53591083941970       55.52129774857627       46.88247720423499
C          -83.48352438713363       56.18016062054249       47.66431145717925
C          -82.91830325776806       57.50341812344206       47.82871794292237
C          -83.20658993715843       59.75117467442841       48.75705091831140
C          -83.90281431637125       60.68696184913290       49.57475808742040
C          -83.31230418532482       61.90352831452989       49.31974236642962
C          -82.22360684134492       61.65798836263137       48.36521404491184
C          -80.24274246048938       62.42046107794359       47.00300493726435
C          -79.37021093267467       63.46015623002271       46.47676352709593
C          -78.38714838108764       62.83276899963590       45.77022213762071
C          -78.69355791731145       61.42360435051799       45.87453000035762
C          -77.96892158526124       60.37767553561481       45.34611057692727
H          -76.99422818628383       60.59124590683388       44.93684702762716
C          -80.39766826510635       56.21770504149257       45.72080358515880
H          -80.27341387577067       55.20508780898174       45.35438035534418
C          -83.50676303320348       58.41974920280924       48.67379283781928
H          -84.27883381806095       58.04121538291040       49.30936524925622
C          -81.32945475478624       62.59529155217609       47.86149364288758
H          -81.47317642435415       63.60630561156182       48.18256235513941
C          -77.88389177476014       55.78989859136561       43.68141251065369
H          -76.95195805107453       55.42200667792951       44.11200191498315
H          -77.67582103185276       56.07479891252274       42.64968847497928
H          -78.61980651515682       54.99782061751322       43.68768411347299
C          -76.41361432622170       58.55377016863852       43.68214987937938
H          -75.63356537135002       58.84959293735994       44.38741277743412
H          -76.57911734184793       59.40043604161674       43.01202229212574
H          -76.02546069655173       57.73162286554435       43.08753833151656
C          -82.53762343556245       54.12308411825482       46.38625074137697
H          -81.64376017501731       53.59894307973136       46.72606462056628
H          -82.53635172772044       54.11160303832412       45.29665043370768
H          -83.41439764941896       53.59469799468147       46.74422825702679
C          -84.63262240072824       55.76638484354080       48.41052866679812
H          -84.75668661117552       54.67567100482993       48.54754377478928
C          -85.54052400597330       56.53439076208078       49.06164395926694
H          -85.83282144717519       57.53663336318461       48.77614630442469
H          -86.05360388468155       56.17519791175341       49.96235505789746
C          -85.04749192940638       60.39510405852418       50.47962261716884
H          -85.11449532952409       59.33636224294034       50.71544901884423
H          -85.99260633044898       60.70077231413285       50.02839773865668
H          -84.93460008092684       60.94313625893987       51.41369922390827
C          -83.59048665950296       63.12281259411722       50.00209040022421
H          -84.07461675275323       63.04639431771942       50.97802623163987
C          -83.25457124067606       64.31992544789979       49.51117998327271
H          -82.99422631309569       64.39510026915779       48.47303575865450
H          -83.20628636381129       65.21189917048117       50.11283674804105
C          -79.56938799498921       64.91879365453651       46.70101179899796
H          -79.50850119340583       65.15269628974373       47.76379334967667
H          -80.54789444512731       65.24436978209877       46.34564527277306
H          -78.80543826742755       65.48807937761977       46.17859435798365
C          -77.23024631497454       63.42780376470680       45.00412704584520
H          -76.40199330260235       63.69718203495147       45.66590449060758
H          -77.52015363554912       64.33707725853249       44.47407685836504
H          -76.82399377153837       62.74365107948176       44.25687632115074
C          -78.91906922971918       57.13144626963204       51.68956493851867
H          -78.86012018926716       57.66006085878700       52.63736509530070
H          -77.94430228762782       56.70629741197019       51.45864584911651
H          -79.64296344318866       56.32783279283199       51.76868230876084
N          -78.58577453509859       59.15709397879127       50.26679139496242
H          -77.73254986862734       59.46430177446781       50.69567316412593
C          -79.32605181961650       58.05505813171545       50.61227133188996
C          -79.19976566505657       59.74367162024431       49.21766280079942
H          -78.89068389554208       60.64444532196264       48.73238692129711
N          -80.24532084985920       59.05756639140498       48.86927622080784
C          -80.38084570969390       58.03195246117514       49.74737823469595
H          -81.22321943355293       57.37060964801655       49.70956331290829
C          -83.89479218479083       59.30486023112617       42.44249589046081
H          -83.19050654883897       59.55168437351010       41.65114934270328
H          -84.82745716516438       59.83484468873948       42.27572157652057
H          -84.06799675124756       58.23589297739139       42.44600653950331
N          -82.98510286706183       61.00573856618637       44.00384841928336
H          -83.10866107198905       61.79457463616750       43.39565183562700
C          -83.31314446993439       59.70569618242691       43.73416841968194
C          -82.39452924748439       61.03309799037869       45.21549801605482
H          -82.06959997298453       61.92086278896587       45.71465733056651
N          -82.29034793929011       59.81604671937193       45.68595002313295
C          -82.91661015847065       58.98378662362403       44.81891978743013
H          -83.04272565504478       57.94776765006755       45.05571880856497
87
 energy: -128.406757311807 gnorm: 0.038714808634 xtb: 6.7.1 (edcfbbe)
Fe         -80.93999312735933       59.40476626462708       47.00224352643221
N          -79.50324453996460       58.48345721575612       45.77667228618357
N          -81.80263492297870       57.67632952404450       47.13591155558036
N          -82.20258422744712       60.36723419598191       48.06797025591994
N          -79.84636156928279       61.20965566113178       46.60695042874871
C          -78.40674914626069       59.07632412134849       45.25180525026472
C          -77.65892322978702       58.15929158797173       44.42705757080116
C          -78.33528197970553       56.97964409915615       44.45592365407165
C          -79.48042001357126       57.19045214063470       45.33582791641783
C          -81.51688775030784       56.47785687982573       46.55108138951066
C          -82.54595398114775       55.52030258617653       46.87627955776261
C          -83.48346504758366       56.17350875910986       47.66446065265909
C          -82.94148080822191       57.50887240363853       47.82483136550229
C          -83.18652136528922       59.76675132283290       48.77508208706691
C          -83.88797505831671       60.70937247819820       49.58505664830126
C          -83.30749994271102       61.93004241046912       49.32167446398949
C          -82.22536443469171       61.68480748218454       48.36813552253006
C          -80.25318633697100       62.42765116955901       47.02405306264804
C          -79.38077211817578       63.46232712301713       46.49944394221256
C          -78.40238641170960       62.82604529872273       45.79270473294358
C          -78.70956987655035       61.41678341587674       45.89342014549602
C          -77.97616449181342       60.38714890910754       45.34655265820281
H          -77.01524928028616       60.61742853564945       44.90937731729976
C          -80.41392351054880       56.23951346479688       45.72222163682640
H          -80.28240722719815       55.23030199469096       45.35555901367957
C          -83.49379688981624       58.43112635203708       48.69378453743137
H          -84.24247926420340       58.05390414267934       49.36353667565543
C          -81.32781267973803       62.62639187629186       47.88127396504905
H          -81.43988675932003       63.63995906327679       48.21897316889283
C          -77.90057735531835       55.77198087175023       43.69398563388130
H          -76.96795005750994       55.39119452055608       44.11419474835454