78
 energy: -116.057025902555 gnorm: 0.000056588979 xtb: 6.7.1 (edcfbbe)
Fe          48.56864693595587       41.14771660221285       -0.44858474928481
N           47.63141811591060       39.45441418505694       -0.99846543001642
N           50.09719960407767       40.05237933787407        0.27114234021732
N           49.55401914614987       42.81704427209311       -0.00958813702150
N           47.04815242430789       42.21452300784684       -1.15846465932882
C           46.39456923117009       39.35106408852940       -1.55406199401131
C           46.06593103275484       37.96817403825403       -1.81473078077854
C           47.13422955287993       37.23450399188413       -1.39959279996396
C           48.09672025483692       38.17860656968523       -0.87870690125719
C           50.20640489522018       38.69396122642365        0.26849611234757
C           51.39300958479905       38.27787002733479        0.96524576293531
C           51.98782669339226       39.41965974030467        1.43463938112445
C           51.17175860855649       40.51883582325610        0.96196045380555
C           50.77030417354389       42.91052556965702        0.59297199305907
C           51.19197017556926       44.28529939741097        0.67935471438364
C           50.20496926703238       45.02993386446096        0.09348534070020
C           49.17688377633622       44.08606302127941       -0.30346167257181
C           46.94456348655216       43.56830766333192       -1.17061611408325
C           45.64860349318126       43.97876441637334       -1.66823779558723
C           44.97574397246276       42.83587760001955       -1.96465055530932
C           45.86967998345575       41.74372659632447       -1.64196089100094
C           45.55558501999791       40.41252794022047       -1.83783891175658
H           44.58593749999730       40.18317592419169       -2.25240857562200
C           49.29790804234394       37.81525771039438       -0.30081055263710
H           49.53169536596346       36.76241230196114       -0.25615102491574
C           51.51559886036922       41.85164010588866        1.07921750982319
H           52.45206242884430       42.08136823897966        1.56283157794822
C           47.93764239112832       44.45223654382708       -0.79554797998932
H           47.72814402125072       45.50731660421701       -0.87909873228609
C           47.33815645236945       35.75827385815549       -1.43395882471158
H           46.49164454834860       35.26207681333128       -1.90205220003522
H           47.45181489350957       35.36156323492402       -0.42442374731217
H           48.23719046204475       35.50743483256910       -1.99744583534215
C           44.78786834069776       37.50970209340474       -2.42872079596823
H           44.65757171202672       37.95134335943413       -3.41691045025066
H           43.93905293954345       37.80655792882084       -1.81229293522216
H           44.77368838612419       36.42744778798161       -2.53243862436282
C           51.81619104069836       36.86329706776700        1.16567123349031
H           51.89460591687907       36.34560155621917        0.20922070273757
H           51.09147833567540       36.32664315165739        1.77956671036961
H           52.78090260899272       36.81991058176813        1.66477905705706
C           53.18566500154211       39.50484873832522        2.24357935497094
H           53.95709569133109       38.77882429110809        2.00929304128277
C           53.38193477415012       40.35254838009577        3.24713096267568
H           52.62766049206581       41.05690246419547        3.55468749936156
H           54.29952720601628       40.35509839479054        3.81190828420629
C           52.48591479173123       44.74724129035069        1.25456584410690
H           53.32405294165635       44.34583130361096        0.68414299665348
H           52.59045145023337       44.41005961368863        2.28624998583081
H           52.54857015530656       45.83232123834127        1.23408108857772
C           50.19530398151819       46.46512511287614       -0.10062968239624
H           50.63650447751729       47.04491864101756        0.70340029316769
C           49.73926365388469       47.09633724253062       -1.17665283660139
H           49.34442554157675       46.56382999025548       -2.02497826136890
H           49.77157869548636       48.17048906461427       -1.25644619343692
C           45.21460256099037       45.39729890634027       -1.80895076469194
H           45.86035062359284       45.92640923470729       -2.50999575141380
H           45.26680445701002       45.91191896648444       -0.84932563212820
H           44.19243112209748       45.45540449704586       -2.17496910866593
C           43.60214835002055       42.66334309572663       -2.51666403778533
H           43.11567816255756       43.62633651989903       -2.65087290022078
H           42.99142378820034       42.06023214888446       -1.84443293649427
H           43.63812561020212       42.16044339394657       -3.48342393718704
O           49.60031560466697       41.04305223373304       -2.49513145342743
H           49.07842353024365       40.33975555000693       -2.89684645652349
H           50.44038534278081       40.65446961192011       -2.22800165253779
C           46.06815176086683       42.43672292376244        4.36022425420556
H           46.64376408610754       42.32253127783343        5.27869115528271
H           45.06448178910621       42.05009583746564        4.53686149824520
H           45.99720521517830       43.49350851808155        4.12294206059742
N           46.94838183182866       40.36694568652960        3.25933749901412
H           46.70987668140663       39.74250132406419        4.01214953755485
C           46.72010909630004       41.71793830819828        3.23638928249592
C           47.55082765498592       40.03362589522838        2.09572929723403
H           47.84775064689993       39.03837877400346        1.83726040811592
N           47.71748728678185       41.09034040197766        1.33834673396641
C           47.20561195719123       42.14609928550689        2.03405222950107
H           47.22137031208888       43.13523316750237        1.62493707846294
