78
 energy: -115.930134714100 gnorm: 0.276538130588 xtb: 6.7.1 (edcfbbe)
Fe          48.44600000000000       41.11899999999999       -0.17700000000000
N           47.64500000000000       39.37400000000000       -0.95200000000000
N           50.17300000000000       39.94200000000000        0.25800000000000
N           49.66800000000000       42.80600000000000       -0.07400000000000
N           47.07000000000000       42.22800000000000       -1.34300000000000
C           46.46800000000000       39.30500000000000       -1.68100000000000
C           46.23900000000000       37.91300000000000       -2.01600000000000
C           47.24900000000000       37.20300000000000       -1.52000000000000
C           48.13500000000000       38.09000000000000       -0.81900000000000
C           50.22199999999999       38.56000000000000        0.33200000000000
C           51.40800000000000       38.18000000000000        1.05800000000000
C           52.06300000000000       39.30600000000000        1.38200000000000
C           51.26600000000000       40.44100000000000        0.94500000000000
C           50.91600000000000       42.85999999999999        0.54200000000000
C           51.36000000000000       44.23600000000000        0.51400000000000
C           50.36100000000000       44.97399999999999        0.01500000000000
C           49.31200000000000       44.07700000000000       -0.44200000000000
C           47.00700000000000       43.61299999999999       -1.20700000000000
C           45.67000000000000       44.06399999999999       -1.55500000000000
C           44.90100000000000       42.80800000000000       -1.94700000000000
C           45.83000000000000       41.69899999999999       -1.73400000000000
C           45.58800000000000       40.35600000000000       -1.94200000000000
H           44.61299999999999       40.09000000000000       -2.35100000000000
C           49.31700000000000       37.68999999999999       -0.22100000000000
H           49.54200000000000       36.62400000000000       -0.18700000000000
C           51.62300000000000       41.77400000000000        1.03900000000000
H           52.55599999999999       41.99400000000000        1.55700000000000
C           48.06199999999999       44.44400000000000       -0.89500000000000
H           47.88799999999999       45.51300000000000       -1.02100000000000
C           47.49400000000000       35.68299999999999       -1.60800000000000
H           46.66699999999999       35.20600000000000       -2.17700000000000
H           47.52500000000000       35.24800000000000       -0.58600000000000
H           48.45300000000000       35.48700000000000       -2.13300000000000
C           44.98300000000000       37.36099999999999       -2.74100000000000
H           44.57400000000000       38.14000000000000       -3.42000000000000
H           44.20699999999999       37.09100000000000       -1.99400000000000
H           45.25900000000000       36.46800000000000       -3.34200000000000
C           51.87500000000000       36.73700000000000        1.35100000000000
H           52.53300000000000       36.38600000000000        0.52700000000000
H           50.99400000000000       36.06400000000000        1.42000000000000
H           52.44599999999999       36.71400000000000        2.30300000000000
C           53.36800000000000       39.35400000000000        2.20100000000000
H           54.10000000000000       38.53499999999999        2.14900000000000
C           53.62499999999999       40.40500000000000        2.99200000000000
H           52.84700000000000       41.15700000000000        3.19200000000000
H           54.61700000000000       40.52900000000000        3.45100000000000
C           52.67200000000000       44.77900000000000        1.13400000000000
H           53.44800000000000       43.98400000000000        1.11500000000000
H           52.49200000000000       45.08199999999999        2.18800000000000
H           53.03300000000000       45.64899999999999        0.54500000000000
C           50.37000000000000       46.52100000000000       -0.05700000000000
H           50.81500000000000       47.10900000000000        0.75900000000000
C           49.85000000000000       47.17600000000000       -1.08900000000000
H           49.39500000000000       46.62700000000000       -1.92700000000000
H           49.86800000000000       48.27500000000000       -1.11900000000000
C           45.12700000000000       45.49800000000000       -1.55200000000000
H           45.45200000000000       46.01900000000000       -2.47800000000000
H           45.52300000000000       46.04700000000000       -0.67100000000000
H           44.01700000000000       45.47900000000000       -1.52000000000000
C           43.41900000000000       42.77200000000000       -2.36000000000000
H           43.19100000000000       43.65000000000000       -3.00100000000000
H           42.77600000000000       42.81099999999999       -1.45500000000000
H           43.21200000000000       41.84300000000000       -2.93400000000000
O           49.65200000000000       40.63499999999999       -2.77200000000000
H           49.26000000000000       39.82500000000000       -3.09800000000000
H           50.26100000000000       41.13000000000000       -3.19000000000000
C           45.37600000000000       42.54800000000000        4.43200000000000
H           45.90600000000000       42.61900000000000        5.40600000000000
H           44.44600000000000       41.95600000000000        4.57000000000000
H           45.12500000000000       43.57300000000000        4.08300000000000
N           46.74600000000000       40.59300000000000        3.59300000000000
H           46.56100000000000       40.01800000000000        4.39000000000000
C           46.26400000000000       41.87199999999999        3.42600000000000
C           47.47999999999999       40.25600000000000        2.54500000000000
H           47.98800000000000       39.29900000000000        2.42900000000000
N           47.48099999999999       41.26400000000000        1.69300000000000
C           46.75400000000000       42.30200000000000        2.24000000000000
H           46.65600000000000       43.25099999999999        1.72800000000000
78
 energy: -116.002691770493 gnorm: 0.121376177915 xtb: 6.7.1 (edcfbbe)
Fe          48.50770188104043       41.11004289044796       -0.28080137429854
N           47.62835175820044       39.37555688007619       -0.93865287481035
N           50.16135433236227       39.93994680359489        0.31113114617967
N           49.66185556566899       42.80847641059884       -0.05602888991345
N           47.05580718786786       42.22422467893407       -1.29436406521603
C           46.45735693580912       39.30449991433381       -1.65957865403487
C           46.21506039847401       37.91258391125308       -2.01600758542579
C           47.24239214522994       37.18698996386966       -1.51711385300917
C           48.12914969482298       38.09998871731213       -0.83555500001872
C           50.23082648142671       38.56983013528867        0.34893356765162
C           51.42433467414085       38.16795339563845        1.05721268735936
C           52.07701056290731       39.30748865390282        1.41744040594598
C           51.27466922399950       40.43050465868970        0.94363645253414
C           50.90929391124654       42.86392993699918        0.52701729630273
C           51.35757359996841       44.24471224382545        0.54316758566588
C           50.35986402955452       44.99939300956626        0.00983758299297
C           49.30002695306160       44.08067609931769       -0.40426763912609
C           46.98149394360036       43.59537037986207       -1.22166385815114
C           45.64627344460083       44.02816594721209       -1.57456507016380
C           44.92040330306023       42.84201208547672       -1.92610266831326
C           45.83810008826288       41.73217838084840       -1.72427837316916
C           45.59661942566143       40.37118175779514       -1.93519387249951
H           44.62821707190362       40.10217029440835       -2.35091434380654
C           49.31070686858162       37.70637655865555       -0.22097855861200
H           49.53305552284554       36.64328315340094       -0.18907613298337
C           51.61829491506642       41.77512722285465        1.02293087315634
H           52.55092776943692       42.00116416027756        1.52584171553370
C           48.04815757716706       44.43714845901617       -0.89158119013886
H           47.87630738264192       45.50216036934423       -1.01309187165882
C           47.48721721460282       35.69463277215882       -1.60873371937014
H           46.67901886874805       35.21124524791472       -2.16698961146804
H           47.52589737061603       35.25539545202989       -0.60439811655613
H           48.43586617831673       35.49143287327683       -2.12126507118436
C           44.99405968101575       37.37391986838556       -2.74024763219039
H           44.57911290342651       38.13012070392156       -3.41353270406072
H           44.22407118515569       37.09677039344312       -2.00856070168348
H           45.25401822904804       36.48696677211730       -3.32971201966361
C           51.86930688203179       36.74842308231104        1.34436030890749
H           52.52221188630929       36.39042990719312        0.53813211132583
H           51.00844780120787       36.07538096519788        1.42020695559751
H           52.43120335773497       36.71476953231266        2.28461253073865
C           53.34999060106545       39.37515522208022        2.19446191800418
H           54.06977331483733       38.55755958894261        2.11675358324970
C           53.62400769237696       40.40062324379937        2.99706891472245
H           52.87284410554440       41.15224609841233        3.20498597662115
H           54.59797428612625       40.51503340539049        3.46354496546831
C           52.65896575138668       44.76673267831977        1.12862688234550
H           53.43494438603840       43.99378433430584        1.11423304425637
H           52.49569761600273       45.07690472960206        2.16879586155537
H           53.01963626988595       45.62996272478649        0.55629215514830
C           50.36281814368703       46.49739721052832       -0.07222372063692
H           50.81235920543473       47.06340340092195        0.74715620364588
C           49.84714264027345       47.16949050104726       -1.09256315932429
H           49.40589763585589       46.64605031925756       -1.93207103826893
H           49.86479603894720       48.25588363130802       -1.12201304529497
C           45.13430780210268       45.45876457327461       -1.55902560116751
H           45.44776258148774       46.00205573729659       -2.46317396604855
H           45.51651619327138       46.01959089411235       -0.69284179521576
H           44.03887145541565       45.47427214044348       -1.52063986225414
C           43.45931712532020       42.77916696287733       -2.35016434132845
H           43.20284613584214       43.63521554637523       -2.98770906949981
H           42.79675704891569       42.80847076743092       -1.47213026896319
H           43.23078717441609       41.86410498183015       -2.91464289307221
O           49.62473801029794       40.63401610906838       -2.72999852987821
H           49.26070099443002       39.82988843603258       -3.09278053224374
H           50.26899401026351       41.13803704734460       -3.19320548989322
C           45.38482977948417       42.54335738627478        4.42817374715522
H           45.89564759545286       42.62036735200527        5.39634828592951
H           44.45984359881260       41.96958924815873        4.56964319701524
H           45.12991685401066       43.55174242940271        4.08701253955120
N           46.73985737395127       40.59772718921158        3.59690230329473
H           46.55510531591530       40.01878361150147        4.39812768037556
C           46.26708342739466       41.87295710749164        3.42380700644188
C           47.48064768713780       40.26651547083198        2.52736508930780
H           47.98116734350943       39.31708485496699        2.41826605201138
N           47.51112641510203       41.26375616580920        1.66093789565844
C           46.76521897847823       42.28272574583191        2.22111625572138
H           46.66049120470142       43.22895851066207        1.72035798724479
78
 energy: -116.030081135963 gnorm: 0.048527766398 xtb: 6.7.1 (edcfbbe)
Fe          48.57178321342845       41.09846583200195       -0.39074090926610
N           47.62785320018752       39.38658214640054       -0.94453730553354
N           50.15139643723816       39.94771511248152        0.34073520098503
N           49.65692711458585       42.80176507221637       -0.05948440887282
N           47.05544900686659       42.21669090626447       -1.25307676663822
C           46.45120246706426       39.30983137333592       -1.63618437915792
C           46.19725094842999       37.92043210826666       -2.00765703109617
C           47.23735626546114       37.18523080075445       -1.51318798472173
C           48.12277713053613       38.11722090463765       -0.84519635865442
C           50.22877572285623       38.58816237599417        0.36822036577570
C           51.43009364421319       38.16839720967955        1.05550969185834
C           52.08102630991699       39.31655413453093        1.44100793137955
C           51.26465929739317       40.42847768403220        0.95439941396814
C           50.89137500543572       42.86416009515462        0.51706898842389
C           51.34535476333091       44.24385826806330        0.56260062669982
C           50.34742352942570       45.00933435659387        0.00942599727271
C           49.28559980755655       44.07489421219024       -0.37815502958327
C           46.96809528069914       43.57357957526509       -1.21147767328106
C           45.63205609305525       43.99147517861852       -1.59044347299038
C           44.94585342418981       42.86928037976142       -1.90873803410357
C           45.85198629206431       41.75082523377682       -1.69462454604734
C           45.60489048404501       40.38609750595416       -1.91590831186080
H           44.64663467820792       40.12205016640132       -2.35177459134003
C           49.29885516594400       37.73068692487399       -0.21303561832813
H           49.52295432111099       36.67082607868852       -0.19019799943498
C           51.60498185803468       41.77759461945453        1.01498122940817
H           52.55013116172145       42.00840613836510        1.48486555934825
C           48.03306759476644       44.42556636236874       -0.87746817169116
H           47.85922658405596       45.48667739801554       -0.99991077935324
C           47.47860077077394       35.71313137148077       -1.60814127283867
H           46.68304262313109       35.22188593062803       -2.16016634644868
H           47.52430363186537       35.26663437244806       -0.61524506190521
H           48.42242751826684       35.50265410005556       -2.11157189631370
C           45.00401235902193       37.39126436394329       -2.73278420900757
H           44.58525450700707       38.13101387773861       -3.40715772070109
H           44.23096668567786       37.10503776721531       -2.01742092391338
H           45.25792953772353       36.50745853679327       -3.31530189440509
C           51.86171064049422       36.76586447852570        1.33670056120382
H           52.51107469875392       36.39624158929207        0.54201289257462
H           51.01308938552340       36.09158049165666        1.41763593531347
H           52.41976859095418       36.72081159024293        2.26990434481101
C           53.32221751726790       39.39806050640592        2.18277000633633
H           54.03258717008922       38.58176275893904        2.07100390687092
C           53.62221529321017       40.39934606968242        3.00518996751035
H           52.89822979978466       41.16086568789145        3.22435732371382
H           54.58237623778205       40.49077784265921        3.48450203288483
C           52.63768783384219       44.75153886857728        1.12223953372245
H           53.41511879479820       43.99264603223711        1.10854292425004
H           52.49629337806658       45.06972687569915        2.15676097718331
H           52.99782632314169       45.61098357426285        0.55867549882107
C           50.34804451235707       46.46070531623713       -0.08610819984732
H           50.81319637136301       47.00463728538619        0.73356648969145
C           49.84438044690285       47.15754634956424       -1.09918209633867
H           49.41124674160530       46.66204312822110       -1.94777695239336
H           49.86387029129479       48.23538896060625       -1.12148403842856
C           45.14138051390422       45.41643864255575       -1.56944508744887
H           45.45417528965207       45.96904131055796       -2.45968120871149
H           45.52155449390436       45.97106914101845       -0.70805493862339
H           44.05423967200097       45.45328948370292       -1.52632781223801
C           43.50232919997960       42.78562530684374       -2.33916634566707
H           43.23153623321546       43.62871361443174       -2.97553261157591
H           42.83059901436620       42.80729125821221       -1.47540776422035
H           43.27520573946084       41.87518665601367       -2.89427005959742
O           49.59031836161931       40.65244369965588       -2.66372700497021
H           49.26590643437758       39.84876855505075       -3.07441747209087
H           50.25279866997321       41.13302703569442       -3.16801324102489
C           45.39712261429526       42.54108772849062        4.41556075792520
H           45.89606658872520       42.61882471845959        5.38110066202375
H           44.47589861318045       41.97650751052384        4.56057651030260
H           45.13803524657460       43.53980014972221        4.08194730774767
N           46.74114208396211       40.59962904068261        3.59105853878492
H           46.55681275525971       40.01778905457420        4.39376709230593
C           46.27538527500859       41.87480707970976        3.41220809773824
C           47.48549209671303       40.27442850587891        2.50910277324366
H           47.97858092188948       39.32954164254885        2.40262925887403
N           47.52951832106076       41.25884537615315        1.63710596950807
C           46.78002807189063       42.26688938276654        2.20014857466021
H           46.66436532646544       43.21050922622086        1.70630058754307
78
 energy: -116.038894725780 gnorm: 0.027694219376 xtb: 6.7.1 (edcfbbe)
Fe          48.60022941179815       41.09175209715349       -0.44399030306414
N           47.62996076720676       39.39722180909547       -0.94697427038171
N           50.13492678846404       39.96000755294579        0.35463181133267
N           49.64840947099072       42.79081767805402       -0.06861182123122
N           47.06057846903204       42.20811456010625       -1.22363801370902
C           46.44898274326710       39.31554915009217       -1.62257505465421
C           46.18836065367205       37.93098080537320       -1.99065539391905
C           47.23075633078429       37.19570101133035       -1.50284580196800
C           48.12059532275021       38.13025869109162       -0.84605521911309
C           50.21692859820986       38.60319203373853        0.37935899637179
C           51.41811039724296       38.18323505202954        1.06051143012683
C           52.06489665286475       39.33329111640428        1.45076813463332
C           51.24900889846374       40.43909357859035        0.96091116280227
C           50.87931997745421       42.85899960702883        0.50577857789201
C           51.32725917536941       44.23464491232531        0.56730684597461
C           50.32896595627729       44.99709116712145        0.01195444513116
C           49.27340609801172       44.06329243264494       -0.37135929601261
C           46.97508866629932       43.56295403988086       -1.19196347297726
C           45.64555804740140       43.98497857465809       -1.58781106344731
C           44.95438998188730       42.85323543701234       -1.89404233877702
C           45.86365217487103       41.74064217196440       -1.67023655176247
C           45.60760801328993       40.38836205591442       -1.90229742810192
H           44.65426629641198       40.13596175379811       -2.35063758909039
C           49.29146545119691       37.74762385782387       -0.20870288410911
H           49.51457001055033       36.68995509739692       -0.18635956169697
C           51.60169733898932       41.78183197428761        0.99957895781174
H           52.56212798742563       42.01764593712328        1.43439522000623
C           48.02499346947948       44.41953655514780       -0.86162862133373
H           47.84174658268694       45.47903514580097       -0.97475055174990
C           47.47134689064087       35.72735275564134       -1.60331533188316
H           46.67619405570194       35.23591276419909       -2.15614776508267
H           47.51987326051891       35.27709917800208       -0.61223442670656
H           48.41569074052715       35.51938901336654       -2.10673494675412
C           45.00215021297612       37.40870200244233       -2.72603189086576
H           44.58888063187920       38.14799113890333       -3.40507848673033
H           44.22165323206288       37.11837619690439       -2.02047194292397
H           45.26559926876483       36.52602680817515       -3.30572962358369
C           51.85152790111965       36.78146842256945        1.33123855934786
H           52.49860054772027       36.41002341108903        0.53481822493330
H           51.00244556350924       36.10781661131049        1.41261097718034
H           52.41144542909928       36.73177884645226        2.26292749892382
C           53.30846907556005       39.42074887265733        2.17522126876616
H           54.01217513523012       38.60528630902609        2.02461951824748
C           53.62710835758102       40.39778576503779        3.02379938901068
H           52.91984643324036       41.16895480401104        3.27109516134427
H           54.58200445720360       40.44936335659120        3.52051643047534
C           52.61951871597706       44.73792722763523        1.11919452548592
H           53.39553967448047       43.97786760843850        1.09787055983331
H           52.49102404195201       45.05830409448598        2.15527803828180
H           52.97218455396681       45.59660376134399        0.55081961486525
C           50.33310765141876       46.43844923958033       -0.09920338845731
H           50.81307471499775       46.96587576135666        0.72073044506990
C           49.83800170508013       47.14755379262731       -1.10910844512117
H           49.41115236430500       46.66906664688291       -1.97259112312756
H           49.86852930140142       48.22386124806228       -1.12264242184635
C           45.15276018239525       45.39793425705655       -1.57854745727997
H           45.47138020075388       45.93882819509071       -2.47068726393933
H           45.53638428128734       45.93682852934348       -0.71285384326576
H           44.06645609851240       45.42677377269524       -1.53682635370110
C           43.52472017942071       42.77478612153769       -2.33222775814159
H           43.26802520695206       43.62099147655026       -2.96777056766417
H           42.85802574441478       42.79799387538596       -1.46749983842797
H           43.31749229934815       41.86255262321733       -2.88552099402717
O           49.54902629893048       40.68826323327045       -2.59612007720119
H           49.26382836872224       39.87490659882778       -3.02406305090902
H           50.23008942912772       41.14309673552685       -3.10489515560982
C           45.41416075627150       42.53964752510956        4.39323720409979
H           45.91163525601895       42.61684392851068        5.35973742348127
H           44.49283900489077       41.97589891109192        4.54007471237449
H           45.15306418632035       43.53804704460794        4.06122491463129
N           46.75253271754330       40.59654743890194        3.57216138745876
H           46.56663822975094       40.01578209682391        4.37533551616406
C           46.28957475137267       41.87333012595747        3.38911924931179
C           47.49632744624946       40.27130555234493        2.48896361218114
H           47.98465106016874       39.32554043975158        2.37937796287428
N           47.54292850792294       41.25259380444815        1.62060366159793
C           46.79342238432354       42.25865549672983        2.17476451494875
H           46.67003376003761       43.19826072449427        1.67690143737654
78
 energy: -116.043545923733 gnorm: 0.018662684224 xtb: 6.7.1 (edcfbbe)
Fe          48.60539091709396       41.08795064933093       -0.44970207160542
N           47.63554979234908       39.41249903541583       -0.94852047232561
N           50.11791696912125       39.97803526825258        0.34877957160089
N           49.64317211484862       42.77171437065668       -0.08683085955665
N           47.08173409989708       42.19044245082659       -1.20278745407782
C           46.44926772850190       39.32319511085713       -1.61103734414335
C           46.18117690337546       37.94373579413696       -1.97101100905950
C           47.22397904825383       37.20987015652889       -1.49059242786677
C           48.11926803602890       38.14431472889801       -0.84509688552611
C           50.20261745900603       38.62137877201310        0.38326320745624
C           51.40151827810651       38.20419307703487        1.06301849546059
C           52.04613309584599       39.35370182391231        1.44996351930627
C           51.23235588667227       40.45243131220528        0.95808070956743
C           50.87125761561352       42.85031291164088        0.49209362500402
C           51.30985094343967       44.22214105920182        0.56542670486399
C           50.31050424495275       44.97829712932489        0.01025908374090
C           49.26503758270295       44.04530628418371       -0.37341846608709
C           46.99000390870551       43.54461645016440       -1.17550741152216
C           45.66508706309726       43.96730883313441       -1.57423934907229
C           44.97530549513718       42.83274677492096       -1.88309103187024
C           45.88429133135930       41.72692312914216       -1.64873449267952
C           45.60964615925817       40.38983057843083       -1.88918033051345
H           44.65687859584863       40.15187138738928       -2.34180899229471
C           49.28424555509189       37.76358590430231       -0.20460344572224
H           49.50613894977315       36.70718343734109       -0.17876807789750
C           51.60333702910798       41.78419237682505        0.98445843363739
H           52.56914270962692       42.01753212387310        1.40498091305208
C           48.01881850585909       44.41099010336627       -0.84661005595004
H           47.82260151713019       45.46953372201586       -0.94337322929765
C           47.46360343005258       35.74191182828147       -1.59444397785856
H           46.66646627814627       35.25422360784566       -2.14955472957802
H           47.51257458602228       35.28805968978682       -0.60427442334422
H           48.40846572750164       35.53839768348256       -2.10019897532840
C           44.99654552314004       37.42937614615929       -2.71652095169955
H           44.59608244885025       38.17399203335499       -3.39930233802198
H           44.20497492884692       37.13987211587205       -2.02238454030699
H           45.26799455570492       36.54821776510067       -3.29618927190292
C           51.83595878342378       36.80075862586619        1.32710352329911
H           52.47825782624958       36.43313198498226        0.52381641736772
H           50.98427955424877       36.12882593131288        1.40797421921513
H           52.40109943757067       36.74687035904397        2.25616087759692
C           53.29228494516440       39.44030197953860        2.17430781820051
H           53.99376380192960       38.63109483285788        1.98558425018169
C           53.62273372506901       40.39146164609121        3.04652005276220
H           52.93846421836765       41.18402759088796        3.30206484806120
H           54.57958988422448       40.40975200912978        3.54261940971067
C           52.60225097900892       44.72408631305138        1.11436506468741
H           53.37550303760150       43.96045986100258        1.08412187656984
H           52.48160267139638       45.04136691348234        2.15273428279092
H           52.94807759428127       45.58317964742920        0.54179689514903
C           50.31749994501828       46.41955482415342       -0.11281786081747
H           50.80417370230773       46.93637240284201        0.70845509698428
C           49.83426943201220       47.13421233203364       -1.12364555848532
H           49.39571988082116       46.67036541464695       -1.99081745723431
H           49.87813349080685       48.21043986067873       -1.12933127728596
C           45.16969683441071       45.37344516866317       -1.58401303995207
H           45.49400581936149       45.90350650646795       -2.47984718446468
H           45.55017114636049       45.91268317779660       -0.71903552112255
H           44.08284376430754       45.39793033752423       -1.55000031620416
C           43.55340261931029       42.75648563386924       -2.32559549069567
H           43.30559158608796       43.60515015010733       -2.96114967154784
H           42.88439801073259       42.77891525693133       -1.46323658111079
H           43.35779116745062       41.84391151983159       -2.88015133651562
O           49.50134448312776       40.75330550900396       -2.55092494052611
H           49.27444531885634       39.91037786708921       -2.96266887131693
H           50.22615233467486       41.15677439606896       -3.04817846842442
C           45.43086715008102       42.53930535536446        4.37011815463647