78
 energy: -116.057596979554 gnorm: 0.000057918723 xtb: 6.7.1 (edcfbbe)
Fe          12.02734838152015       -0.63118926943573       19.09262181397840
N           13.27261780171347        0.53254211728323       20.12443365308640
N           12.88628623318350       -0.06352847452823       17.38414704853904
N           10.70837347402407       -1.74755729478710       18.06418501106596
N           11.13309768211122       -1.18311350876947       20.80824059879453
C           13.33469608458201        0.67747920873354       21.47343271261315
C           14.37126313009875        1.61847282462309       21.84094229953449
C           14.93553684556264        2.03726714441615       20.67770302762186
C           14.23881604100026        1.34214416097766       19.61627882703274
C           13.91641055609035        0.81218309182786       17.24245823793299
C           14.29617008492189        0.94072792802560       15.85818005341660
C           13.47174933347240        0.10386314829526       15.15451185649865
C           12.58941092595122       -0.50255533424789       16.13426918819110
C           10.70971393401040       -1.96719124607965       16.72030380029035
C            9.63169737412666       -2.84223419875557       16.34639889979702
C            8.94715992879119       -3.13029308112695       17.49778117964819
C            9.66303456963705       -2.46031421832849       18.56439992085121
C           10.08956038698992       -2.04669858681785       20.94673453918809
C            9.79664405157194       -2.27348975736931       22.34384182131743
C           10.69040808372199       -1.52677678386266       23.04734919638774
C           11.51730785328464       -0.85483383155127       22.07090136113717
C           12.53605266093224        0.02208993102725       22.39156848664306
H           12.71898801260420        0.21170093886398       23.43809037307502
C           14.54696187273351        1.48083486470698       18.27810052336790
H           15.35044770108657        2.15433579484503       18.02101243842455
C           11.59636979207830       -1.40761757156553       15.81724017148193
H           11.48772950309377       -1.69143181434859       14.78170618690571
C            9.38542495877321       -2.62952510087896       19.90945088878918
H            8.57999880518910       -3.29895904418446       20.16750710790827
C           16.04323606070112        3.01045978072490       20.46034314404756
H           16.88232853745576        2.53321509036361       19.95296534091115
H           16.39876534442479        3.40978113188778       21.40701822642612
H           15.70418269555993        3.84230346403429       19.84288401509017
C           14.69508975303742        2.00773346981552       23.24263205209494
H           14.99351959204955        1.13500645885445       23.82418151799559
H           13.82630588270733        2.45476227337409       23.72615822748444
H           15.50826234433879        2.72903280236152       23.26603484149643
C           15.33695744889879        1.86948691521157       15.33716663928796
H           16.33430889429459        1.43761978669164       15.43908595280438
H           15.31959370672075        2.81096694210290       15.88382758706227
H           15.15877959811787        2.07545247442926       14.28374422897277
C           13.41484041368320       -0.13863744493889       13.73031877787451
H           12.42931643853663       -0.34509003114891       13.32942979631973
C           14.45584709706847       -0.13410679515585       12.90366129182615
H           15.46309465747817        0.01802178079902       13.25035856448272
H           14.33688642541632       -0.30932481117100       11.84723052130222
C            9.32104361993815       -3.27007652563690       14.95402190269416
H           10.19298004747892       -3.73302263877048       14.49155788713326
H            9.03172758361168       -2.41319861549827       14.34431243330787
H            8.50113223777029       -3.98395580578029       14.94616283689392
C            7.74919263414556       -3.93462064467845       17.61835216669025
H            7.69984845900077       -4.79283623401247       16.95661618708347
C            6.72126978943404       -3.68224899717162       18.42109630472715
H            6.69164361715764       -2.81503876242636       19.05892092657168
H            5.85758087203381       -4.32562834718730       18.45003902175437
C            8.70862836190445       -3.16287704488351       22.83995089829113
H            8.85330010232767       -4.18240002375113       22.48185968241919
H            7.73727924791790       -2.81697960872411       22.48529331621824
H            8.68897194097431       -3.18075279074589       23.92682361723261
C           10.84382472303338       -1.37925664573006       24.52227265738032
H           11.84180747863568       -1.68622579058600       24.83565345837654
H           10.11561919900459       -1.98997502980125       25.05032096516918
H           10.70098871382159       -0.34034166872897       24.82092652632111
C           14.30757706594154       -5.67650030272731       19.72617316467558
H           14.97524412257943       -5.83724357315092       20.57258825304033
H           14.75058961210864       -6.14699306658001       18.84849902360737
H           13.35730853674799       -6.15713747041830       19.93629117092270
N           15.11471559562675       -3.36478554642817       19.20081086694515
H           16.08627424615492       -3.61411248580637       19.11400717065219
C           14.09013753749219       -4.22630897499746       19.49348635518449
C           14.58229496394928       -2.13128836501128       19.04821340562118
H           15.15151356112930       -1.25529197405285       18.81362961197724
N           13.28375752529031       -2.15984050506479       19.22667964990991
C           12.96290731594819       -3.45589636642868       19.50464615187495
H           11.95021770369948       -3.74588906394693       19.69292763271540
O           10.46611924714175        1.04849585567181       18.98595669849281
H            9.80408327475559        0.62521307807442       18.42836285790467
H           10.13683010990791        1.01499860972520       19.89071524926552
