78
 energy: -115.883979001527 gnorm: 0.312766327290 xtb: 6.7.1 (edcfbbe)
Fe          12.02700000000000       -0.68100000000000       19.22000000000000
N           13.27400000000000        0.49100000000000       20.19500000000000
N           12.92600000000000       -0.07900000000000       17.49200000000000
N           10.76700000000000       -1.90900000000000       18.09300000000000
N           11.26800000000000       -1.24300000000000       20.91000000000000
C           13.10800000000000        0.89800000000000       21.48200000000000
C           14.33500000000000        1.55300000000000       21.81900000000000
C           14.91600000000000        2.03100000000000       20.70300000000000
C           14.07900000000000        1.47600000000000       19.65300000000000
C           13.91100000000000        0.82900000000000       17.31400000000000
C           14.32700000000000        0.81900000000000       15.89100000000000
C           13.44900000000000        0.06000000000000       15.21500000000000
C           12.67600000000000       -0.64300000000000       16.20800000000000
C           10.72900000000000       -2.06800000000000       16.68200000000000
C            9.48400000000000       -2.70900000000000       16.31300000000000
C            8.93200000000000       -3.10400000000000       17.48200000000000
C            9.68700000000000       -2.54900000000000       18.59900000000000
C           10.12800000000000       -2.03400000000000       20.99600000000000
C            9.77300000000000       -2.22600000000000       22.41500000000000
C           10.56500000000000       -1.43400000000000       23.11400000000000
C           11.55600000000000       -0.84400000000000       22.19200000000000
C           12.33700000000000        0.27000000000000       22.44200000000000
H           12.34500000000000        0.67600000000000       23.45400000000000
C           14.59300000000000        1.35200000000000       18.39500000000000
H           15.61600000000000        1.69000000000000       18.23100000000000
C           11.55400000000000       -1.36200000000000       15.81400000000000
H           11.30400000000000       -1.37300000000000       14.75300000000000
C            9.39500000000000       -2.57600000000000       19.95100000000000
H            8.47400000000000       -3.08700000000000       20.23000000000000
C           16.08500000000000        3.05100000000000       20.43500000000000
H           16.96900000000000        2.50600000000000       20.04100000000000
H           16.36700000000000        3.55700000000000       21.38300000000000
H           15.76200000000000        3.80400000000000       19.68500000000000
C           14.70200000000000        1.71700000000000       23.30000000000000
H           14.77800000000000        0.71600000000000       23.77600000000000
H           13.91400000000000        2.30400000000000       23.81900000000000
H           15.68100000000000        2.23400000000000       23.38900000000000
C           15.40400000000000        1.71500000000000       15.19400000000000
H           16.19300000000000        1.98600000000000       15.92800000000000
H           14.93000000000000        2.64500000000000       14.81500000000000
H           15.87000000000000        1.15700000000000       14.35400000000000
C           13.18600000000000        0.16500000000000       13.68600000000000
H           12.42600000000000        0.84900000000000       13.28200000000000
C           13.85500000000000       -0.54600000000000       12.89700000000000
H           14.62000000000000       -1.23700000000000       13.28000000000000
H           13.68500000000000       -0.48700000000000       11.81200000000000
C            8.93400000000000       -3.01700000000000       14.91000000000000
H            9.27600000000000       -4.02400000000000       14.59000000000000
H            9.30900000000000       -2.26300000000000       14.18600000000000
H            7.82300000000000       -3.00400000000000       14.93100000000000
C            7.72400000000000       -4.02200000000000       17.59200000000000
H            7.77600000000000       -5.08400000000000       17.31300000000000
C            6.59600000000000       -3.51800000000000       18.03300000000000
H            6.53100000000000       -2.45700000000000       18.31500000000000
H            5.70100000000000       -4.15000000000000       18.12600000000000
C            8.71600000000000       -3.22000000000000       22.97200000000000
H            8.65100000000000       -4.10500000000000       22.30400000000000
H            7.72200000000000       -2.72600000000000       23.01300000000000
H            9.01600000000000       -3.55600000000000       23.98800000000000
C           10.38900000000000       -1.19100000000000       24.62200000000000
H           10.65600000000000       -2.11400000000000       25.18000000000000
H            9.33100000000000       -0.93200000000000       24.83900000000000
H           11.05700000000000       -0.36600000000000       24.95000000000000
C           14.97000000000000       -5.56000000000000       19.05100000000000
H           15.11100000000000       -6.09100000000000       20.01700000000000
H           15.90000000000000       -5.65000000000000       18.45100000000000
H           14.12000000000000       -6.02300000000000       18.50600000000000
N           15.58800000000000       -3.31600000000000       19.99500000000000
H           16.49200000000000       -3.59500000000000       20.31800000000000
C           14.67600000000000       -4.11800000000000       19.31300000000000
C           15.01900000000000       -2.13800000000000       20.12200000000000
H           15.49600000000000       -1.28800000000000       20.61000000000000
N           13.79100000000000       -2.14800000000000       19.57000000000000
C           13.56300000000000       -3.39600000000000       19.06200000000000
H           12.63300000000000       -3.65100000000000       18.57100000000000
O           10.40400000000000        0.45600000000000       18.90200000000000
H            9.85100000000000       -0.03700000000000       18.29500000000000
H           10.22300000000000        1.25500000000000       19.24700000000000
78
 energy: -115.977704006114 gnorm: 0.133085537192 xtb: 6.7.1 (edcfbbe)
Fe          12.06452507975999       -0.72315966980119       19.20686468704267
N           13.19499795591354        0.55942385412646       20.17076028066212
N           12.92304310342553       -0.10011101671348       17.46580094017369
N           10.78120397219173       -1.92870273426505       18.07817107313709
N           11.24003433075831       -1.25011128778511       20.90568754393759
C           13.15140931701752        0.84946416986391       21.50615439621271
C           14.32990650575837        1.60767562371820       21.85272535209095
C           14.91518096631652        2.05532607264865       20.71218161305999
C           14.13546342844327        1.43111619793422       19.65203988838071
C           13.94894026088340        0.77481054178056       17.29707560747209
C           14.32875760065295        0.85149719342668       15.88104627854442
C           13.43181172667756        0.09104693472835       15.20624850522461
C           12.63161582823783       -0.59029619926510       16.19477279537002
C           10.70025138933002       -2.02973672918708       16.68830757807214
C            9.49179036148142       -2.73211146507338       16.31687891347751
C            8.92172555732083       -3.12551760189598       17.49039591551843
C            9.69289440653542       -2.55911413989424       18.58689709101742
C           10.13266363170183       -2.06235397202513       20.99491546208103
C            9.76001173858901       -2.23993000482373       22.40387486809922
C           10.56131404579662       -1.43268430800481       23.12327115223190
C           11.50093302034371       -0.81723097485524       22.18235422234210
C           12.33959722231090        0.24595771873546       22.45304839049155
H           12.35086312733909        0.65740612930981       23.45549570863328
C           14.61994407156520        1.34216656630772       18.36766489903701
H           15.61424484726998        1.73207800683910       18.19986877628941
C           11.54039126485951       -1.35490923813420       15.82002588976288
H           11.31609065036425       -1.39568504122736       14.75876975902318
C            9.39933895415837       -2.59636848105262       19.94801379542231
H            8.47636001124330       -3.09369178148579       20.22608845925713
C           16.06893402613161        3.02938232256851       20.44606370001366
H           16.95270272716764        2.50903157718714       20.05161390509642
H           16.35697414733096        3.54566318774678       21.36958770173371
H           15.76085890481784        3.77954180994195       19.70451998396601
C           14.71144921788101        1.73391833176809       23.30275535259551
H           14.78004964343709        0.73801918012344       23.76511154130209
H           13.93257939115157        2.30365638133382       23.82206667295822
H           15.67586122067266        2.23789410244532       23.39638595517914
C           15.39489483840870        1.71381825564855       15.21259387351476
H           16.18337785142056        1.98452766958403       15.92278874241185
H           14.93844042270118        2.63238036112323       14.82301244780624
H           15.85088304032169        1.16757951046226       14.37504361227149
C           13.17919518350788        0.15837393885217       13.71934957317771
H           12.42918372146583        0.84848865965564       13.32837391569416
C           13.87193135645662       -0.56842401236795       12.88330474903442
H           14.62745289360643       -1.24884192170347       13.25438626768890
H           13.70373298252350       -0.50073574219809       11.81178423768009
C            8.94979785683249       -3.01685567958970       14.92799287666697
H            9.27426645554178       -4.01070811757935       14.59276303118111
H            9.30400661737765       -2.27496078472458       14.20121595544960
H            7.85033237517795       -3.00414292395992       14.93799163680294
C            7.72763792480120       -4.00844086229050       17.60373253661489
H            7.79405553531400       -5.05848718018894       17.31213715280921
C            6.58560451115962       -3.51531691596892       18.04068345788350
H            6.51471710459311       -2.46866320364174       18.31709353672452
H            5.69995590464906       -4.13673968620581       18.12908068782324
C            8.72269573143248       -3.20713346706729       22.95634923632681
H            8.65156850860427       -4.09019623768733       22.31090648319525
H            7.73484913586493       -2.73245812260766       23.01210125278080
H            9.01144088513588       -3.54023040630027       23.96308205774014
C           10.40427941232626       -1.19216958102823       24.61101861710486
H           10.65701611296402       -2.10008678354583       25.17437339596013
H            9.35769371028316       -0.93725321981315       24.83154904727608
H           11.04963862917007       -0.37545607068297       24.94946690735981
C           14.97547429973374       -5.56818792117884       19.05156795667421
H           15.11301424920563       -6.09611197216180       20.00358979383811
H           15.89091982984239       -5.66079911459214       18.45535028433594
H           14.13657197214748       -6.01931446972625       18.51230366637208
N           15.57576442412742       -3.32504627966257       19.98603913609861
H           16.48690675281604       -3.59943905968659       20.31298825519864
C           14.68161603768215       -4.13671506590250       19.31732923008811
C           14.99552003558114       -2.12892698191691       20.11365869182043
H           15.47150820638510       -1.28923288962264       20.59843541138567
N           13.78773401589355       -2.13343717110969       19.57015440696209
C           13.57575346820852       -3.38723750648724       19.07096596292649
H           12.65109162173182       -3.64067092805487       18.58032496707748
O           10.41739895896469        0.45906747353019       18.89589889328291
H            9.84069428227159       -0.02213350483690       18.29642906880698
H           10.20366948893213        1.29795665818983       19.25728433124278
78
 energy: -116.012886272578 gnorm: 0.048275245241 xtb: 6.7.1 (edcfbbe)
Fe          12.09885371351050       -0.72920735051558       19.19756130255061
N           13.17424550058329        0.58985301109950       20.16186461007769
N           12.93165288924978       -0.12685390376416       17.43942823799448
N           10.79401058493858       -1.93911404259879       18.06843764548307
N           11.21239616534407       -1.25972713287998       20.89962632463731
C           13.19442868051747        0.80396563137380       21.50959081584583
C           14.32636292128515        1.63676980107094       21.87270941469910
C           14.91743624141469        2.05009466854684       20.71506034104850
C           14.18384337448134        1.37567513258434       19.65416598681470
C           13.98595898624343        0.72139515152913       17.28462567087215
C           14.33142359283269        0.86601312300167       15.87787379378856
C           13.41280755774960        0.12119216267240       15.19514856800543
C           12.58629781963548       -0.53371932975200       16.18122308057215
C           10.68135980098318       -2.00261484297209       16.70149866593263
C            9.50236397378098       -2.75035956740097       16.32766726091211
C            8.91800478809595       -3.14246314189053       17.50241287262402
C            9.70932347635573       -2.57874914525242       18.58132267619062
C           10.13624989783907       -2.09209254250293       20.99322790848350
C            9.75191104483870       -2.25299189999796       22.39004932096644
C           10.54936744782339       -1.42276283640303       23.11730187623662
C           11.44932953721437       -0.79244576201190       22.16483806083137
C           12.34095990539583        0.22732018621526       22.44552536749470
H           12.37214661087955        0.62478508616007       23.45033124482887
C           14.63481534232014        1.33876445897431       18.34543880526253
H           15.59725860653756        1.79918144180111       18.16339106823514
C           11.52685505751644       -1.35065315893344       15.82511418177938
H           11.32761014567186       -1.42887506421509       14.76272904291537
C            9.40984150499934       -2.63210866211425       19.94337086950826
H            8.48329565625403       -3.11949295556004       20.21485522960892
C           16.04541941197768        3.00424536150614       20.46181482061212
H           16.92904020881569        2.49834527803090       20.06676610755646
H           16.34024531835995        3.52744746762154       21.36955335062871
H           15.75055818899557        3.75438136168661       19.72457254310089
C           14.71596113280268        1.76415280737088       23.30170414249529
H           14.78420678973654        0.76974583910250       23.75038285802968
H           13.95239005966236        2.31970204769570       23.84206191360434
H           15.67510838255888        2.25556347673166       23.40583114503142
C           15.38312859635392        1.71066110517086       15.23667520143669
H           16.17267136821652        1.98232130607889       15.93043675499758
H           14.94376548719717        2.62574210579963       14.83684740439404
H           15.83047683259826        1.17370548919124       14.39823219767998
C           13.18822828908729        0.14649575976560       13.74478273161088
H           12.43575465104246        0.83502611846712       13.37098999523718
C           13.88253401697912       -0.57953366807012       12.88169529626886
H           14.63280366934257       -1.26001678329845       13.23584754238232
H           13.71236146212262       -0.51045944647859       11.82062433356574
C            8.96921455687351       -3.01821786063619       14.95089233084037
H            9.28033488724749       -4.00328929771430       14.59960285061245
H            9.31127641606367       -2.28107628685575       14.22646428894956
H            7.87728375304680       -3.00367382360959       14.95632734263810
C            7.73134794096540       -3.98828634118565       17.61974045998446
H            7.81446481531700       -5.02711124917579       17.31122808213839
C            6.57532160436760       -3.51200312415746       18.05282587693374
H            6.49201291621320       -2.47548066943572       18.32803194180658
H            5.69591254401399       -4.12664975620261       18.13248233427532
C            8.73037758241892       -3.19697062837053       22.93770366091843
H            8.64947585375916       -4.08095022747658       22.30942410461080
H            7.74642100135526       -2.73172196377904       23.00425668928068
H            9.01229782725804       -3.52100178033737       23.94046285473398
C           10.41738214785309       -1.19056663004602       24.59126385686412
H           10.66479800877558       -2.08948775802585       25.15803435234949
H            9.38036585705602       -0.93869195176417       24.82475693916349
H           11.05170337944395       -0.38197393675926       24.93881481756751
C           14.97947687649754       -5.57475379018059       19.05237731896949
H           15.11758573352605       -6.10707969894998       19.99207832567503
H           15.88565497266980       -5.67191915086256       18.45798065187572
H           14.14982476147935       -6.02011465024795       18.51482156853295
N           15.55927830754162       -3.32656231360389       19.97940504710674
H           16.47509985623952       -3.59324528413244       20.30970086996796
C           14.68142622553236       -4.14944879538961       19.32261739480199
C           14.96756712053265       -2.11738598628689       20.10132028551105
H           15.44239132622819       -1.28535323782697       20.58370865246718
N           13.77533998653331       -2.12294747917799       19.56164967453768
C           13.58104126774123       -3.38226684062351       19.07497467342380
H           12.66352344636220       -3.63802377126629       18.58428228204298
O           10.43045988244170        0.49468709654320       18.87839461969091
H            9.81397186425028        0.02064671975197       18.30844047949552
H           10.16930259025433        1.33361632514886       19.25872678940111
78
 energy: -116.025323698906 gnorm: 0.035847121559 xtb: 6.7.1 (edcfbbe)
Fe          12.11135685171652       -0.72413438601812       19.18608891616038
N           13.18519073304122        0.58695570191415       20.16051725390975
N           12.94298471781927       -0.14226866166755       17.43119481022163
N           10.80140619713787       -1.94345571266822       18.06904046574306
N           11.18688845568948       -1.25592713191880       20.88646829077366
C           13.21706868070501        0.77270967838297       21.50511831226524
C           14.32147855415385        1.63847780088182       21.87965176159356
C           14.91810040943207        2.02928466139940       20.71719789100228
C           14.21299032410576        1.33319144784981       19.65506223872120
C           14.00740023981106        0.69236936321232       17.28397464407925
C           14.32802964287613        0.86876702274149       15.88269111146307
C           13.39745651612897        0.14262657816216       15.19356942843591
C           12.55928048844442       -0.50016709057679       16.17664288519914
C           10.67782435464576       -1.99220742861777       16.71231708037839
C            9.51483493570584       -2.76229286791246       16.34054690630517
C            8.92509321680275       -3.15200277484496       17.51332622544755
C            9.72858202045078       -2.60157736204644       18.58411323534171
C           10.13677623835700       -2.11586549793261       20.98715188527483
C            9.74747739923770       -2.26055359749856       22.37614526069399
C           10.53524655881146       -1.41135373568890       23.09826168239239
C           11.42132088382838       -0.78117315518650       22.14340376323663
C           12.34857602255743        0.20602990692930       22.43212940676381
H           12.40625240989955        0.57400149212277       23.44749173447762
C           14.64359511298235        1.33392483206257       18.33583368551587
H           15.56681030972113        1.88002859558383       18.12436482996771
C           11.51679426213231       -1.34255538658739       15.82781049352591
H           11.33748207657141       -1.46062579919471       14.76448665694432
C            9.42517095093935       -2.67901487384573       19.93928581990800
H            8.50527415062381       -3.18244119572571       20.20137139209042
C           16.03656230200590        2.98309093825133       20.47767651059370
H           16.91971722533931        2.47690417965375       20.08447196716314
H           16.32094397419079        3.50266762803578       21.38906819336528
H           15.73789230939171        3.73253841717654       19.74299526644170
C           14.71957453511670        1.80062019980055       23.30363553656126
H           14.79787279654264        0.80959865590208       23.75432191859422
H           13.96816446341246        2.35626110792662       23.86195191155308
H           15.67871132834585        2.29585452733860       23.40318964778686
C           15.38158305349568        1.71190605234337       15.25704800330112
H           16.16922349361103        1.97817777495024       15.95395941583789
H           14.94792203255993        2.63106917520436       14.85992052764974
H           15.82422760072499        1.17866934880983       14.41545645775479
C           13.19388282323832        0.13614190952638       13.74920104663842
H           12.43066064169773        0.81741578684608       13.38563223578446
C           13.88741973954780       -0.59041415054441       12.88202333172725
H           14.64548496896689       -1.27144006184050       13.22424116657379
H           13.71915632182963       -0.52569047912605       11.82195730919427
C            8.98862672491927       -3.02362994389317       14.96869450428166
H            9.29921111487338       -4.00542898277788       14.60948906242990
H            9.33147042584419       -2.27991660869659       14.25385060502478
H            7.89846695369209       -3.00777480935696       14.97952099986655
C            7.72858166073443       -3.97330689335608       17.63627563559423
H            7.82055885929202       -5.00516126610737       17.31213675173997
C            6.56684219509374       -3.50842476236453       18.07002818426973
H            6.46909699286486       -2.47546722139464       18.35510679718416
H            5.68730274073496       -4.12298783422028       18.13771268340969
C            8.72727694956065       -3.19509773611848       22.92268966840354
H            8.64028316056303       -4.08231310948890       22.30086924086467
H            7.74606198918410       -2.72445777980988       22.98880086831233
H            9.01080914902108       -3.50738447149159       23.92690083879132
C           10.42785410139061       -1.18426670998989       24.57017908900559
H           10.68333811823537       -2.08556864704385       25.12901163388262
H            9.39618793935553       -0.93258001158162       24.82253431513641
H           11.06783979954393       -0.37931770220324       24.91441602578510
C           14.98244783405380       -5.57904436656754       19.05403300633609
H           15.12424723449057       -6.12084458718705       19.98766986083074
H           15.88788498541789       -5.67640007216997       18.45870680587285
H           14.15745896864479       -6.02742395586116       18.51287892628961
N           15.53989598793004       -3.31794859992539       19.97737919064310
H           16.45732106001926       -3.57339298193086       20.31126647110882
C           14.67289661363096       -4.15476642367368       19.32572369453736
C           14.93758852468874       -2.10690676539619       20.08573837625693
H           15.40579529983570       -1.27071783067620       20.56390269988013
N           13.74951773498545       -2.12620970797608       19.54119439033752
C           13.57062879160906       -3.39132654456293       19.06762216910230
H           12.65963418644420       -3.65507819808550       18.57433324653952
O           10.45346456337225        0.57077157465753       18.83625599883170
H            9.77334963716381        0.08276888438610       18.34032387172395
H           10.13931737846490        1.37648263129748       19.27074587337337
78
 energy: -116.032280291636 gnorm: 0.043683090092 xtb: 6.7.1 (edcfbbe)
Fe          12.11252173331862       -0.71821114922856       19.17040657721161
N           13.19890317494314        0.57859528855824       20.15663542553041
N           12.94955518221861       -0.15005150678906       17.42940437821749
N           10.80473892676179       -1.93776575906245       18.07484235843074
N           11.16338965298129       -1.24927224567210       20.86874785459203
C           13.23428016370498        0.74472971471256       21.50172712963909
C           14.32071178171766        1.62696135787573       21.88200783757546
C           14.92214987942848        2.00460943678035       20.72020847512952
C           14.23251983380728        1.30549076613030       19.65582093809153
C           14.01354233199432        0.68207417003792       17.28493689841414
C           14.32345535542750        0.86987294691908       15.88843480031454
C           13.38870593217973        0.15658911952304       15.19612394544300
C           12.54962434971477       -0.48552862507349       16.17842744995929
C           10.68262699561277       -1.99006540707976       16.72318774251185
C            9.52817724840786       -2.77066856291396       16.35275743854214
C            8.93626741608028       -3.15890191639990       17.52264534419404
C            9.74345511434864       -2.61452520878026       18.58910109033709
C           10.13247047148148       -2.13134267762756       20.98031844269722
C            9.74554492740916       -2.26849927267478       22.36441525294576
C           10.52452847391431       -1.40496206905297       23.07786737980192
C           11.40301356353188       -0.77620813184386       22.12051169511978
C           12.36155048647343        0.17928344781508       22.41936186932589
H           12.44697953561614        0.51050426656405       23.44680336810270
C           14.64058014503499        1.34086629918334       18.32923905503359
H           15.52929712114326        1.92447279630655       18.09824696813899
C           11.51792753605696       -1.34097216703860       15.83215405725482
H           11.34536385843777       -1.47951025286999       14.77280340812752
C            9.43880126512708       -2.72291199259325       19.93650827227352
H            8.53994923538220       -3.26930453536229       20.18949578035593
C           16.03757838934673        2.96445122413766       20.49476983503708
H           16.92141784533476        2.45903301624186       20.10374202446834
H           16.30882407938973        3.47491418954072       21.41486048558324
H           15.73577892825232        3.71670518892484       19.76507347909230
C           14.72218086032809        1.83691011113901       23.30295261826693
H           14.81882573724027        0.85868593280681       23.77748027075364
H           13.97672435284290        2.40187022010997       23.86079066913966
H           15.67750194695123        2.34838291353569       23.38157530877012
C           15.38445502706774        1.71534873751334       15.27534130832071
H           16.16727952838529        1.97075326301752       15.98263039740547
H           14.95468384919921        2.64125059208405       14.88826950900675
H           15.82857165749997        1.18863402381341       14.43134737579405
C           13.19513901017605        0.12657437816710       13.74887801107353
H           12.41600526435582        0.79266956240297       13.38800408721290
C           13.89345953595903       -0.59764003362734       12.88710899188509
H           14.66217813595073       -1.27558379028774       13.22035039312307
H           13.72073849956054       -0.54865028345662       11.82584096274576
C            9.00810786860077       -3.03000567288332       14.98152141367583
H            9.32481761341807       -4.00882948718569       14.61936463157629
H            9.35333875386926       -2.27957159952172       14.27519341512868
H            7.91849022268915       -3.01794854077325       14.99369565030489
C            7.72627822173074       -3.96307246748762       17.64945566025021
H            7.81898923944183       -4.99057115739215       17.31287015150285
C            6.56420169450294       -3.50527016517431       18.08805393048752
H            6.45398678604872       -2.47723848818856       18.39351707169068
H            5.68452420143422       -4.12242501736845       18.14826880823668
C            8.71952331696588       -3.19609281269756       22.91182673187883
H            8.62765476112494       -4.08515486785050       22.29311637149483
H            7.74152576985852       -2.71639411079351       22.97145996937049
H            9.00051818558967       -3.50190013394075       23.91815219579140
C           10.43960375600567       -1.17711840211405       24.54984153159007
H           10.70722571732506       -2.08198601492302       25.09847306904579
H            9.41392964970955       -0.92318368286717       24.82364910865041
H           11.08994998851310       -0.37418290014779       24.88217151833735
C           14.98586466185255       -5.58143786082630       19.05599862180202
H           15.13252021068474       -6.12927362235016       19.98654863068265
H           15.89336160164555       -5.67224458185940       18.46057867900060
H           14.16622681889266       -6.03780194602890       18.51089672993188