78
 energy: -116.058162803669 gnorm: 0.000123018144 xtb: 6.7.1 (edcfbbe)
Fe           0.74528931032407        5.79182683249565       13.72814754644333
N            1.72116565674828        7.47785056459390       14.13167578239595
N            1.33577631084417        5.88435496258327       11.82409854363179
N           -0.18272022379517        4.03937390869669       13.35554073856383
N            0.17401233668701        5.66533334402971       15.65236065405032
C            1.82688365376625        8.09934070065999       15.33429399251376
C            2.63365063729424        9.29681797916281       15.22464949407230
C            3.00675787875781        9.38523476328517       13.92142559938046
C            2.42513754570178        8.23891388240784       13.25427014586394
C            2.06609274889530        6.87539141895454       11.24814365845391
C            2.27044930891325        6.61582021146437        9.84565784949115
C            1.64699564001396        5.42604331006040        9.57926530545118
C            1.06192504643288        4.99423122016112       10.83512216131179
C           -0.23884665148765        3.38467577020249       12.16059103992371
C           -1.01805855183842        2.18057231556903       12.27236973322254
C           -1.45536097687776        2.12364195750234       13.57094557162092
C           -0.91444111274663        3.29628582317586       14.22721430749695
C           -0.63055242664659        4.71870631878082       16.20783009491626
C           -0.87051619880818        5.00812060482055       17.60385425395294
C           -0.19068909487501        6.15398017574784       17.87906702367567
C            0.45037989126881        6.55175233806707       16.64635725891323
C            1.23568452969239        7.68161674736629       16.51226575967685
H            1.38954228361822        8.28845751815514       17.39151331867533
C            2.58076117188445        7.97695680646236       11.90918864482104
H            3.16639836765874        8.67571534455795       11.33164713280930
C            0.34720739176663        3.82145144854235       10.98426848939468
H            0.22178627614228        3.20025674605384       10.11060874430109
C           -1.14217567278216        3.61428601572530       15.55378359918907
H           -1.77250317864491        2.95021708409904       16.12471537560735
C            3.84439011579083       10.41570911717395       13.24553484100023
H            4.16997882636350       11.17487362523965       13.95251013963105
H            3.28207335551343       10.90595780171813       12.45037124548567
H            4.72860353442432        9.95792002249826       12.80193370033518
C            2.95029994399616       10.20444287319714       16.36364952974143
H            3.47296483504162        9.66178746356840       17.15149875923798
H            2.03684466748029       10.62141364506322       16.78902676141894
H            3.58197652747087       11.02720096847921       16.03811704532783
C            2.96997163189091        7.52670045306442        8.89838232130482
H            4.05102370195917        7.39038817522185        8.95554792247363
H            2.74880014634436        8.56738073008331        9.13060106374838
H            2.65163408010410        7.32137083595615        7.87820267577327
C            1.53155072021475        4.71304488674151        8.32648395622904
H            0.60872799207635        4.16208538780038        8.18294432457727
C            2.45363518926824        4.67917509599174        7.36969337351065
H            3.40752768927588        5.16495404244726        7.47651228634208
H            2.29397782184700        4.13669652960997        6.45251898106025
C           -1.22031085104229        1.18538877138046       11.18327738876857
H           -0.32073036508353        1.08881674467702       10.57714287601528
H           -2.03921477556408        1.48476260200966       10.52661596475524
H           -1.46042082730249        0.21246330569738       11.60746609722321
C           -2.25937332482316        1.11304184826186       14.22108423256186
H           -2.04022751244595        0.94366220079687       15.26907749119315
C           -3.22491360512294        0.40421719730629       13.64482354944596
H           -3.51967727485455        0.56093626204440       12.62197668529426
H           -3.77480532706473       -0.34504807559261       14.18984374120663
C           -1.70804669517039        4.16717810573327       18.50505838398329
H           -1.29751704829383        3.15990362569243       18.58285490140574
H           -2.72465961207755        4.08830120653203       18.11935202539096
H           -1.75263438785542        4.59569152848220       19.50328146130203
C           -0.08273730031281        6.90393918518673       19.16239136862168
H            0.95909992233184        6.98280462704638       19.47380070093516
H           -0.63849073864410        6.40313241742686       19.95127158227345
H           -0.47901970735747        7.91363973532885       19.05142802321048
O            2.56627166245533        4.52403536251205       14.30739133743220
H            2.39288770937061        4.41036138340905       15.24829534088779
H            2.34207078762389        3.69286359238107       13.87503791361272
C           -3.59111998738188        9.29469654816118       13.71944045701427
H           -4.57829604241769        8.87347734075998       13.90925742659526
H           -3.67761918829822       10.01106654234000       12.90255434413323
H           -3.26007746711963        9.82017697602880       14.60962299225334
N           -2.77633657036128        7.39843764540030       12.30148333339776
H           -3.54040844420082        7.42581209858492       11.64646985935350
C           -2.61765670475991        8.22537326030209       13.38244358639123
C           -1.72734677855132        6.54583975834237       12.28022064460317
H           -1.58833875304177        5.78376632397352       11.54142175388929
N           -0.91457592389100        6.78272286661346       13.28119682338799
C           -1.45472242824218        7.82505918842447       13.97555954446059
H           -0.97406511748102        8.21315205753359       14.84945742204609
