87
 energy: -128.467811873905 gnorm: 0.000022541506 xtb: 6.7.1 (edcfbbe)
Fe           2.59832846720205       -4.53764217568135       35.17238680840532
N            0.78983540302087       -5.29065508114462       35.59695008735814
N            3.46520932646712       -6.03785441093112       36.18436322312732
N            4.40606948860575       -3.78093938813493       34.73805840169734
N            1.72924951296574       -3.03651051752240       34.16654562923016
C           -0.41551376114035       -4.79205520505763       35.21931205392677
C           -1.49181269775090       -5.62234396293864       35.71477753828863
C           -0.90359840780968       -6.63541719320268       36.40484888074694
C            0.52349511048535       -6.41034699103257       36.31892354234270
C            2.83657990585031       -7.05453576166586       36.83204284239199
C            3.79129263835312       -7.92880462521994       37.46335583120045
C            5.03001830701568       -7.41298000696453       37.18473621090747
C            4.79529093458409       -6.23421790215568       36.37196717444242
C            5.61299719590325       -4.28516950864320       35.11464400216703
C            6.68873619512420       -3.46673076996767       34.61760948592806
C            6.10099337227748       -2.43941752857513       33.92663208293157
C            4.67098210009147       -2.66640393164038       34.01354921159294
C            2.35533117434290       -2.01080522131417       33.53473318115174
C            1.39070865112319       -1.11659019205265       32.93169633897891
C            0.16425762623716       -1.63177328490738       33.21381571209546
C            0.39804897788186       -2.83175755883385       33.98698028527721
C           -0.61180968187934       -3.64606156979704       34.46830877546007
H           -1.63016193842112       -3.36263107595536       34.24678153171006
C            1.46534593203405       -7.23566427925140       36.89912733576937
H            1.10245812550584       -8.08662154871213       37.45567498829200
C            5.80234588979608       -5.42056212210824       35.88630862214416
H            6.81965472572912       -5.68740798498773       36.13159788889030
C            3.72252022711854       -1.82704677217764       33.45871012220938
H            4.07553976823255       -0.95696234866001       32.92604733413290
C           -1.53456239133637       -7.77775114759143       37.12529707237950
H           -2.61848789034346       -7.73293767017476       37.04981154595612
H           -1.26352990694338       -7.76136418053524       38.18122966366375
H           -1.20055237085387       -8.72732428211773       36.70599152419758
C           -2.93946698665750       -5.35537668553449       35.47694816162535
H           -3.15851285189129       -5.34155418399963       34.40866529305010
H           -3.22493819261488       -4.38808325379473       35.89165764572804
H           -3.55571063611571       -6.12120428909834       35.94175636096892
C            3.45593266913942       -9.17873478467046       38.20039866690982
H            2.62522066677571       -9.69604942906867       37.72268855187507
H            3.16894137221387       -8.95959053396643       39.23044866094403
H            4.31660789730878       -9.84453617490986       38.21821653876556
C            6.33408266250690       -7.90805331955702       37.56359989620894
H            7.12828381420252       -7.73411059316322       36.84617937306177
C            6.62482876826359       -8.53463520976954       38.69975651019855
H            5.89116330188129       -8.69389638151400       39.47053924962250
H            7.62055484219806       -8.88984671834329       38.90850901792506
C            8.13970514236896       -3.76241162797518       34.78050314106364
H            8.32522279376946       -4.83365456358297       34.71489607595159
H            8.50405037291988       -3.41645551618025       35.74967383438626
H            8.71181770472690       -3.26270580896423       34.00129224619976
C            6.72099189682987       -1.34662340375797       33.21199197815796
H            6.19001970673978       -1.00338016165740       32.33140988197300
C            7.85656633508145       -0.74406730108501       33.55121479396529
H            8.40279700467008       -1.00778322473073       34.43999545124839
H            8.26739256829624        0.05787419074586       32.96012660553964
C            1.74491663226644        0.11128377337470       32.16444540641530
H            2.35298743115743       -0.14152324752226       31.29530001748818
H            2.31657316592407        0.79997933424280       32.78698807160510
H            0.85058456246311        0.62430579296022       31.81855288906169
C           -1.18561678457835       -1.11972571418342       32.84061771091969
H           -1.10501928636503       -0.20446780567862       32.25918903030390
H           -1.77615320121983       -0.90776883561666       33.73251970107774
H           -1.72678208751276       -1.85644635008181       32.24575726691626
C            1.11747719921676       -1.17383605173046       39.39427074327591
H            1.62422635692409       -0.21243216758602       39.47906166545470
H            1.03531265696881       -1.60484544747204       40.39216566060694
H            0.11838422655915       -1.00708370855796       39.00392973673822
N            3.15273611794939       -2.47178051782489       38.72681330478849
H            3.71434550372532       -2.19251060559559       39.51430533900479
C            1.86048163058592       -2.08345433837868       38.48551958153342
C            3.52888233632664       -3.28998502056256       37.71832573822332
H            4.49449073445551       -3.74654209935555       37.64584395313553
N            2.55558689370056       -3.44335229717316       36.85503326860238
C            1.51116175449276       -2.69958003013122       37.31838291906649
H            0.58492857438118       -2.65789282523572       36.78424078370377
C            4.10365890176811       -7.86885652147179       30.93475804641279
H            4.20250539821046       -7.42168067889890       29.94551767358820
H            3.59312369607263       -8.82591927302103       30.82668393667710
H            5.09623759099631       -8.04746663545530       31.33627144959265
N            2.06400022793659       -6.57560766993545       31.59879570116337
H            1.51069928632313       -6.84250315567912       30.80120876769328
C            3.35302524322706       -6.97005945566122       31.84788466683602
C            1.68002932388681       -5.76892361470117       32.61393871717173
H            0.71506147969148       -5.31097037566751       32.68439580794717
N            2.64504702973367       -5.62891718126759       33.48856276852099
C            3.69206098377091       -6.36982078984246       33.02622668923932
H            4.61323555890911       -6.42145131208013       33.56821012290684
