87
 energy: -128.254062145668 gnorm: 0.454430569895 xtb: 6.7.1 (edcfbbe)
Fe           2.62100000000000       -4.43200000000000       35.35100000000000
N            0.92300000000000       -5.50300000000000       35.58000000000000
N            3.54400000000000       -6.11300000000000       36.38300000000000
N            4.50900000000000       -3.79600000000000       34.84900000000000
N            1.74700000000000       -2.92200000000000       34.28700000000000
C           -0.31400000000000       -4.87000000000000       35.21500000000000
C           -1.37500000000000       -5.90500000000000       35.37500000000000
C           -0.77300000000000       -7.02500000000000       35.87900000000000
C            0.63200000000000       -6.66200000000000       36.23000000000000
C            2.95600000000000       -7.26200000000000       36.75600000000000
C            3.80300000000000       -8.01000000000000       37.51300000000000
C            5.13200000000000       -7.34500000000000       37.51499999999999
C            4.87700000000000       -6.15900000000000       36.65499999999999
C            5.69100000000000       -4.20800000000000       35.35299999999999
C            6.68300000000000       -3.54100000000000       34.76300000000000
C            6.00000000000000       -2.59000000000000       33.87200000000000
C            4.70800000000000       -2.66100000000000       34.13500000000000
C            2.38500000000000       -2.05500000000000       33.47800000000000
C            1.39900000000000       -0.99700000000000       33.10500000000000
C            0.19500000000000       -1.38600000000000       33.52600000000000
C            0.43100000000000       -2.66000000000000       34.29500000000000
C           -0.53400000000000       -3.44300000000000       34.79199999999999
H           -1.53500000000000       -3.02400000000000       34.89600000000000
C            1.48400000000000       -7.49000000000000       36.84099999999999
H            1.10100000000000       -8.33900000000000       37.40599999999999
C            5.86200000000000       -5.32600000000000       36.31800000000000
H            6.84200000000000       -5.47200000000000       36.77300000000000
C            3.70300000000000       -1.89200000000000       33.35500000000000
H            4.06400000000000       -1.15200000000000       32.64100000000000
C           -1.42300000000000       -8.32500000000000       36.32200000000000
H           -2.43100000000000       -8.41100000000000       35.86300000000000
H           -1.52900000000000       -8.33400000000000       37.42800000000000
H           -0.80300000000000       -9.18600000000000       35.99300000000000
C           -2.84100000000000       -5.69700000000000       34.93500000000000
H           -2.89200000000000       -4.87100000000000       34.19300000000000
H           -3.46300000000000       -5.42900000000000       35.81600000000000
H           -3.22800000000000       -6.62700000000000       34.46600000000000
C            3.49900000000000       -9.27100000000000       38.33800000000000
H            2.94700000000000      -10.00200000000000       37.70900000000000
H            2.87100000000000       -9.00400000000000       39.21500000000000
H            4.44900000000000       -9.73500000000000       38.67900000000000
C            6.29800000000000       -7.90100000000000       37.79400000000000
H            6.93500000000000       -8.22700000000000       36.95900000000000
C            6.84400000000000       -8.13300000000000       39.18500000000000
H            6.26300000000000       -7.83300000000000       40.06999999999999
H            7.82800000000000       -8.60400000000000       39.32700000000000
C            8.20000000000000       -3.71700000000000       34.86000000000000
H            8.43000000000000       -4.65900000000000       35.40199999999999
H            8.64200000000000       -2.86300000000000       35.41699999999999
H            8.63700000000000       -3.77200000000000       33.84000000000000
C            6.70100000000000       -1.81800000000000       32.82400000000000
H            6.37500000000000       -1.90600000000000       31.77700000000000
C            7.72700000000000       -1.00500000000000       33.08500000000000
H            8.09300000000000       -0.88100000000000       34.11499999999999
H            8.21900000000000       -0.44900000000000       32.27300000000000
C            1.72200000000000        0.20700000000000       32.25800000000000
H            1.90400000000000       -0.11500000000000       31.21000000000000
H            2.63700000000000        0.70400000000000       32.64600000000000
H            0.86800000000000        0.91700000000000       32.27400000000000
C           -1.15800000000000       -0.86100000000000       33.01600000000000
H           -1.06000000000000       -0.55500000000000       31.95300000000000
H           -1.47000000000000        0.02000000000000       33.61700000000000
H           -1.92400000000000       -1.66200000000000       33.09100000000000
C            1.38100000000000       -0.64300000000000       39.41099999999999
H            2.17200000000000        0.07700000000000       39.71099999999999
H            0.91000000000000       -1.06200000000000       40.32600000000000
H            0.62000000000000       -0.10900000000000       38.80199999999999
N            2.96600000000000       -2.57400000000000       39.08600000000000
H            3.36000000000000       -2.49300000000000       40.00100000000000
C            1.99900000000000       -1.76400000000000       38.59300000000000
C            3.30500000000000       -3.49300000000000       38.15500000000000
H            4.04600000000000       -4.27900000000000       38.29700000000000
N            2.57200000000000       -3.25400000000000       37.05500000000000
C            1.76100000000000       -2.18700000000000       37.28700000000000
H            1.08900000000000       -1.81400000000000       36.52500000000000
C            3.64100000000000       -7.72000000000000       30.72800000000000
H            3.60900000000000       -7.16800000000000       29.76500000000000
H            3.09300000000000       -8.67900000000000       30.61199999999999
H            4.70100000000000       -7.91900000000000       30.99400000000000
N            1.69700000000000       -6.48700000000000       31.73999999999999
H            1.05500000000000       -6.73700000000000       31.01500000000000
C            2.99300000000000       -6.89100000000000       31.80400000000000
C            1.43600000000000       -5.70900000000000       32.80100000000000
H            0.47500000000000       -5.23800000000000       33.00300000000000
N            2.56100000000000       -5.62500000000000       33.54800000000000
C            3.52400000000000       -6.33200000000000       32.96000000000000
H            4.51500000000000       -6.39500000000000       33.39100000000000
87
 energy: -128.384610391297 gnorm: 0.235175350915 xtb: 6.7.1 (edcfbbe)
Fe           2.62223207762811       -4.46377794616282       35.34395906399806
N            0.88239285362357       -5.43738992804178       35.61623506956781
N            3.52869844447537       -6.10710352801790       36.35208138920537
N            4.46999033303858       -3.77975472423778       34.89478760340542
N            1.74711250589888       -2.94371260732243       34.28817975938134
C           -0.33048633361422       -4.86613550658664       35.22709158964035
C           -1.37850840316790       -5.88985609808917       35.37383860181962
C           -0.79376095995419       -7.00159090242674       35.91065995468793
C            0.61830174226342       -6.65761624815573       36.17850029688794
C            2.93144924452027       -7.23041758671656       36.80955656182601
C            3.82528446394490       -8.01414499318585       37.54525242882895
C            5.09521973218938       -7.36001794609777       37.51207982882886
C            4.85514314702266       -6.17106559660193       36.66102172684668
C            5.67790590981120       -4.21783314215226       35.35926331796163
C            6.70281733743266       -3.52165724591421       34.74223533954552
C            6.05313747244807       -2.59401286406694       33.86380649455546
C            4.69796255148237       -2.70218766238803       34.08588544107398
C            2.38201631233274       -2.02530472486496       33.52154921895477
C            1.39752602111659       -1.01007628580721       33.07933377412029
C            0.18664163289919       -1.40865757829470       33.51636076529073
C            0.42937451736249       -2.66928461340834       34.28948938016131
C           -0.53998904081294       -3.48792687666515       34.80150251279608
H           -1.53605529682595       -3.06201220963725       34.88882720462743
C            1.50080218166811       -7.47985032552039       36.81700962898998
H            1.12235070871265       -8.32897025394812       37.38336460634704
C            5.84967913804779       -5.30947238298215       36.30369923943393
H            6.83132647515247       -5.46282803408863       36.75024894291288
C            3.72199122902122       -1.90496755285913       33.36749432773792
H            4.08047253331122       -1.15983852553641       32.66319041831174
C           -1.42269283414017       -8.31163652190089       36.31726545156232
H           -2.41997306456021       -8.41025019847751       35.86978393310179
H           -1.52815803671403       -8.33796977157476       37.41171956007848
H           -0.81124175370393       -9.16972864590077       35.99941298646824
C           -2.82317327845238       -5.69763163903515       34.93634884624892
H           -2.89052874478359       -4.88340700912846       34.20294479491110
H           -3.45096034515629       -5.43525925140906       35.80151647722668
H           -3.22092249130088       -6.61360959554656       34.47666192395563
C            3.50676044192838       -9.26651757514519       38.33075605858730
H            2.95425930374650       -9.99181855826091       37.71619474658524
H            2.88467907615113       -9.00915033516046       39.20183203394343
H            4.43854811383097       -9.72898637889896       38.67708730756602
C            6.33206553203803       -7.91626127707448       37.84745969655503
H            6.95738092366459       -8.22087162997244       36.99826898661840
C            6.82694303981979       -8.13143232333350       39.13815298182795
H            6.26751764665604       -7.83710361140551       40.02832644171570
H            7.79981581261084       -8.59325980068082       39.30675765594196
C            8.19350089556323       -3.71590941148244       34.85821669483438
H            8.42625063268399       -4.64599240484842       35.39408736140975
H            8.64075296570023       -2.87597045281147       35.40756860944801
H            8.63538848643658       -3.76677817607077       33.85460081615076
C            6.71769195660835       -1.80736297844524       32.82864568498291
H            6.37172043783286       -1.90689280020459       31.79498713599796
C            7.73498247898057       -0.99928062060165       33.08305915637105
H            8.09531745595051       -0.87385502668124       34.09944520629308
H            8.22335157773875       -0.45035346293358       32.28433574660688
C            1.72165538205255        0.20001259825671       32.25631478525925
H            1.90569516431682       -0.10642759720715       31.21738293974098
H            2.62280530029230        0.69914451026329       32.63903288499728
H            0.88248902099515        0.90804571494553       32.27279155160596
C           -1.14771048437899       -0.86618398249426       33.03108507611446
H           -1.05945713653903       -0.56134855985134       31.97649440848510
H           -1.46972270111493        0.00840044459710       33.61313967161691
H           -1.91457850715470       -1.64822889995795       33.09473326295185
C            1.38641766296853       -0.64822509691150       39.40403236464484
H            2.16134827357445        0.06963821142142       39.70804392448593
H            0.91553127802697       -1.05444350386969       40.31139667204937
H            0.63131054789960       -0.11899605952040       38.81113972907088
N            2.96173069755196       -2.57295050180384       39.08632961269476
H            3.36043529976236       -2.49382108327427       40.00556663588883
C            1.99490529684438       -1.75619711538377       38.58849741064928
C            3.29524593181081       -3.48614738061077       38.14595620182503
H            4.03132345726253       -4.26436951057630       38.28802873512708
N            2.57191242491397       -3.26955524871161       37.05353666623231
C            1.76903755823995       -2.19514019049661       37.29903307113239
H            1.09920963888658       -1.82064196836473       36.54222637717944
C            3.63986993110771       -7.71984070746708       30.72946029026873
H            3.61105265918346       -7.17788998355787       29.77365070909944
H            3.10319752034644       -8.67092863244398       30.61038644329511
H            4.68537657381435       -7.91877446569443       30.98987139830567
N            1.70556045036230       -6.48825890461746       31.73858016000129
H            1.05608097898427       -6.73857916759823       31.01259860968174
C            3.00480573702885       -6.89419200382818       31.80000080494191
C            1.44966609725185       -5.70722316985713       32.80332423766918
H            0.49479228023636       -5.24475741824450       33.00329031784020
N            2.55048608687727       -5.60972637153457       33.54540848247278
C            3.51621020376362       -6.33178265199471       32.95137325343143
H            4.50201261467387       -6.39585795684992       33.38235252850647
87
 energy: -128.434073252886 gnorm: 0.084175823601 xtb: 6.7.1 (edcfbbe)
Fe           2.62725939621250       -4.49864609361043       35.33304881272165
N            0.84966176368707       -5.38302345208791       35.63832618402576
N            3.51583554810729       -6.09718357982871       36.32839184784561
N            4.43559493498989       -3.77236872644131       34.91953008624780
N            1.74817621845943       -2.96115552071704       34.29487895563854
C           -0.33828146250651       -4.85685192577918       35.24728765789575
C           -1.37792372713223       -5.87115897335091       35.37802560147839
C           -0.79534378949440       -6.97895258342377       35.92769990016824
C            0.60556907087259       -6.63708302802520       36.14684974438800
C            2.90169166186051       -7.19309861141224       36.85425052616904
C            3.84930928809033       -8.00667735525541       37.56566712866193
C            5.05816407118696       -7.37587218456864       37.49074018331717
C            4.83641842531653       -6.18188584146342       36.66574546801368
C            5.65476512086493       -4.22534124909374       35.36955390664308
C            6.70403756966664       -3.50132825467908       34.72694029385597
C            6.09132290342324       -2.61164377674110       33.86413236077058
C            4.68360079305219       -2.75023341532107       34.03912520637875
C            2.37920007707778       -2.00297646056881       33.56453268575492
C            1.40424649110070       -1.02707243422267       33.07650336439120
C            0.18270535307570       -1.44130681176329       33.51164573227199
C            0.42561483864845       -2.68055254669257       34.28181367001172
C           -0.54099965895468       -3.53356057093011       34.80829569255982
H           -1.53918620067502       -3.10896642030172       34.86420179610607
C            1.52257161904947       -7.44562549920516       36.80442753071185
H            1.14644110788457       -8.31219633929247       37.34489670524140
C            5.82831402690582       -5.28728923618485       36.28294773291459
H            6.81413625474670       -5.45407376334826       36.71388364719964
C            3.74387652295482       -1.93676675892043       33.38168281581121
H            4.10234069696667       -1.17592720249495       32.69589606582358
C           -1.41785534785967       -8.29037052144953       36.31196710269501
H           -2.40833345166933       -8.40080792491759       35.87269473974350
H           -1.52653179613562       -8.33895760394976       37.39876570940740
H           -0.81163440750403       -9.14396131932801       36.00034347743112
C           -2.80506639524317       -5.69526332249119       34.94272547442603
H           -2.88615863179460       -4.89189150588413       34.21213047075982
H           -3.44150627779611       -5.44014443310968       35.79419302805255
H           -3.20544260385627       -6.60411798268022       34.48934816855588
C            3.51632868841160       -9.25329252442618       38.32328521760135
H            2.96448973105794       -9.97348782271691       37.71637824571916
H            2.89541276035701       -9.01229853216142       39.19132423832163
H            4.43077979985530       -9.72528551638619       38.67595902617101
C            6.35469916493803       -7.91482273197872       37.89470918352196
H            6.96091321894167       -8.21230789341939       37.03206110127385
C            6.80437349761020       -8.11727539280550       39.08802732243511
H            6.26379514859854       -7.84227904867691       39.98864116841530
H            7.76816177364950       -8.57835385109858       39.28347845125617
C            8.17800382956638       -3.71546155710733       34.85760095315494
H            8.41479882457492       -4.63680189507531       35.38746696822750
H            8.63762295252519       -2.88821651846223       35.40139131030820
H            8.63376126838773       -3.76031011850267       33.86764879680046
C            6.72737949813900       -1.80509217986210       32.83801824772006
H            6.35857596901848       -1.90803691666797       31.81793496841236
C            7.74640954620464       -0.99681653271760       33.08190846477017
H            8.10501377152203       -0.86466417965259       34.08706954184467
H            8.22832597287119       -0.44457427080602       32.29485209959022
C            1.72215145062432        0.18470407746812       32.25918651984071
H            1.90877897709178       -0.10087191950368       31.22243052569448
H            2.61157373287336        0.68924530244291       32.63655910381436
H            0.89408720521718        0.89303006548478       32.27483166411634
C           -1.13430366412270       -0.88101685586734       33.04629993120484
H           -1.05437211253094       -0.56887974050696       32.00003357067578
H           -1.45844046323220       -0.00991323604260       33.61883737927577
H           -1.91100368678160       -1.64091583271895       33.10294864532868
C            1.39195083772619       -0.65350823094620       39.39483580462119
H            2.15553468460064        0.06237108227624       39.70295088514302
H            0.92157905023247       -1.05202330510231       40.29643142980581
H            0.63985857860016       -0.12798846153307       38.81421488911165
N            2.96072782195722       -2.57384015137069       39.08908288402189
H            3.36336069108977       -2.49680883027961       40.00961305193161
C            1.99160755111792       -1.75070438866333       38.58291621283441
C            3.28320522394324       -3.48199182633293       38.14006287055820
H            4.01754285066402       -4.25209392909281       38.27976524313970
N            2.57078925429075       -3.28612195068249       37.05571232397013
C            1.77315822388791       -2.20549231792859       37.31033637716687
H            1.10548028986175       -1.82815437598619       36.55926544698489
C            3.64003611593103       -7.71978997367990       30.73200361320242
H            3.61246678963366       -7.18619347352723       29.78057497409941
H            3.11079089063381       -8.66498996163650       30.61067090517781
H            4.67538659417899       -7.92063250215603       30.98732449049237
N            1.71209414204293       -6.48871020094889       31.73554125982958
H            1.05661302887547       -6.73812268845930       31.01093439661800
C            3.01710689729660       -6.89480224734082       31.79813099771348
C            1.46534647725138       -5.70561167993486       32.80610426309761
H            0.51476246539650       -5.24998374730151       33.00253299529808
N            2.54103658560222       -5.59960516624944       33.54884992937973
C            3.51201226921322       -6.33018255634412       32.94339204925370
H            4.49264582702487       -6.39669026547757       33.37378058696418
87
 energy: -128.446392148127 gnorm: 0.031189032896 xtb: 6.7.1 (edcfbbe)
Fe           2.62638127819998       -4.51180023714270       35.32666587117453
N            0.83549031305099       -5.34172537530537       35.68009823394527
N            3.50187012493067       -6.07000594465450       36.33717973485982
N            4.42265078410960       -3.78529014836045       34.90760875097698
N            1.74535427598423       -2.97432113194801       34.30681805944042
C           -0.35299521848782       -4.84261504324026       35.27018738881038
C           -1.38955684721244       -5.84797328787464       35.40460382082287
C           -0.79937067266933       -6.94888658553708       35.95146943474261
C            0.59552407956608       -6.60860807133011       36.15049361083886
C            2.88073192383559       -7.15211308031319       36.88335739465684
C            3.83808589075804       -7.97989053681679       37.58495565283189
C            5.04868895555556       -7.36892932111368       37.45629589130815
C            4.82078864869716       -6.17126694064422       36.65804699192781
C            5.63732691669371       -4.22860751500166       35.36506921711355
C            6.69999036984446       -3.50111282187496       34.72169068146378
C            6.10199030525582       -2.63096192337882       33.85207701726329
C            4.67995411258434       -2.78540378041137       34.01367049792977
C            2.38042550646746       -2.00499505479509       33.59482027206661
C            1.41073218829332       -1.05274021264293       33.08037408228584
C            0.18537225914287       -1.47644186602790       33.50397664851006
C            0.41802045574849       -2.69949843929517       34.27084704794304
C           -0.55657862751617       -3.55113361639241       34.78773175203635
H           -1.57044997674847       -3.15939592606050       34.78653297354878
C            1.52208930501340       -7.41815277007051       36.79261085233943
H            1.15459523016787       -8.31135661043628       37.28811102941040
C            5.80998714579175       -5.27875894101632       36.26134264398567
H            6.80413735773281       -5.46015646760233       36.65971642296795
C            3.75052954540945       -1.95640635933485       33.39961715110744
H            4.12168369441359       -1.18649553854608       32.73384210968815
C           -1.41469935749673       -8.26451583177388       36.31323926013457
H           -2.40126799764695       -8.37527215649342       35.86868943320100
H           -1.52661621815147       -8.33548285626468       37.39731374425980
H           -0.79840055552057       -9.10363173219763       35.99045570972831
C           -2.80385348506820       -5.68760658971965       34.95299478605587
H           -2.88448854461144       -4.89196472770368       34.21626361713757
H           -3.44657016855090       -5.43734993288225       35.79803105190553
H           -3.18381191114056       -6.60560790492405       34.50582711594112
C            3.51969288607435       -9.23905012828832       38.32168951694771
H            2.97159487390784       -9.94722478751079       37.70080498882751
H            2.89997428871984       -9.01359698295263       39.19167081783480
H            4.43274558863135       -9.71700915733194       38.66958405363015
C            6.35654710504791       -7.90438129109692       37.86230738775267
H            6.97391070930192       -8.18790970511662       37.00970725001413
C            6.79886818268216       -8.11847713009062       39.10228389625691
H            6.24308602356052       -7.84588916114864       39.98758763776988
H            7.76464322277848       -8.56514804733458       39.29707770102504
C            8.16992106247737       -3.71803638716670       34.86355179576007
H            8.39581994136808       -4.64253059601698       35.38740266737975
H            8.63305301597118       -2.89721427970217       35.41132622574801
H            8.63395133059927       -3.75380253059534       33.87763472766844
C            6.73755004355778       -1.80115852814906       32.84326937967777
H            6.34591967930566       -1.89343093610988       31.83399565074545
C            7.75939388776650       -0.99076501456824       33.08173278255992
H            8.13101099375974       -0.85754464915823       34.08125675670172
H            8.23473061943158       -0.42698706152901       32.29891913479923
C            1.72540235873895        0.15974405200735       32.26381716158597
H            1.91749711044269       -0.11002346152768       31.22394547478980
H            2.60861619956488        0.66932236659913       32.64453096335078
H            0.89734517707802        0.86559696534807       32.28143400980616
C           -1.12765339981404       -0.90182868991955       33.06626197482169
H           -1.05008159768716       -0.57929398208598       32.02604108393287
H           -1.43201627263900       -0.03406699186453       33.65246462443879
H           -1.91676806481742       -1.64716288694024       33.12487786992666
C            1.39831381119257       -0.65749474675713       39.38513135975191
H            2.15939069863597        0.05902549728359       39.69299374231968
H            0.92689840267474       -1.05402097821863       40.28473867862130
H            0.64562826686140       -0.13592143328043       38.80429185664364
N            2.96364128827157       -2.58004817913314       39.09263057542713
H            3.36922605161792       -2.50197235406569       40.01158447339272
C            1.99433755915726       -1.75654825476826       38.58130799340503
C            3.27683354176991       -3.48956555503972       38.14272002650499
H            4.01372300170844       -4.25393643658901       38.27647965267931
N            2.56199442645002       -3.30437735056711       37.06233847767849
C            1.76766884758659       -2.22174991615685       37.31720894600227
H            1.09804927835002       -1.84421526778259       36.57248898599014
C            3.64462204561693       -7.72342387594384       30.73268111988925
H            3.61770544618799       -7.19593815495092       29.77923272543146
H            3.11480409835839       -8.66721202110671       30.61394000012496
H            4.67812034461731       -7.92889078124518       30.98657236237243
N            1.72098077365526       -6.48530751438907       31.72947334302666
H            1.06338847835896       -6.73545839858447       31.00779041756294
C            3.02733221287688       -6.89170685198459       31.79475454864260
C            1.47906440851553       -5.70231809975675       32.80210374631694
H            0.52997873165282       -5.24959038821203       32.99886661219345
N            2.55007644840133       -5.59217733476674       33.54671567303131
C            3.52043497716940       -6.32584246142716       32.93692006643069
H            4.49829080807939       -6.39696486118026       33.36623312844888
87
 energy: -128.452287351059 gnorm: 0.020525046503 xtb: 6.7.1 (edcfbbe)
Fe           2.62169365776956       -4.51588677459069       35.32829312395962
N            0.83212408183373       -5.32419775483295       35.69119050062806
N            3.49419408005635       -6.04270316740844       36.34869999544579
N            4.41540844630198       -3.80296996089458       34.88586732167975
N            1.74561232457702       -2.98775028438519       34.31812768007871
C           -0.36199099083022       -4.82921855307022       35.28335951100777
C           -1.39858276662094       -5.82666655625505       35.43010930786274
C           -0.80007651679462       -6.92259656576048       35.97322626363447
C            0.58923958358643       -6.57948922016403       36.16147976354944
C            2.86839631158444       -7.11474418691455       36.90535055576606
C            3.82438397850941       -7.94923740296205       37.60491230108313
C            5.04489487359994       -7.35325765632943       37.44340413551276
C            4.81303068738247       -6.16457764931958       36.64756413298839
C            5.62479961589102       -4.23811348002561       35.34971794711365
C            6.69745854574578       -3.50513790829392       34.71581681031785
C            6.10479913349591       -2.64445695243194       33.83755729709633
C            4.67604994167322       -2.81231108300761       33.99546013019526
C            2.38046218137818       -2.01707249448955       33.61235713658575
C            1.41916954704882       -1.07653236432657       33.08728316107590
C            0.19007890865058       -1.50945364151434       33.49233240533520
C            0.41452849959883       -2.71661619242198       34.25825410258926
C           -0.57148478687300       -3.55848032429833       34.75677382200277
H           -1.60163177664876       -3.20428021355436       34.68388979510842
C            1.51850459621559       -7.39269584525925       36.78792719354139
H            1.15699656508118       -8.31107628751050       37.23842486977991
C            5.80445119142881       -5.28689964864593       36.23361264726775
H            6.80589989734940       -5.48248419712218       36.60113134339744
C            3.75032040392749       -1.97005363613175       33.41054606914246
H            4.13121898267580       -1.19026782680636       32.76366321028186
C           -1.41039379449699       -8.24019231105252       36.31886791821618
H           -2.39377175452793       -8.34450380164205       35.86526863039357