77
 energy: -118.995074395208 gnorm: 0.000044873378 xtb: 6.7.1 (edcfbbe)
Fe          27.99841243158034       31.95997393432901        9.97361282258889
N           26.18728540088262       32.80744916098585       10.26728360054135
N           28.74349055317289       33.08568589374361       11.48064839330121
N           29.75843967313092       30.98335531609464        9.79847213563396
N           27.18314481913310       30.66608628779841        8.65726621721848
C           25.04361745695914       32.51157639240265        9.60160231700112
C           23.97887911517364       33.40284984967181       10.00926142843126
C           24.51448103486156       34.24226547008858       10.93656408317255
C           25.90063593857490       33.85382769014944       11.08640224751640
C           28.10608113036228       34.07941984299836       12.15408279464490
C           29.00166733094883       34.70528072112383       13.09383444572703
C           30.20871465422345       34.07024284789043       12.95853891579705
C           30.01954931687843       33.05865042341753       11.93666448388686
C           30.89896203577715       31.28530445690536       10.47095040865732
C           31.99207386382360       30.47756322335903        9.98999507284366
C           31.48690272167202       29.69843775999027        8.98491773763236
C           30.07598573497342       30.02449868380122        8.89497151954180
C           27.82151054171837       29.67214771926650        7.98541075086581
C           26.89163776515542       28.96697100560796        7.13062184592286
C           25.68435863340888       29.57374035599408        7.29386567849736
C           25.88777217549008       30.63679260856584        8.25374274118933
C           24.88900550612695       31.49407830040277        8.67791521469704
H           23.90919958807538       31.36461915073276        8.24402193516740
C           26.78241308181734       34.44972835673611       11.96921422766604
H           26.41144200833278       35.27685490857694       12.55574581718113
C           31.02372328123894       32.22731887407235       11.47643140020833
H           32.00360722977587       32.34781357702693       11.91286581581213
C           29.16887466268303       29.37058958760234        8.07868641215848
H           29.54260525961736       28.55923169012547        7.47307723414145
C           23.87151242303969       35.36085086470288       11.68165167900976
H           22.83055559607908       35.47220461283688       11.38954899829120
H           24.38766202255930       36.29846421191813       11.47752930448095
H           23.90922636946985       35.18076468142054       12.75645045058555
C           22.59081440950315       33.35347197452710        9.47039402680129
H           22.13731131262438       32.38141821281425        9.66512012747788
H           22.59616179660397       33.51486096200652        8.39279617408296
H           21.97027822374906       34.11937827856804        9.92842121425586
C           28.62640005274976       35.78733436429303       14.04447903380560
H           27.61539162794694       35.63966171146523       14.42139126137091
H           28.66439731536286       36.76057465575202       13.55364476882204
H           29.31571005459043       35.80032213521634       14.88632803231157
C           31.44547245594507       34.29452106117723       13.67565056096230
H           32.04981255704853       33.41232524500954       13.85221634934166
C           31.88031767856699       35.47256669166551       14.10974936205608
H           31.34707839860399       36.38644302549151       13.91615585757218
H           32.80937063789061       35.56584492924908       14.64703369168194
C           33.39450015586661       30.55800098545082       10.48240956406727
H           33.43626037523105       30.38806768829689       11.55861991613036
H           33.80974092829228       31.54499720460450       10.27936289522705
H           34.01699465400564       29.81749212094228        9.98677277634898
C           32.21492568891946       28.75216360361140        8.16246594780454
H           32.97122060406316       28.17254130092775        8.68084696689075
C           32.05178815221947       28.58715413639566        6.85533985639931
H           31.35652903702860       29.18321210373498        6.28937221154388
H           32.63547349614107       27.87173317690288        6.30012687625983
C           27.26269778837045       27.81947187339111        6.25625687523564
H           27.69645282957631       27.01169790195958        6.84564424288206
H           27.99932968550864       28.12918014603084        5.51524551540648
H           26.39166582812666       27.43422388270961        5.73249981261728
C           24.37759489269507       29.26333684899459        6.64900941772386
H           23.62280326385482       29.03410829589543        7.40128686342771
H           24.46868138743213       28.40952842592872        5.98260154799597
H           24.02843902534475       30.11627876587634        6.06744140231445
O           28.33400883172598       33.08077560487191        8.77676408504269
O           29.50317373212709       33.60188675533656        8.74012853906217
C           27.11005968323023       27.14061743708431       13.22133473787540
H           26.08443814666565       26.80692391142773       13.37860427936529
H           27.64615838860598       27.05008812262444       14.16598981330970
H           27.57977620490639       26.48936298064638       12.49087576780403
N           26.61540041889848       29.58545220907710       13.44949435299058
H           26.17354247034611       29.51363087080852       14.35174918500213
C           27.13925709074196       28.54114995991673       12.73106669869509
C           26.80375628298431       30.71178796440685       12.72841669148400
H           26.49282100706789       31.68666368135781       13.04440344746532
N           27.41152884077581       30.44802665768475       11.60222685764169
C           27.62858969667693       29.10365763334085       11.58607937738042
H           28.11844553466108       28.63542604218485       10.75733488805943
