77
 energy: -118.895988355505 gnorm: 0.272578398382 xtb: 6.7.1 (edcfbbe)
Fe          27.95300000000000       31.87700000000000       10.06500000000000
N           26.11900000000000       32.80300000000000       10.35000000000000
N           28.75100000000000       33.11000000000000       11.50300000000000
N           29.79000000000000       30.91800000000000        9.90700000000000
N           27.13100000000000       30.60900000000000        8.71500000000000
C           24.94700000000000       32.46700000000000        9.70500000000000
C           23.90200000000000       33.36300000000000       10.16700000000000
C           24.44300000000000       34.20100000000000       11.05500000000000
C           25.84800000000000       33.86600000000000       11.19200000000000
C           28.09100000000000       34.13800000000000       12.16000000000000
C           29.03400000000000       34.79300000000000       13.03800000000000
C           30.21300000000000       34.14800000000000       12.92500000000000
C           30.06000000000000       33.09100000000000       11.94900000000000
C           30.94800000000000       31.25900000000000       10.57400000000000
C           32.03100000000000       30.44300000000000       10.05400000000000
C           31.53000000000000       29.65200000000000        9.10600000000000
C           30.10600000000000       29.93700000000000        8.98900000000000
C           27.87000000000000       29.67200000000000        7.98700000000000
C           27.00800000000000       29.06400000000000        7.00900000000000
C           25.64300000000000       29.70600000000000        7.19900000000000
C           25.80500000000000       30.66000000000000        8.27600000000000
C           24.79799999999999       31.46000000000000        8.77400000000000
H           23.79100000000000       31.28000000000000        8.39700000000000
C           26.76400000000000       34.49900000000000       12.00900000000000
H           26.41200000000000       35.35599999999999       12.58400000000000
C           31.05200000000000       32.21100000000000       11.56100000000000
H           32.00500000000000       32.27700000000000       12.08600000000000
C           29.20100000000000       29.34700000000000        8.13800000000000
H           29.57700000000000       28.53500000000000        7.51600000000000
C           23.72400000000000       35.33400000000000       11.82400000000000
H           22.62700000000000       35.24900000000000       11.67000000000000
H           24.06500000000000       36.32100000000000       11.44400000000000
H           23.94300000000000       35.24900000000000       12.91000000000000
C           22.42800000000000       33.31800000000000        9.71200000000000
H           21.85300000000000       32.64600000000000       10.38400000000000
H           22.36700000000000       32.92700000000000        8.67400000000000
H           21.98900000000000       34.33700000000000        9.76000000000000
C           28.65000000000000       36.00300000000000       13.93400000000000
H           27.63800000000000       35.84000000000000       14.36300000000000
H           28.63800000000000       36.93200000000000       13.32500000000000
H           29.38200000000000       36.10200000000000       14.76400000000000
C           31.57600000000000       34.42700000000000       13.60600000000000
H           32.27900000000000       33.60000000000000       13.78800000000000
C           31.93900000000000       35.65199999999999       13.98800000000000
H           31.26800000000000       36.50900000000000       13.82600000000000
H           32.91300000000000       35.82100000000000       14.47000000000000
C           33.51100000000000       30.49100000000000       10.51200000000000
H           33.70900000000000       29.65500000000000       11.21600000000000
H           33.71300000000000       31.45300000000000       11.03000000000000
H           34.17999999999999       30.38600000000000        9.63100000000000
C           32.36900000000000       28.63200000000000        8.29400000000000
H           33.41500000000000       28.44400000000000        8.57700000000000
C           31.88000000000000       27.95400000000000        7.24700000000000
H           30.98699999999999       28.31500000000000        6.71600000000000
H           32.36600000000000       27.02800000000000        6.90500000000000
C           27.37900000000000       27.97900000000000        5.98100000000000
H           27.73500000000000       27.07100000000000        6.51300000000000
H           28.19100000000000       28.35100000000000        5.31900000000000
H           26.48600000000000       27.71500000000000        5.37500000000000
C           24.37100000000000       29.40900000000000        6.38400000000000
H           23.80500000000000       28.58400000000000        6.86700000000000
H           24.64900000000000       29.10000000000000        5.35400000000000
H           23.72800000000000       30.31400000000000        6.34800000000000
O           28.43900000000000       33.06900000000000        8.72500000000000
O           29.40100000000000       33.80600000000000        8.74000000000000
C           27.29300000000000       27.15400000000000       13.21700000000000
H           26.30900000000000       26.66000000000000       13.07200000000000
H           27.51900000000000       27.19500000000000       14.30400000000000
H           28.07300000000000       26.56500000000000       12.68800000000000
N           26.35800000000000       29.49700000000000       13.11700000000000
H           25.70100000000000       29.35500000000000       13.85700000000000
C           27.24200000000000       28.54200000000000       12.65900000000000
C           26.52400000000000       30.61199999999999       12.42300000000000
H           25.95600000000000       31.52800000000000       12.58000000000000
N           27.47800000000000       30.40900000000000       11.53200000000000
C           27.94200000000000       29.12100000000000       11.65500000000000
H           28.72700000000000       28.73900000000000       11.01500000000000
77
 energy: -118.958254476800 gnorm: 0.122712298776 xtb: 6.7.1 (edcfbbe)
Fe          27.98338354892904       31.90799733072205       10.05399991307147
N           26.12108178799799       32.79928276585647       10.34967930928304
N           28.75429065018247       33.10992629371308       11.51457199745900
N           29.80235570466355       30.92109596735382        9.89354562973687
N           27.13987103703218       30.63045391190528        8.70962026515890
C           24.95532353825497       32.46473606315465        9.71043354873782
C           23.89392919760632       33.35423936797392       10.16159114625370
C           24.44161593662593       34.20669525553957       11.06123007940505
C           25.84836607967223       33.85953038747874       11.17845589773002
C           28.10884399387920       34.13622578462532       12.15830063486453
C           29.04042917208739       34.80263876324971       13.04961066856166
C           30.23522717628400       34.15446461471015       12.93621941322995
C           30.04860861969837       33.08957500021010       11.96342822711673
C           30.94694013717968       31.24799987792086       10.56596243756204
C           32.04458612681071       30.44428017288196       10.05426803085956
C           31.54162419825178       29.64973722043829        9.07114573166617
C           30.10972270576712       29.94285807063892        8.98401884386668
C           27.83254228228585       29.68661927286804        7.98494414119682
C           26.95949363996680       29.07570079462884        7.01391593238087
C           25.68055096544752       29.68477742037618        7.19006982109362
C           25.83488011404060       30.64014955778265        8.26543594304325
C           24.81850399823580       31.45052068284192        8.77267702920498
H           23.81513786651832       31.28138643645575        8.39023353184635
C           26.77275434865038       34.48932004868604       12.00116557549890
H           26.41738612413704       35.34012034652896       12.57548867265283
C           31.04131360236861       32.20738324720329       11.56250722810302
H           31.99694488576099       32.28742711920222       12.07041421707275
C           29.17757396996578       29.35513873090339        8.14244015606004
H           29.53901712606172       28.54281936025141        7.52777692716953
C           23.73654619446201       35.31921597801383       11.81623574702770
H           22.65289502538023       35.24749121098838       11.67334377380824
H           24.06586929355227       36.29984648677133       11.45282031981852
H           23.94491908756755       35.25142229349550       12.88977105485601
C           22.44624289170886       33.31292392143543        9.71403494610779
H           21.86482063508747       32.65437754759030       10.37187404252876
H           22.36848792959537       32.93602289620195        8.69029020315959
H           22.00293208176874       34.31373509308529        9.75464078243335
C           28.65572801940548       35.98340734390800       13.92582919312031
H           27.65681923255870       35.83776699887913       14.35300282175281
H           28.64216439336353       36.90784520623370       13.33491863241138
H           29.36843238441920       36.09599870134242       14.74840574221518
C           31.54739445710516       34.43539659116627       13.60322801544679
H           32.23555743556557       33.60512330548496       13.76911918069961
C           31.92758762944576       35.64893009926904       13.98668007841703
H           31.29056526759009       36.50851094173284       13.82354986459997
H           32.89159517743497       35.81783596777411       14.45894217424765
C           33.49130606327792       30.49495500785162       10.51142918602359
H           33.69996263077245       29.66968443753288       11.20423440413987
H           33.70906026842572       31.43868817591740       11.01901711682068
H           34.16148066900320       30.39506832417062        9.65072266332237
C           32.33796229598497       28.64174748544533        8.29859881875583
H           33.36019468276329       28.43998825713389        8.62748259473276
C           31.88645131397598       27.95979540116148        7.24583600958807
H           30.99896660342679       28.27628594774842        6.71726517221740
H           32.39336188727733       27.07040791721678        6.88221573414994
C           27.35855975456842       28.00724067388786        6.00794062849398
H           27.72165283671787       27.09944850175797        6.51123309215462
H           28.16327566815801       28.35476312368288        5.34348660984758
H           26.50099712123893       27.72517775154669        5.38889041501477
C           24.40957023825204       29.40943282852688        6.40302232898197
H           23.82541595883585       28.59920985979523        6.86288580453387
H           24.64945130206883       29.10764519751445        5.37742248379482
H           23.76117642285265       30.29423235487684        6.35351625578850
O           28.40283889406129       33.05085302566367        8.71574403097021
O           29.40816411779116       33.79960847221071        8.74833973989193
C           27.28917927568051       27.15563321568711       13.21864042467026
H           26.32241520009631       26.65795913149424       13.07915433116349
H           27.51709547787759       27.18458713292676       14.29046485205292
H           28.05928908755622       26.57683862609002       12.70083496048030
N           26.35742419178138       29.48236337767103       13.12621114840297
H           25.69691649528232       29.34288588455852       13.87017258140422
C           27.23608124396447       28.53516498537092       12.66215789518136
C           26.53238452946232       30.60524191404376       12.41695059159238
H           25.97188948564813       31.51268375105823       12.57287406512759
N           27.47444717917596       30.42264573888045       11.51850394764274
C           27.92952639196194       29.13738320358689       11.65616341187692
H           28.71064704168673       28.75542984551632       11.02375117864527
77
 energy: -118.979693902352 gnorm: 0.045866089156 xtb: 6.7.1 (edcfbbe)
Fe          27.99961922622642       31.93631152257818       10.03085745111172
N           26.12579169940463       32.79829736266471       10.34716705113468
N           28.75744835151815       33.10936732755080       11.51575439756698
N           29.80706439326724       30.93271483143831        9.87583396300997
N           27.14596233382889       30.64859191759066        8.69559319705500
C           24.96859572716687       32.46246818732848        9.71291802452736
C           23.89645514047788       33.34236546077401       10.15739596468437
C           24.44777408244318       34.20535199936879       11.06328751055441
C           25.85341975026361       33.85175395401981       11.16634093671449
C           28.12216340040464       34.12944197521762       12.15278177486760
C           29.04173204991751       34.80577502281092       13.05220903355560
C           30.24750954809515       34.15538058570365       12.94067427411726
C           30.03801919715492       33.08598907477093       11.96814042287985
C           30.94198234693868       31.24555960542127       10.55082216736659
C           32.04423711073502       30.44635877799461       10.05217740319169
C           31.53764711860804       29.64582521562125        9.04996137888025
C           30.10783192098943       29.96141846365596        8.97203803719650
C           27.81149927026589       29.70544248296232        7.98219101198047
C           26.91918445516563       29.08677901864120        7.02062834046447
C           25.71258570000431       29.66572371839957        7.18633097741755
C           25.85916937632773       30.63738088690555        8.25563984802759
C           24.84012947855024       31.44801176402470        8.76827872297137
H           23.84178210778230       31.28538564939142        8.38039664297998
C           26.78142572919480       34.47683666088017       11.99358080089131
H           26.42360454198761       35.32290079573741       12.56614543438428
C           31.03135006269080       32.20724606670463       11.55522417318965
H           31.99001048704561       32.29926829724435       12.04779307209692
C           29.15872303794103       29.37036890698291        8.14134868974876
H           29.50156367781008       28.54877236758597        7.53751370774846
C           23.75470884943666       35.30139625580176       11.80727176151109
H           22.67798941654247       35.23709221791563       11.66990386830028
H           24.07946689583752       36.27945581172947       11.45412804405153
H           23.95853459826649       35.24509013408740       12.87487779022328
C           22.46937837244593       33.30375314795356        9.71505696784417
H           21.88079114370265       32.65324458110393       10.36405790790062
H           22.38012325939378       32.93620513223321        8.69783717625571
H           22.02597523386169       34.29652449897086        9.75293469420232
C           28.66276538597315       35.96185095230057       13.91594040097847
H           27.66917901828894       35.82516837266527       14.33922567446599
H           28.64969146047400       36.88576967288768       13.33641228179460
H           29.36536089213824       36.08166154269799       14.73556957268318
C           31.51235715608093       34.44014335095615       13.59090737521830
H           32.18469250520087       33.60322103534667       13.74827848174078
C           31.91370777006872       35.64660472266717       13.97986595996395
H           31.30823568384947       36.51773275040322       13.81772879425007
H           32.86908500619226       35.80767818310268       14.45222020769253
C           33.46602721057543       30.49880065637936       10.50711597066621
H           33.68183492233999       29.68114031256805       11.19736480987943
H           33.69277961810992       31.43307982314276       11.00982574063725
H           34.14147196247728       30.40141507830590        9.65979326831919
C           32.29524565906399       28.65449187290918        8.31422366116839
H           33.29245182700812       28.43808869697909        8.69714722761966
C           31.89325996537124       27.96968735313241        7.24286767353716
H           31.00119855006210       28.23272086234594        6.70998015238235
H           32.44346244803300       27.12534760078568        6.85363926049879
C           27.33524057827383       28.03288654114667        6.03407214488162
H           27.70390950864535       27.13375033251364        6.53324346681671
H           28.13627009083280       28.38281978912855        5.37876368763015
H           26.49764608761841       27.74074342783479        5.40600066491309
C           24.44583099306785       29.40825232376661        6.42087260035265
H           23.85688869211435       28.60832962526826        6.87653770588893
H           24.66769069511867       29.10972564486509        5.39807975107557
H           23.80792155915181       30.29046083037282        6.37191326369004
O           28.37285690570020       33.02480024241105        8.73024695319236
O           29.41311326636266       33.76706517241590        8.78304092380124
C           27.28831163101259       27.15611803500702       13.21800618996696
H           26.33090737216838       26.65557634693026       13.08410875838697
H           27.51685818355486       27.17931691253284       14.28178489916561
H           28.05400568184155       26.58423042847415       12.70680763656001
N           26.35543742762911       29.47212511466391       13.13518581021788
H           25.69240393435410       29.33507370409943       13.88054939494949
C           27.23122329218278       28.53087585521495       12.66351659842285
C           26.53755224595094       30.60044673732705       12.41813296139715
H           25.98171388384157       31.50195092838213       12.57258083570233
N           27.47452878731685       30.43513277891077       11.52013662183056
C           27.91811655985214       29.15133435694582       11.65798434887396
H           28.69551649040799       28.76653235244646       11.03023564818342
77
 energy: -118.985765082810 gnorm: 0.025755665699 xtb: 6.7.1 (edcfbbe)
Fe          27.99865013080758       31.94477745965730       10.02350733658379
N           26.13627253168267       32.79679519461274       10.34126075584606
N           28.75586118316241       33.10748253480597       11.50959747417246
N           29.79966332301610       30.95545854566600        9.85526061679814
N           27.15043664461161       30.67269160603167        8.68111126951875
C           24.98047997098802       32.46282425556051        9.71043200096894
C           23.90907778816614       33.33399236327857       10.15617057790720
C           24.46044450415396       34.19637685224381       11.06116048428424
C           25.86312946418317       33.84671824438280       11.15942145600227
C           28.12269948880887       34.12605421585675       12.14453309337298
C           29.03637695032407       34.80237866767136       13.04259170419823
C           30.24142879553899       34.15460525188823       12.93068286631464
C           30.03345694030414       33.08523028130807       11.96016119500960
C           30.93338863267743       31.25968717606160       10.53344329503501
C           32.02731932908783       30.45448768395412       10.04381550506267
C           31.51581848940595       29.64983849984709        9.04558535212092
C           30.09666057006103       29.98183719426813        8.95843945118120
C           27.81370821473260       29.72215874757715        7.98135805327827
C           26.92074212790399       29.08792580543902        7.02961483885078
C           25.70670967617749       29.67744494488391        7.19223821361587
C           25.86346986542384       30.65706120677056        8.25311587611418
C           24.84781211517736       31.45722795667547        8.76294241922800
H           23.85419935611464       31.29777504987127        8.36718711722144
C           26.78533015445807       34.47214054760808       11.98703237537773
H           26.42532710505647       35.31386151697511       12.56138202903166
C           31.02731835984125       32.21534377375336       11.54058451494223
H           31.99103329020891       32.31649718168332       12.01978936647239
C           29.15018581252286       29.38199156742018        8.13685636396322
H           29.47739093557620       28.54598345694148        7.54463507360859
C           23.77528181326481       35.29061218135312       11.80581000816154
H           22.69865370623489       35.22739954498283       11.66894020881614
H           24.10578899871768       36.26661624267587       11.45175033516649
H           23.98374581023761       35.23316175929418       12.87265473043383
C           22.48649799730873       33.29163718348637        9.71129333695907
H           21.89698863108912       32.63928278770385       10.35790921303445
H           22.39931765008786       32.92692876142879        8.69241115239023
H           22.04620248732150       34.28552586492960        9.75025809229721
C           28.66225818876519       35.94909051034467       13.91254934252114
H           27.66713958622273       35.81072048235428       14.33171906875727
H           28.65580576602852       36.87539323816426       13.33673553634089
H           29.36721220897399       36.05915882961277       14.73193064596685
C           31.49517120482588       34.44056403640757       13.58570107871097
H           32.15549220691082       33.59514841644780       13.74035591432289
C           31.90566698381870       35.64362977649116       13.97848328759174
H           31.32394588819934       36.53023846800904       13.79718024892878
H           32.85997045449290       35.79216350335776       14.45405760654103
C           33.44402189039747       30.50429874774187       10.50479635949596
H           33.65551884704544       29.68783327227339       11.19829492458610
H           33.66890696333256       31.44046530294355       11.00602534458774
H           34.12242212017633       30.40623773274027        9.65977871893262
C           32.26551892800635       28.64402412427379        8.33423802608677
H           33.23934547252328       28.41536179388025        8.77304522556378
C           31.91468940075221       27.97004988378863        7.23403966429158
H           31.01637963715456       28.19295677663801        6.68671260688199
H           32.53606456997289       27.18169991380288        6.81174412711559
C           27.32874140968160       28.03905758224306        6.05022310487796
H           27.69589742091824       27.14860022400691        6.56070118075566
H           28.12578380700708       28.40689985685183        5.40360611363886
H           26.48944814453892       27.75000432600394        5.42389199004034
C           24.45036752860365       29.41204974817034        6.43206403463857
H           23.87112527934013       28.61434666841269        6.89949939736471
H           24.68054967251244       29.10798029674172        5.41355457683997
H           23.82760138622324       30.30172166217505        6.38479598845890
O           28.35590854010481       33.00853309905420        8.74547477852281
O           29.41215884507761       33.73317135550776        8.80568930505532
C           27.28836378159797       27.15278323881710       13.21776142249175
H           26.33348051759189       26.64548462112442       13.08736976024080
H           27.52004887097925       27.17379116253019       14.28133585378283
H           28.05677550913735       26.58585442092762       12.70466589367577
N           26.34935281092039       29.46643343206557       13.14570625648784
H           25.68871413800602       29.32725407307629       13.89304274548881
C           27.22472702703410       28.52814851630602       12.66591412778179
C           26.53166974095654       30.59805772291953       12.43235602951322
H           25.97884796439480       31.49995828688352       12.59034099693386
N           27.46422097085347       30.43740798191228       11.53037679887715
C           27.90803448738180       29.15524022441689       11.66201366441028
H           28.68378298510349       28.77237458203287       11.03229049955885
77
 energy: -118.988502642519 gnorm: 0.019833423705 xtb: 6.7.1 (edcfbbe)
Fe          27.99497706639650       31.95492884281654       10.01270272330873
N           26.15104901565170       32.79375663058499       10.33271625876761
N           28.75128747570005       33.10655632081419       11.49829843694310
N           29.78374578719384       30.97547257163455        9.83622581521189
N           27.15672987545444       30.69398818527228        8.67498593492232
C           24.99477058117870       32.46408111173903        9.70393550826702
C           23.92442174630451       33.32599223459989       10.15279558288057
C           24.47473612890308       34.18562377792774       11.05772372234240
C           25.87390635895897       33.83975577289186       11.15301483430096
C           28.12018111514375       34.12290800560168       12.13601699182100
C           29.03028194935956       34.79895210728717       13.02967080521870
C           30.23440323800060       34.15546561808030       12.91413585914360
C           30.02925557928738       33.08914163953149       11.94346376485623
C           30.92065463837568       31.27779045103050       10.51076247352478
C           32.00401111269989       30.45759229530990       10.03834262073374
C           31.48735014276244       29.64178980642988        9.05305302874592
C           30.08049441531098       29.99223363128860        8.95234120200070
C           27.81684164554576       29.73741824297628        7.98213936881019
C           26.92138112068504       29.09555590013385        7.04046964365538
C           25.70595192842058       29.68990011094311        7.20095708538750
C           25.87095221834372       30.67833147108274        8.24996671299741
C           24.85601033257565       31.46993948474938        8.75078967527235
H           23.86658561197999       31.31296228358987        8.34747273983188
C           26.78665319291527       34.46816019819754       11.98230972599922
H           26.42438415772807       35.30737656630447       12.55683915347131
C           31.02466382789179       32.23153522689479       11.51480679960329
H           31.99318395809660       32.34051388872867       11.98097741118787
C           29.14333232290046       29.38651794487319        8.13129393608761
H           29.46271526459398       28.54476114911477        7.54286294126477
C           23.79932716556967       35.28077198940397       11.80715368195676
H           22.72182621095350       35.22344388882210       11.67279576306028
H           24.13908121143967       36.25428884062633       11.45265494045093
H           24.01432183064620       35.21816844589797       12.87313259882807
C           22.50411280184775       33.27759095797040        9.70428521425876
H           21.91659609236199       32.61864144948036       10.34666061233712
H           22.42418743927004       32.91539550552701        8.68300904827176
H           22.06185154188256       34.27095115503025        9.74560776409690
C           28.66058376922938       35.93757906547722       13.91078992776308
H           27.66386091886874       35.79781861479654       14.32688784571147
H           28.66117118383345       36.87035692822396       13.34443773168445
H           29.36933843236580       36.03123642603082       14.73018290050031
C           31.48566158060619       34.43963550722517       13.57443833513233
H           32.12801519330036       33.58365375621258       13.74587680841975
C           31.90543231891153       35.64059587895220       13.96303717270146
H           31.33643422167668       36.53595139602704       13.78252262901092
H           32.84989885326730       35.77248194899223       14.46367687265866
C           33.41877402935399       30.50950037860512       10.50309636318168
H           33.62521562300265       29.69703089768747       11.20356400559500
H           33.63827223137917       31.45045247498754       10.99993618219162
H           34.10016257112801       30.40781973977386        9.66012206658646
C           32.24691751756764       28.64020215075372        8.34604082022141
H           33.19546999398386       28.40277595299786        8.82860154342522
C           31.95096063808558       27.99115703571753        7.21546608365719
H           31.06281124597779       28.18484421720137        6.64008866496158
H           32.58151002950257       27.21523518429854        6.82808934702982
C           27.32309731270227       28.04515949765613        6.06834908237519
H           27.68930635794336       27.15901230990174        6.58472969768764
H           28.11824997819603       28.41893162249452        5.42433105411586
H           26.48229137347058       27.75539532140030        5.44419502325781
C           24.45290241489019       29.41786026940192        6.44646217727535
H           23.87631040172572       28.62496699630747        6.92402159658525
H           24.68502107174617       29.10282490657888        5.43133950039956
H           23.83667917178382       30.31030895571163        6.39324942525410
O           28.34228188335376       33.00268088167658        8.76337314543743
O           29.41896682825461       33.69966146858547        8.82723934809753
C           27.28912700341118       27.14689767109878       13.21732874242137
H           26.33689105908919       26.63196404302819       13.08991130476863
H           27.52519383980268       27.16605932938067       14.28108058473916
H           28.06059530787849       26.58630256739674       12.69950497313081
N           26.34216163138805       29.45954641731886       13.16007528807521
H           25.68521056121983       29.31680656192692       13.90989165041168