78
 energy: -115.624795043327 gnorm: 0.274723344255 xtb: 6.7.1 (edcfbbe)
Fe          14.59400000000000       27.96800000000000        4.72000000000000
N           14.94600000000000       29.20200000000000        6.28000000000000
N           13.85600000000000       26.59500000000000        6.04600000000000
N           14.40000000000000       26.59800000000000        3.23500000000000
N           15.52000000000000       29.25100000000000        3.44700000000000
C           15.44900000000000       30.52300000000000        6.18300000000000
C           15.36300000000000       31.15700000000000        7.45400000000000
C           14.82000000000000       30.25600000000000        8.35300000000000
C           14.53400000000000       29.10000000000000        7.58200000000000
C           13.58000000000000       26.78500000000000        7.39400000000000
C           12.94300000000000       25.63600000000000        7.94200000000000
C           12.79600000000000       24.71500000000000        6.96600000000000
C           13.33400000000000       25.33400000000000        5.73500000000000
C           13.94500000000000       25.28400000000000        3.32000000000000
C           14.14600000000000       24.58900000000000        2.11000000000000
C           14.75000000000000       25.46400000000000        1.25500000000000
C           14.94400000000000       26.69900000000000        1.95700000000000
C           15.74500000000000       29.01800000000000        2.12300000000000
C           16.48200000000000       30.19300000000000        1.60500000000000
C           16.63200000000000       31.05500000000000        2.56100000000000
C           16.01700000000000       30.53200000000000        3.75100000000000
C           15.96600000000000       31.09000000000000        4.99600000000000
H           16.37400000000000       32.09600000000000        5.08600000000000
C           13.91500000000000       27.93600000000000        8.07900000000000
H           13.66900000000000       27.94500000000000        9.14000000000000
C           13.41600000000000       24.75700000000000        4.50700000000000
H           13.01600000000000       23.74600000000000        4.43500000000000
C           15.49100000000000       27.86700000000000        1.46500000000000
H           15.75200000000000       27.85900000000000        0.40700000000000
C           14.55500000000000       30.39800000000000        9.83400000000000
H           14.87300000000000       31.40700000000000       10.17200000000000
H           15.13300000000000       29.63200000000000       10.39400000000000
H           13.46900000000000       30.27600000000000       10.03400000000000
C           15.76400000000000       32.60300000000000        7.75500000000000
H           15.61200000000000       33.22700000000000        6.84800000000000
H           16.83600000000000       32.64300000000000        8.04400000000000
H           15.13400000000000       33.00400000000000        8.57800000000000
C           12.50800000000000       25.52500000000000        9.40300000000000
H           12.08000000000000       26.49400000000000        9.73700000000000
H           13.38600000000000       25.28000000000000       10.03800000000000
H           11.73300000000000       24.73500000000000        9.50500000000000
C           12.25200000000000       23.32100000000000        7.02000000000000
H           11.70000000000000       22.91700000000000        6.15900000000000
C           12.40700000000000       22.54300000000000        8.06900000000000
H           12.95200000000000       22.90200000000000        8.95500000000000
H           11.99400000000000       21.52400000000000        8.07400000000000
C           13.78800000000000       23.13700000000000        1.85300000000000
H           13.03600000000000       22.80300000000000        2.59900000000000
H           14.69600000000000       22.50400000000000        1.94900000000000
H           13.35700000000000       23.03100000000000        0.83400000000000
C           15.34700000000000       25.23699999999999       -0.09900000000000
H           16.00200000000000       26.02300000000000       -0.49900000000000
C           15.18100000000000       24.20500000000000       -0.87100000000000
H           14.54200000000000       23.36800000000000       -0.55400000000000
H           15.67800000000000       24.15500000000000       -1.85100000000000
C           16.95400000000000       30.29799999999999        0.12700000000000
H           16.10400000000000       30.06800000000000       -0.55100000000000
H           17.77100000000000       29.56900000000000       -0.05900000000000
H           17.31100000000000       31.32900000000000       -0.08100000000000
C           17.45300000000000       32.35500000000000        2.53500000000000
H           16.77500000000000       33.21900000000000        2.36500000000000
H           18.19600000000000       32.31300000000000        1.71000000000000
H           17.97200000000000       32.49000000000000        3.50800000000000
O           16.52500000000000       27.10600000000000        4.96200000000000
H           16.54400000000000       26.33700000000000        4.39200000000000
H           17.18700000000000       27.39099999999999        5.48200000000000
C            9.49200000000000       29.44000000000000        2.54100000000000
H            9.53300000000000       30.39099999999999        1.96900000000000
H            8.58500000000000       29.44400000000000        3.18300000000000
H            9.44700000000000       28.59100000000000        1.82600000000000
N           11.00700000000000       30.23800000000000        4.34500000000000
H           10.43900000000000       31.02300000000000        4.59100000000000
C           10.71200000000000       29.31800000000000        3.39300000000000
C           12.18100000000000       29.89699999999999        4.87800000000000
H           12.65500000000000       30.46200000000000        5.68100000000000
N           12.67400000000000       28.80900000000000        4.31100000000000
C           11.76200000000000       28.43700000000000        3.33900000000000
H           11.94300000000000       27.58200000000000        2.69900000000000
78
 energy: -115.667237293187 gnorm: 0.110054328453 xtb: 6.7.1 (edcfbbe)
Fe          14.58041341732200       27.96504146614050        4.72274148318309
N           14.92027148146124       29.22984047252447        6.26745670586519
N           13.82114925533723       26.59892281244037        6.04208003451360
N           14.42242356382075       26.58479201897236        3.23665798001858
N           15.50005703766287       29.26218525504165        3.45260556237855
C           15.43947050732640       30.51950557569725        6.17881901107642
C           15.36104044608089       31.16245175701120        7.45509987413334
C           14.81956326422788       30.25684062712716        8.34182804475091
C           14.53808837487516       29.08340667748208        7.57264736113105
C           13.58056430923051       26.78975675516693        7.38330246664210
C           12.94272535917353       25.63339125872040        7.94819205343132
C           12.79589107563905       24.71294023438031        6.95246913327196
C           13.33782482129756       25.34090234031067        5.74189578150926
C           13.94562318217020       25.29216897887878        3.32974133834077
C           14.14710463265119       24.58831983254109        2.10608852839543
C           14.77281249371540       25.46415536928748        1.24711680194767
C           14.92626933510983       26.70653487179671        1.95843152597216
C           15.75538653825407       29.03160297329603        2.13415243483796
C           16.47879313446436       30.18268285225132        1.57882180418278
C           16.64725093035626       31.06343125567061        2.57581221415707
C           16.01866745061053       30.51196516835506        3.75993944872868
C           15.96097312041807       31.08229383485152        5.00853659245380
H           16.36880026235440       32.08401118077828        5.09623614433090
C           13.92209730924936       27.93522823756526        8.07716511376012
H           13.67315385567101       27.94945075080054        9.13242548173807
C           13.41059069106303       24.75588119740712        4.50339186753709
H           13.02072228873249       23.74646894538440        4.43275472585765
C           15.48485022490124       27.87135716067792        1.45660005658036
H           15.76014017975502       27.85743378388791        0.40820917197994
C           14.55826815476092       30.40240820482832        9.81149011051618
H           14.86819347166134       31.39007295965284       10.16408009763083
H           15.11806242832038       29.64874191275556       10.37715118191705
H           13.49155837150240       30.27598608223281       10.02998512203499
C           15.76156669909190       32.58634639451746        7.74758549874402
H           15.61592134803032       33.21671000424223        6.86502136133912
H           16.81591267969452       32.64074947153135        8.03989157226925
H           15.15260992259064       32.99147873484380        8.56129774071620
C           12.51070240264495       25.52836272546325        9.38768660385779
H           12.08793608945912       26.47791889985205        9.73104048597042
H           13.36716678627925       25.28380402203875       10.02611159245590
H           11.75020544607653       24.75048268193392        9.50028162874214
C           12.25595111841099       23.34329578594585        7.01785417821938
H           11.71909620457269       22.95496523294798        6.15421509905545
C           12.40510392574807       22.55196746782687        8.07239859673821
H           12.95219896625847       22.88051422490724        8.94711674597992
H           12.00466528272911       21.54438633076079        8.07969516790412
C           13.78328760585561       23.15198063550992        1.86380166331347
H           13.04691538583555       22.80451375864337        2.59247950733715
H           14.67465098958813       22.51786992674911        1.94264409836207
H           13.35104372340570       23.02890650410306        0.86786353756151
C           15.34331511495245       25.24812565474808       -0.08994840108010
H           15.99044480196445       26.03638496188178       -0.46838177393368
C           15.17891315291029       24.19599820782674       -0.87602687559812
H           14.55882574415048       23.36139686929440       -0.58671335596880
H           15.66711088037955       24.14397820229114       -1.84073725755524
C           16.94332547398215       30.29013974960096        0.14057408593502
H           16.11508850161807       30.06928804030875       -0.53872451578145
H           17.75381841616604       29.58014512146098       -0.05234437135118
H           17.30158809883753       31.30112820520839       -0.07065285814023
C           17.43965419517897       32.34873016497753        2.54174294543392
H           16.78183136503766       33.20779110128446        2.37244381505791
H           18.17598981567071       32.31408967232620        1.73375210961840
H           17.96517991661695       32.48999161665289        3.48950882734952
O           16.51447782406078       27.09149297346715        4.96014435902509
H           16.57649533037171       26.31977113997615        4.39566959388621
H           17.22608553509026       27.38800856251728        5.50040122529053
C            9.49499147500116       29.43732074753035        2.53823977792074
H            9.52301030421851       30.37456134467702        1.97144855893373
H            8.59600623471739       29.44092374302371        3.16462130399212
H            9.44086046672338       28.60359589184829        1.83583917388914
N           11.00948733177368       30.23306036522482        4.34583811564718
H           10.43579891166402       31.02078052826278        4.59545763012684
C           10.71770891354558       29.32124303289325        3.37608827482626
C           12.18985535075953       29.89506758036236        4.88316543348976
H           12.65903536875654       30.45055467131144        5.67767505820760
N           12.68109262898705       28.81718058105900        4.30983221834758
C           11.76717935536289       28.44406496692804        3.35020035392381
H           11.94109394605382       27.59176069732401        2.71997621513622
78
 energy: -115.679348605216 gnorm: 0.029120485401 xtb: 6.7.1 (edcfbbe)
Fe          14.57377317537597       27.96164985428041        4.72340941545517
N           14.89902512994762       29.25076017591039        6.25349771061693
N           13.78931079209741       26.60755926976180        6.03238242297328
N           14.42597303681044       26.58261671343883        3.23207307359381
N           15.48805527419551       29.26397073475656        3.45815251268105
C           15.41679469169267       30.51544437152566        6.16770210809224
C           15.35482139712455       31.16534682080677        7.45363780837597
C           14.81859112122165       30.25747665403009        8.32787914023934
C           14.52795371932522       29.07462860330561        7.55621898132447
C           13.57111151284919       26.80135002426002        7.36514058958945
C           12.94663839983304       25.63703212685160        7.94889823694274
C           12.80458945811448       24.71851321973779        6.93826246225691
C           13.32970615120139       25.35794626563318        5.73922645763872
C           13.94750483736511       25.30424400085499        3.33762625598674
C           14.14407516596728       24.59198975476645        2.10393621864268
C           14.78342713416988       25.46540944769032        1.24226994009125
C           14.91889381242134       26.71271658145899        1.96626673396201
C           15.75647689556110       29.04015234960049        2.14399684547079
C           16.47222703245239       30.16975199059477        1.57421802047564
C           16.65453433577470       31.05847219738567        2.59350020812849
C           16.01124581826824       30.48921325033498        3.76462298946099
C           15.94655587193289       31.07723828619942        5.01449899504373
H           16.36611816986367       32.07006447985798        5.10393440231034
C           13.91725321411945       27.94162582154042        8.06958711526683
H           13.68476844521372       27.95252803392893        9.12448849012564
C           13.40337364495574       24.75922592079880        4.49682438311431
H           13.02793922209222       23.74855785542686        4.43009337820990
C           15.48139200738096       27.87356667897858        1.45301421226327
H           15.76721660627175       27.85780853785612        0.41230518486710
C           14.56183204769430       30.40423752180008        9.78860183574654
H           14.87011581231521       31.38218293054102       10.14255235182252
H           15.11354694019008       29.65405541530894       10.35269121963095
H           13.50411441099055       30.27600088258770       10.01387201006683
C           15.76100998948559       32.57020285283632        7.74050424098824
H           15.61808556849012       33.20335778740426        6.86995505697359
H           16.80819982539033       32.62540847364453        8.03180630962689
H           15.16639171210692       32.97520411091560        8.55420321103130
C           12.51592141193763       25.53262446539871        9.37035885943825
H           12.09522198993347       26.47294560904220        9.71715581181084
H           13.36063238218727       25.28727672619578       10.01251076790560
H           11.76408237956029       24.75797655359209        9.48373995357831
C           12.27293934578320       23.36905156202320        7.01201608041679
H           11.74161299818250       23.00026235286883        6.14462454707537
C           12.41287580881795       22.56608059336172        8.06521570713495
H           12.95769154633431       22.86770967950076        8.94003228542170
H           12.00275589723967       21.57204817973228        8.07565326849316
C           13.77681374736247       23.16776075972795        1.87365047965164
H           13.05744049014121       22.81645766778460        2.60494722284693
H           14.66221225456922       22.53449519221936        1.93430768827835
H           13.33621919565983       23.03782962288548        0.89127703145587
C           15.33623965752524       25.25279528209569       -0.07661576725576
H           15.97083667470074       26.04873479808839       -0.44159439477979
C           15.17942380171139       24.19207917763985       -0.86964027724630
H           14.57094139019118       23.35215189635034       -0.60737322032063
H           15.65854429520703       24.14836480910814       -1.82971072050762
C           16.92827260628079       30.27949629624580        0.16355432572367
H           16.11485528262146       30.06325590445357       -0.52359861080014
H           17.73662622140733       29.57921516073739       -0.03808351708215
H           17.28936475723770       31.28071131840311       -0.04803725884498
C           17.42334329363545       32.33477248215154        2.55412170065889
H           16.77123750360067       33.18896155173451        2.38483785241727
H           18.15419388160031       32.30860717743355        1.75129989689956
H           17.95465151919122       32.49045402938573        3.48763302961218
O           16.51207689857261       27.06430859626896        4.99022884642951
H           16.64934029547942       26.30526010683287        4.41214155386189
H           17.26046317306629       27.37744131565874        5.50455569572261
C            9.50151957612968       29.43270798300779        2.53629592628116
H            9.51631688089936       30.36243092236836        1.97028418219783
H            8.60960806027387       29.43353409227307        3.15891763156747
H            9.44219876108005       28.60480205290687        1.84174335888750
N           11.01666383215913       30.22986632595318        4.34682715763531
H           10.43847324763544       31.01703202976605        4.60010081509868
C           10.72809437030317       29.32354534094349        3.36332552891747
C           12.19990589359603       29.89304902449987        4.88997079625951
H           12.66502874806145       30.44152783381012        5.68120145982342
N           12.68899394006652       28.81833557253207        4.31518422004219
C           11.78008285075007       28.45069051115034        3.35856371098757
H           11.94564075904414       27.59683944725638        2.73652584521863
78
 energy: -115.682772976346 gnorm: 0.027768253587 xtb: 6.7.1 (edcfbbe)
Fe          14.57627788737891       27.95759198888237        4.72323199263081
N           14.87535100649487       29.26036396646100        6.24138976563179
N           13.76217524595472       26.62495481786211        6.01978145819411
N           14.42887898940131       26.58380151613873        3.23276810474545
N           15.48131187937241       29.25698477898432        3.46359861706822
C           15.39958510828577       30.51332927628425        6.15837042474675
C           15.34555745148194       31.16659921820464        7.44820447146573
C           14.81188415678781       30.25982057359981        8.31640982878754
C           14.51066904037011       29.07680577614233        7.54280768272707
C           13.55763534528234       26.81520411056580        7.35106382270047
C           12.94896312888938       25.64689075306089        7.94287339435570
C           12.81033722597337       24.72959228847164        6.92873750489367
C           13.32064124166097       25.37285668378565        5.73154749008844
C           13.94542610075857       25.31252710902851        3.34099533907719
C           14.13783518155186       24.59598676241087        2.10583964895631
C           14.77822397411081       25.46595295585750        1.24253406370607
C           14.91601311012752       26.71444026549071        1.97161449003788
C           15.75094979801239       29.03670285417670        2.14972122996055
C           16.46446001485932       30.15873553168857        1.58319783376997
C           16.65043208946369       31.04938986726856        2.60700843816022
C           16.00572611868884       30.47450671652990        3.76981209509594
C           15.94027590755175       31.07503695406145        5.01575445626121
H           16.36521286140141       32.06354212635525        5.10552832340229
C           13.90659876527114       27.95034050082286        8.06286381609684
H           13.69115893962661       27.95528366768992        9.12018019340511
C           13.39828972856301       24.76370879476924        4.49254847709254
H           13.03409061512651       23.75007884666250        4.43035121175454
C           15.47845080574971       27.87088482611562        1.45293234180503
H           15.77177087825090       27.85634848777011        0.41554185598953
C           14.56156512062956       30.40426316540006        9.77483341751921
H           14.87399172993761       31.38182472450754       10.12539731764629
H           15.11461585108906       29.65164191984785       10.33363037477932
H           13.50433053477971       30.27684108642515       10.00155846614335
C           15.76592539429426       32.56322306282157        7.73401278687435
H           15.62342023755249       33.20018527415149        6.86620749079166
H           16.81548004830310       32.60663885330033        8.01990970092934
H           15.18090320774538       32.96993127025812        8.55436257435996
C           12.52075451236001       25.53807213394565        9.35956724467980
H           12.09855757408359       26.47722887692976        9.70819858211075
H           13.36382545033833       25.29056837211498       10.00362615460095
H           11.77080110985393       24.76018938045076        9.46737201497845
C           12.28044818721399       23.38705897694949        7.00347525920724
H           11.75672839083754       23.02878665420009        6.12739630199796
C           12.41064019031280       22.57979571073654        8.05438176638498
H           12.97269707083934       22.86080857526212        8.92682032292440
H           11.99567295946575       21.58842470312952        8.05910731284884
C           13.76392532649238       23.17608265355367        1.88340847769421
H           13.06494295599669       22.82394730332287        2.63482983132277
H           14.65204694999483       22.54327824659392        1.91845112218605
H           13.29558770100920       23.04711145213458        0.91267965472205
C           15.32428588072567       25.25706947768220       -0.07382946206524
H           15.94980752067816       26.06292872923119       -0.43271531661534
C           15.17977178350086       24.19635114157865       -0.87116036963743
H           14.59130481893940       23.33702518112240       -0.62029087624830
H           15.66375271494430       24.16313531150353       -1.82968091239671
C           16.91866634650227       30.26823378488773        0.17590899664392
H           16.10578550668312       30.05254092136532       -0.51342760469617
H           17.72705366318197       29.56684824988050       -0.02759033176404
H           17.28106203225311       31.26992569945857       -0.03234433863690
C           17.40672666691872       32.32825967924617        2.56859026905342
H           16.74468289449223       33.17628242659281        2.40213383939751
H           18.13454289726270       32.30858962275799        1.76227804483853
H           17.94181988158189       32.49240369397761        3.49961008068909
O           16.51244162062754       27.01654899704310        5.05839474487447
H           16.73409758344300       26.30876309210348        4.42242769355053
H           17.29805160509799       27.37825373967236        5.50252526380808
C            9.51369157567041       29.42457408335019        2.53655476796690
H            9.51663636587374       30.35218264928723        1.96614413236325
H            8.62493415029772       29.42110134109662        3.16379772854353
H            9.45382538787364       28.59352940755442        1.84469567641833
N           11.02830948477275       30.22892416395695        4.34710165745273
H           10.44662459542037       31.01271218190564        4.60326698327433
C           10.74315270519871       29.32323593296265        3.35960500623644
C           12.21024094782977       29.89266298469451        4.89516509544777
H           12.67126015349660       30.43762312428108        5.69080306749450
N           12.70255569085417       28.81998426946367        4.31825714662904
C           11.79716499945567       28.45239729175518        3.36246455708838
H           11.95870742684492       27.59474841040986        2.74487991297908
78
 energy: -115.684655391988 gnorm: 0.024597974929 xtb: 6.7.1 (edcfbbe)
Fe          14.57902398830246       27.95590394133719        4.72600658058041
N           14.85897913482231       29.26422953289656        6.23267022351994
N           13.74105582523451       26.64546015396889        6.00715194755780
N           14.43403269409187       26.58725926113486        3.23723710540945
N           15.48421162266329       29.24186844876896        3.47356385448138
C           15.38681436267670       30.51317258626120        6.15074281811603
C           15.33696228563779       31.16864585637264        7.44181202540948
C           14.80297207507572       30.26413751443866        8.30708116479754
C           14.49434076256351       29.08283617603396        7.53234579603635
C           13.54382896902539       26.82986904933087        7.33909461339979
C           12.95090715698368       25.65867672346382        7.93434600149059
C           12.81534338900020       24.74208677973978        6.91999823135378
C           13.31104186622847       25.38918023509960        5.72224522477786
C           13.94336079623984       25.32005003423249        3.34329084800625
C           14.13028626773887       24.60101449702414        2.10840583619233
C           14.76948320211336       25.46660538899704        1.24481506939515
C           14.91648261894796       26.71481026628350        1.97618032283642
C           15.74952275128399       29.02720096441604        2.15666741968468
C           16.45774348965817       30.14929630974394        1.59524028672709
C           16.64341924309063       31.03947342995770        2.61816088265203
C           16.00335630121923       30.46197327475904        3.77591911928036
C           15.93676408219612       31.07492896632366        5.01515654619009
H           16.36386316461826       32.06100970605711        5.10366657295071
C           13.89358487356473       27.96034815244293        8.05725349311561
H           13.69138852698043       27.95930290869049        9.11661236550085
C           13.39368538166625       24.77045011824566        4.48963234938515
H           13.03886860613309       23.75387042287473        4.43301346050878
C           15.47961351896925       27.86609072598798        1.45462620031468
H           15.77438628102355       27.85647103856433        0.41812638663040
C           14.55797989642890       30.40489972926387        9.76565620146355
H           14.87515060737132       31.38308052095946       10.11391875539470
H           15.11427567379516       29.64935615333085       10.31873625888479
H           13.50024068514770       30.27888748975649        9.99446854747082
C           15.77523200369627       32.56013263732009        7.72659440649189
H           15.63158239271661       33.20146648706534        6.86076902768901
H           16.82962937989699       32.58736678451682        8.00242594715876
H           15.20220775110336       32.97083001156436        8.55540959742721
C           12.52583719196897       25.54332011072683        9.35079128040952
H           12.10165407642572       26.48169699846192        9.70314935622623
H           13.37006564159500       25.29333841359509        9.99422996061831
H           11.77692445427876       24.76135586464799        9.45269158679651
C           12.29063981571652       23.39880157708737        6.99004060310246
H           11.76186701424255       23.05317463296122        6.11082604034368
C           12.41930088158011       22.58601916071479        8.03493809896190
H           12.97688737711878       22.85949602360279        8.91359330458795
H           11.98504122579734       21.60135478207449        8.03869743059505
C           13.74822139815842       23.18367896814073        1.88727510485472
H           13.07457434506479       22.82644210511514        2.66270234475022
H           14.63887153407404       22.55021826831556        1.88858339697270
H           13.24708463536374       23.06293480503347        0.92873906576205
C           15.31221233768938       25.25912887944099       -0.07362755535141
H           15.91981037790990       26.07809298571128       -0.43759184416673
C           15.18328831363909       24.19617736291174       -0.86780762404734
H           14.60923362747791       23.32265107420958       -0.62191494545833
H           15.66232620584214       24.17754426399692       -1.83194469974427
C           16.90934367783958       30.25821182206363        0.18436488403413
H           16.09258433865877       30.04162251639862       -0.50230805728715
H           17.71665833193381       29.55318703361791       -0.01871280368102
H           17.27233447852726       31.26092200086014       -0.02292485661588
C           17.38577037421661       32.32689680635261        2.58273056177900
H           16.70794448819495       33.16628547466558        2.42390523235021
H           18.11025295446148       32.31926356096479        1.77147950320383
H           17.92300383554115       32.49505073643688        3.51355233545953
O           16.52928227051206       26.98639373433772        5.11049060630709
H           16.78811427291356       26.30552263708865        4.46933700595877
H           17.33807091427039       27.37236059009253        5.49702727027052
C            9.52924062434862       29.41053740425245        2.53812352815732