82
 energy: -121.710021532194 gnorm: 0.000048325228 xtb: 6.7.1 (edcfbbe)
Fe          59.22293085848548       15.11717544664409       17.27748409464713
N           58.86738885544960       13.89912396669364       15.73121512211928
N           57.73292236433078       14.29129337895813       18.29486275182794
N           59.60785042371095       16.35234506028619       18.80893300057864
N           60.72854834126260       15.97282771978082       16.23103760301960
C           59.57530970704919       13.80495163794698       14.57525206090701
C           59.07719119778223       12.72172456753418       13.75612268175665
C           58.04004965667427       12.17326930251591       14.44047372881238
C           57.92300071898338       12.92442991781218       15.67117597954230
C           56.90108069530397       13.30592851178395       17.86632391634626
C           55.93133004485711       12.97401115428525       18.88118902724640
C           56.20389836289144       13.78185951788324       19.95128206001906
C           57.33137005594812       14.60506591394267       19.55199485082504
C           58.97401339460621       16.36811613443176       20.01447483862097
C           59.54684531972918       17.36473972075170       20.88140124190967
C           60.55380439206600       17.96253404673040       20.17037128271628
C           60.56872835935854       17.31307193052053       18.87518854217475
C           61.53318472198973       16.99597911847635       16.63891301261197
C           62.49356965054145       17.32716276311967       15.61347929084072
C           62.25821843733770       16.47482143360933       14.57739306311302
C           61.15516846869053       15.63597521792423       14.98077376946905
C           60.62896339630082       14.61904753527590       14.20648224223458
H           61.08412887692020       14.44149899979048       13.24483172839994
C           56.98502293068754       12.65873505163905       16.64628507008516
H           56.27884669764639       11.86631158721240       16.45268907253666
C           57.91557468283550       15.55179306534646       20.36885836346428
H           57.51769313493295       15.66360755436838       21.36542769632166
C           61.46641717443167       17.62237866886115       17.86956528102307
H           62.18347395941431       18.40451565852997       18.06349023748630
C           57.17107135281116       11.01997753372145       14.07568344812824
H           57.27603585462450       10.21946747852702       14.80805047051937
H           57.43785231779780       10.62819886190912       13.09714196426386
H           56.12395219206472       11.32118560058523       14.04994112870534
C           59.65776005118243       12.32851949029881       12.44196558691350
H           59.62861504815670       13.16281578430817       11.74106938045375
H           59.10522836003069       11.49899690347864       12.00783207446857
H           60.69722611211038       12.02340224332001       12.56472691713955
C           54.82851329676163       11.98750194654386       18.71972196456933
H           55.18662741296939       10.97085859920518       18.89020171176517
H           54.41469621775344       12.03595439645672       17.71378839979722
H           54.03476742108075       12.19600582059319       19.43401331643392
C           55.52635983530572       13.87218609405738       21.22610497208112
H           55.48500475121161       14.86180450274352       21.66588609687811
C           54.97393843612755       12.85410609862280       21.87746875914701
H           55.02658257051888       11.84369429055523       21.51137357457138
H           54.47100295597114       12.99470337846006       22.81974761053099
C           59.05634132554614       17.69590344530558       22.24674719829394
H           59.44789744705681       16.99026571450258       22.98088832181002
H           57.96898049735714       17.65401113089918       22.28628123312480
H           59.37700833094389       18.69735263194984       22.52631910801056
C           61.43543596906900       19.04102922622732       20.56098119905045
H           61.72298599375289       19.72249502038120       19.76837938140199
C           61.90826004609799       19.24218362451973       21.78634300567165
H           61.69493225621445       18.57065411418717       22.59942859551959
H           62.55133359904073       20.07659915617684       22.01176405255453
C           63.51643139272269       18.40324883273456       15.73777346168156
H           64.17725727141884       18.20943449640349       16.58307641237421
H           63.03847063965588       19.36988572281299       15.89841707581578
H           64.12212865007055       18.46666657597522       14.83731506977912
C           62.95612508608307       16.36872746215001       13.26540690901484
H           63.74677377994239       17.11068997094682       13.18686833327057
H           62.25556382135495       16.52476967006050       12.44489187979845
H           63.40009811605823       15.38009493767455       13.14582981250145
O           57.88013542279865       16.74389820193543       16.41556947051243
H           58.01992787693034       17.46251896917679       17.04211982632715
H           58.35652822238338       16.97285844038604       15.61018044994763
C           60.98275915582652        9.04472897313910       14.87677149436216
H           60.23751220628391        9.17580895938666       14.09186516434351
H           60.72069855145227        8.15336406507492       15.44249710345908
H           61.95010297670099        8.89135543345489       14.40492584005555
C           60.99925574178350       10.25425808635326       15.76115442580401
C           60.04815066780604       10.40844395479827       16.76385722577524
H           59.31804209472990        9.62936144717499       16.92713718936898
C           60.01231847067777       11.54470498327731       17.54555314156101
H           59.26194103701713       11.68404492757823       18.30697833014513
C           60.93456243036606       12.55985129224115       17.32582930349114
O           60.83594376922643       13.70721792600358       18.08060229259470
H           61.59147567237033       14.27874316981874       17.87814851974569
C           61.93679707800526       11.26068052120450       15.57988840091411
H           62.69235067024824       11.15610390850857       14.81457580152472
C           61.91318875973374       12.40595133414923       16.35593419873391
H           62.63552590651255       13.19342006746795       16.18801178452280
