78
 energy: -116.057050627239 gnorm: 0.000145228248 xtb: 6.7.1 (edcfbbe)
Fe          -9.96268539912436       30.26166573019751        2.24031112726709
N           -9.44159067280362       30.74829900705924        4.10033977979611
N           -8.08659118985691       30.53021108715550        1.62725286873510
N          -10.48165161927477       29.65376123457123        0.40051453301248
N          -11.85958701936345       29.99554909409682        2.84874021271416
C          -10.25773025899119       30.85330236181151        5.18102824231583
C           -9.49853595605626       31.19534024418784        6.36492897978064
C           -8.20151015787130       31.29386009705257        5.97097220328530
C           -8.18798780013758       31.02285275100059        4.54924350423480
C           -7.02388655777085       30.88397601630780        2.39596946204534
C           -5.84230411709059       31.04998957627698        1.58993679987410
C           -6.22276281843453       30.82359964994952        0.29505779738584
C           -7.62822741347570       30.46775183711560        0.35009883050818
C           -9.67226310632686       29.60317208727808       -0.69365469490270
C          -10.37904069355296       29.06544211039338       -1.82456548765442
C          -11.64423082819938       28.77008911653525       -1.38890992243611
C          -11.69229822376946       29.17961693129167        0.00019724822634
C          -12.91847104345754       29.61687525520253        2.08104306491215
C          -14.14608610111923       29.67495085563564        2.84158709370569
C          -13.80309060314838       30.09732478602304        4.08877320044926
C          -12.37080658995310       30.28993444130656        4.07396565741538
C          -11.62850505979209       30.67463091542315        5.17463414983832
H          -12.15831449087077       30.83870532237925        6.10041394226164
C           -7.05355574918779       31.08541670455798        3.76595057748803
H           -6.12122794244496       31.32736224321387        4.25340954672662
C           -8.34938098638954       30.00665715695478       -0.73298548941102
H           -7.83267696192497       29.92368322312500       -1.67623349677342
C          -12.84642305019825       29.20286192286658        0.76397999512681
H          -13.76480772511820       28.90644922426499        0.28202991335944
C           -6.98950904201717       31.61455302399034        6.77684160467575
H           -7.24588968406506       31.74952747074858        7.82475806630539
H           -6.51933923577100       32.53100917050718        6.41838374627810
H           -6.25879753859805       30.80925219481081        6.70295177295666
C          -10.09152027528622       31.37903118881233        7.71986103395957
H          -10.59096202767413       30.46660815888714        8.04618916979503
H          -10.82862690488685       32.18248149049887        7.71043860120583
H           -9.32348783875021       31.62793409303004        8.44804007986357
C           -4.50325412848031       31.44957719791056        2.10654415616998
H           -4.17218603530401       30.76035430971985        2.88351205602090
H           -4.53813003567354       32.45107573831894        2.53758811943087
H           -3.76851484315476       31.45047520280189        1.30533734896067
C           -5.39095366754026       30.92348441800104       -0.88612598979295
H           -4.36717556046533       30.58653566267751       -0.76275033553902
C           -5.76780316602983       31.42233905102113       -2.05817143491865
H           -6.75577630704376       31.82006956028846       -2.21808031077986
H           -5.09020724110082       31.47191214267369       -2.89451336579255
C           -9.78673442147334       28.83989313131642       -3.17224864968278
H           -8.97170095943500       28.11753602876259       -3.11679171344887
H           -9.38320085935075       29.76946597405806       -3.57429294553307
H          -10.53518485920918       28.45720251557294       -3.86162714112885
C          -12.70990440964794       28.16429970877829       -2.15912889005051
H          -12.75224215641222       28.45994237626413       -3.20196984028714
C          -13.58366425862424       27.27045924463836       -1.70898454537765
H          -13.55543109395767       26.89953259511164       -0.69837760668153
H          -14.34756691676023       26.85846192793374       -2.34731225324799
C          -15.48762962435164       29.32100583874849        2.29762053445187
H          -15.50967612228388       28.27902678280792        1.97689258232033
H          -15.72802473490787       29.94287607799426        1.43508736685831
H          -16.26002030254471       29.46321609600340        3.04941589465776
C          -14.66997570407579       30.33135664245129        5.27811645704494
H          -15.71417948839505       30.14585817186560        5.03867442999517
H          -14.57395958950595       31.36043444322594        5.62466543008634
H          -14.38391883032894       29.67131093932868        6.09763730111561
O           -9.63763871231504       28.03877258291493        2.71249359545880
H          -10.39317526365971       27.88836109103284        3.29079887290794
H           -9.85359813718904       27.64885097013400        1.85825086215130
C          -12.25780279708644       34.96723924420439        0.33510069405494
H          -11.71406692271783       35.53430815476489       -0.42035086761597
H          -12.65927116588699       35.66995707837378        1.06523491191479
H          -13.08494511709018       34.45289323820648       -0.14393778104532
N          -10.23404613988404       34.33677433760121        1.66872653673284
H           -9.89353297109293       35.27686571022311        1.78660383064583
C          -11.36899722178694       33.97526722454418        0.99126352125658
C           -9.66110256905535       33.20668055539645        2.14104325712014
H           -8.75579865408035       33.18477887887127        2.71229671886832
N          -10.36433010546757       32.15284943771805        1.80405126842389
C          -11.42944251531619       32.61466845270009        1.08851035144801
H          -12.16287370857318       31.94230349053330        0.69470385846767
