78
 energy: -115.959095135391 gnorm: 0.263842911578 xtb: 6.7.1 (edcfbbe)
Fe         -10.05400000000000       30.55000000000000        2.12400000000000
N           -9.46000000000000       30.75100000000000        4.07100000000000
N           -8.01300000000000       30.52500000000000        1.58500000000000
N          -10.48100000000000       29.61400000000000        0.35200000000000
N          -11.88800000000000       29.85500000000000        2.85400000000000
C          -10.29000000000000       30.78000000000000        5.20800000000000
C           -9.46300000000000       31.04400000000000        6.37200000000000
C           -8.20000000000000       31.16800000000000        5.96800000000000
C           -8.16800000000000       30.99600000000000        4.52800000000000
C           -6.97300000000000       30.90900000000000        2.40300000000000
C           -5.80900000000000       31.00600000000000        1.57200000000000
C           -6.13700000000000       30.71600000000000        0.28500000000000
C           -7.55200000000000       30.39700000000000        0.28800000000000
C           -9.62200000000000       29.51000000000000       -0.71100000000000
C          -10.33100000000000       28.91600000000000       -1.80600000000000
C          -11.57100000000000       28.66000000000000       -1.41300000000000
C          -11.71200000000000       29.09700000000000       -0.03100000000000
C          -12.95200000000000       29.52000000000000        2.03800000000000
C          -14.18400000000000       29.71900000000000        2.70400000000000
C          -13.82600000000000       30.14200000000000        4.08200000000000
C          -12.39300000000000       30.20400000000000        4.09200000000000
C          -11.65300000000000       30.58600000000000        5.20200000000000
H          -12.19000000000000       30.74400000000000        6.13700000000000
C           -7.04700000000000       31.10500000000000        3.75800000000000
H           -6.12200000000000       31.37300000000000        4.26900000000000
C           -8.31900000000000       29.94200000000000       -0.77300000000000
H           -7.84200000000000       29.92500000000000       -1.75300000000000
C          -12.85100000000000       29.10000000000000        0.73800000000000
H          -13.76300000000000       28.73200000000000        0.26800000000000
C           -6.94500000000000       31.43300000000000        6.82900000000000
H           -7.23900000000000       31.51400000000000        7.89700000000000
H           -6.46800000000000       32.38500000000000        6.51400000000000
H           -6.22700000000000       30.59300000000000        6.71500000000000
C          -10.01000000000000       31.14100000000000        7.81100000000000
H          -10.90400000000000       30.49000000000000        7.91200000000000
H          -10.30100000000000       32.19000000000000        8.03200000000000
H           -9.23400000000000       30.80300000000000        8.53100000000000
C           -4.39800000000000       31.40200000000000        2.04500000000000
H           -3.78000000000000       30.48800000000000        2.17500000000000
H           -4.46400000000000       31.93400000000000        3.01800000000000
H           -3.91800000000000       32.05600000000000        1.28600000000000
C           -5.18500000000000       30.74500000000000       -0.91500000000000
H           -4.11600000000000       30.54500000000000       -0.75300000000000
C           -5.57400000000000       31.00200000000000       -2.17100000000000
H           -6.63000000000000       31.21000000000000       -2.39700000000000
H           -4.84200000000000       31.00900000000000       -2.99200000000000
C           -9.69200000000000       28.63400000000000       -3.18700000000000
H           -8.65600000000000       28.25700000000000       -3.04600000000000
H           -9.65600000000000       29.57100000000000       -3.78300000000000
H          -10.28600000000000       27.86400000000000       -3.72500000000000
C          -12.63900000000000       28.02800000000000       -2.31800000000000
H          -12.64800000000000       28.24200000000000       -3.39700000000000
C          -13.56900000000000       27.21600000000000       -1.83100000000000
H          -13.59400000000000       26.97600000000000       -0.75800000000000
H          -14.32600000000000       26.77300000000000       -2.49500000000000
C          -15.60500000000000       29.56300000000000        2.20300000000000
H          -15.88700000000000       28.48900000000000        2.21700000000000
H          -15.67900000000000       29.94200000000000        1.16100000000000
H          -16.29900000000000       30.12600000000000        2.86200000000000
C          -14.80300000000000       30.47400000000000        5.21800000000000
H          -15.73200000000000       29.87700000000000        5.09500000000000
H          -15.06200000000000       31.55400000000000        5.18700000000000
H          -14.34000000000000       30.22300000000000        6.19600000000000
O           -9.45800000000000       28.08400000000000        2.92800000000000
H           -9.33200000000000       28.13900000000000        3.87500000000000
H           -9.38700000000000       27.35100000000000        2.42900000000000
C          -12.68100000000000       35.43100000000000        0.74000000000000
H          -12.31500000000000       36.00200000000000       -0.14000000000000
H          -12.82400000000000       36.13100000000000        1.59000000000000
H          -13.64700000000000       34.94799999999999        0.47900000000000
N          -10.37400000000000       34.66800000000000        1.47500000000000
H           -9.98300000000000       35.58799999999999        1.51100000000000
C          -11.67100000000000       34.37900000000000        1.11200000000000
C           -9.74300000000000       33.53300000000000        1.76400000000000
H           -8.69900000000000       33.47400000000000        2.07000000000000
N          -10.58200000000000       32.51900000000000        1.61900000000000
C          -11.79400000000000       33.02600000000000        1.20800000000000
H          -12.63800000000000       32.37400000000000        1.02000000000000
78
 energy: -116.019620990720 gnorm: 0.113515104862 xtb: 6.7.1 (edcfbbe)
Fe         -10.02436080531019       30.42883942272637        2.15459060352553
N           -9.46315105286519       30.78333593541280        4.08274035538877
N           -8.01957921115798       30.55544495188954        1.57015496961866
N          -10.49273817388311       29.63090433498895        0.34343832193830
N          -11.90036712453404       29.89557552125980        2.84941273021180
C          -10.28170608317161       30.78752040764000        5.20321377013399
C           -9.47242949561689       31.04342989860077        6.38344838840183
C           -8.19046428471848       31.17100672029058        5.97497749561065
C           -8.18088098655031       31.00993612140313        4.53129482036547
C           -6.97069493882203       30.91059069014597        2.37541419285199
C           -5.78593664343805       31.01204584626561        1.56229633446617
C           -6.12629466784574       30.72094097922820        0.26818284240897
C           -7.54746486006057       30.41140773055186        0.29274279926258
C           -9.63556782358413       29.52413182520251       -0.71393409364535
C          -10.32453859663488       28.91722464021740       -1.82793511392052
C          -11.59147266725781       28.65440330904040       -1.43071641056930
C          -11.70615577237786       29.10423624295298       -0.04488221066683
C          -12.95770916865490       29.55041034476434        2.05063794656669
C          -14.18955860588517       29.72578891323579        2.74891780668275
C          -13.84243565401213       30.13458388076318        4.05964055203281
C          -12.40983226047600       30.22137175667294        4.07620811799398
C          -11.64962285301884       30.58875789729246        5.18956206403007
H          -12.18264008940269       30.73925133273836        6.12314987662915
C           -7.04949164133201       31.10729390619144        3.74746285081543
H           -6.12755586216395       31.36366751269958        4.26130566279024
C           -8.31950679728802       29.94867070900672       -0.76448572624442
H           -7.84135690948166       29.89834045867341       -1.73475306282027
C          -12.84802951315937       29.10936611653840        0.73425511205753
H          -13.75851392125991       28.74808045255703        0.26839684543818
C           -6.95894609716087       31.42974832350579        6.81985851576859
H           -7.23458394941135       31.51289526616002        7.87614248525978
H           -6.47643512047618       32.36614719516139        6.51695005132359
H           -6.23945045286516       30.60959661344127        6.71199239879940
C          -10.00905404475379       31.13646476442407        7.79631796989540
H          -10.89046459431516       30.49873984454188        7.91205121749269
H          -10.29473111055740       32.17014314469566        8.02720227637528
H           -9.25015095313197       30.81170728091228        8.51655556843243
C           -4.40580695357821       31.39882600266623        2.04333483171458
H           -3.78786668766105       30.50218175503809        2.17461692992561
H           -4.45918731039105       31.92739527316422        3.00025189788044
H           -3.92443971857980       32.04601220192765        1.30283456494180
C           -5.20895453423566       30.73841824600552       -0.90600025858487
H           -4.14972356670708       30.54794702557484       -0.72474679282160
C           -5.57708110277029       31.00113958325216       -2.15853395065793
H           -6.60605407825585       31.22864021265442       -2.40598439067210
H           -4.85598694171242       31.00804945594369       -2.97127065184648
C           -9.69463030865046       28.63394973452367       -3.17591696511202
H           -8.67277734178072       28.26135291163497       -3.04802670242887
H           -9.65778718455629       29.55342743293131       -3.77280601667746
H          -10.27571112220518       27.87993957655134       -3.71578188008558
C          -12.63946891084624       28.03574703424776       -2.29217371852016
H          -12.62314680883784       28.25230565574912       -3.36150659859329
C          -13.57093660153792       27.21630702687226       -1.82477705882799
H          -13.60175548950071       26.95648337591237       -0.77444257206338
H          -14.31640432684150       26.77619273688028       -2.48027488612331
C          -15.58652826464281       29.56056769743498        2.21633299604012
H          -15.88319855495306       28.50311908507665        2.21608253395249
H          -15.67244099967065       29.93462204261812        1.18703585488599
H          -16.28879670219681       30.11436260502122        2.84730175566101
C          -14.79005398224735       30.46309865026123        5.19248595744667
H          -15.71556310246759       29.88489547489257        5.09556772638387
H          -15.05235933559319       31.53041789420436        5.18472287934864
H          -14.34513708717869       30.22815697004877        6.16733310361614
O           -9.46252184137763       28.13187272219231        2.92335279299508
H           -9.33448036569695       28.14107352382788        3.86946176354924
H           -9.38763004061054       27.34182847064525        2.41884573196816
C          -12.66947121706729       35.42232239240890        0.74147578723781
H          -12.32174232393498       35.99561896472033       -0.12711059866613
H          -12.82470557730888       36.11986929371960        1.57371098324237
H          -13.62540944705139       34.95509580641237        0.48745817717409
N          -10.38129414953204       34.66413690832966        1.47216264000053
H           -9.98692236806048       35.58959335597136        1.50655512196918
C          -11.67241965124258       34.37007421262637        1.11644966122972
C           -9.75169962227207       33.51196998974283        1.76794592129177
H           -8.71759180698126       33.46085818088989        2.06812326528227
N          -10.56975276395425       32.48124843333007        1.63447446204507
C          -11.77354356322730       33.00974714326021        1.21897996941028
H          -12.61714545744846       32.37113464904222        1.02764740778634
78
 energy: -116.039132337117 gnorm: 0.035158926821 xtb: 6.7.1 (edcfbbe)
Fe          -9.99806119361616       30.32202878707749        2.18089618102121
N           -9.46127632646870       30.78318793037193        4.08667846860078
N           -8.03366068653266       30.56838955555503        1.56549719658005
N          -10.49529558699361       29.62971475957422        0.34993539891031
N          -11.90276906460367       29.94568011643940        2.83463490746313
C          -10.27182951490069       30.79865571269508        5.18688132838404
C           -9.48020654166425       31.04307467591370        6.38173618048500
C           -8.18681570917791       31.17693759553683        5.97118015884763
C           -8.19369780098744       31.02262906373082        4.52640151515072
C           -6.98065098547636       30.91685418748283        2.35497771218357
C           -5.77933005793943       31.01674659551975        1.55790974104946
C           -6.13252069526829       30.72848721856815        0.25914447500952
C           -7.55830796900892       30.42872435771656        0.30025276855824
C           -9.64870640000281       29.53662528061593       -0.71030332044856
C          -10.32292855791304       28.92686906274803       -1.83680992785201
C          -11.60463004807356       28.65527610190739       -1.43348752993563
C          -11.69761872482570       29.11776715881852       -0.04831662824398
C          -12.95379776219156       29.58921524247504        2.04966906546431
C          -14.18866816203780       29.73433157046996        2.78359154535004
C          -13.85231459372388       30.12976501207404        4.03733509584938
C          -12.41339455817987       30.24909083266305        4.05681639684170
C          -11.64431022205662       30.60198560177001        5.16853897006035
H          -12.17280670893436       30.73404884866730        6.10420273948449
C           -7.05752425701221       31.11491168158438        3.73405513697584
H           -6.13566359024098       31.35217159155811        4.24980054277030
C           -8.32434988827390       29.95414140032864       -0.75492645909980
H           -7.83746091861680       29.86136402115859       -1.71432648007791
C          -12.84445227633519       29.13329604762997        0.73106796933498
H          -13.75472083084908       28.77581060128726        0.27066338314184
C           -6.97478829855298       31.42819790253994        6.80651929937314
H           -7.23984985792801       31.51083282287176        7.85705057811172
H           -6.48575314652731       32.35540117037676        6.51131522911726
H           -6.25257274281359       30.61942403581119        6.70109511597627
C          -10.00820314049794       31.13139579523362        7.77630834892571
H          -10.88317844220331       30.50133349039330        7.90488681393076
H          -10.29208434092443       32.15673499983019        8.01575567767485
H           -9.25744394896046       30.81701499352593        8.49792478081678
C           -4.41859662506761       31.39521693236503        2.04043018942345
H           -3.79776070452310       30.50910848413390        2.17481064215707
H           -4.46360037149359       31.92186496382622        2.98865041716507
H           -3.92901556657498       32.03915764720419        1.31356887296349
C           -5.24186584260195       30.74001846618079       -0.88722307729460
H           -4.19260877693270       30.54460552570927       -0.68238707463202
C           -5.58370891274805       31.00717293292317       -2.14481178070153
H           -6.59255875128060       31.25237883629633       -2.41989813560306
H           -4.86340764616947       31.00382180507627       -2.94684333594776
C           -9.70103428334917       28.63839149386978       -3.16122116671068
H           -8.68668838838700       28.26543036553395       -3.04349629076929
H           -9.65787682572037       29.54488279127749       -3.76550763045032
H          -10.27451131343487       27.89292646914757       -3.70408500374208
C          -12.63100279734064       28.04338193158179       -2.25571294375985
H          -12.59292721345637       28.26943750026453       -3.31743268804001
C          -13.56961808129311       27.21342914916606       -1.81359463467122
H          -13.61478212158012       26.93074563219438       -0.77897750039668
H          -14.30708719707068       26.78282771552050       -2.46962456097455
C          -15.56853253576362       29.55631912720821        2.23035381334456
H          -15.86652578919175       28.50674712649311        2.21955488946374
H          -15.64606310468171       29.92964650499647        1.20933582753631
H          -16.28261414875358       30.10328582840984        2.84122854827921
C          -14.77734430583939       30.45178945947557        5.16955168940886
H          -15.70152868298965       29.88444689758754        5.08682113645735
H          -15.03645955363058       31.51328984890462        5.17242058290706
H          -14.33300922206131       30.22408232070032        6.13691588953233
O           -9.45645383366854       28.19164194276842        2.89986765724286
H           -9.34187810122106       28.13551964620631        3.85117182161814
H           -9.39922232675574       27.36166062466148        2.42013213799071
C          -12.65876208161205       35.40473244292899        0.74402291620286
H          -12.31549816215736       35.97803832364032       -0.11660989957093
H          -12.81726495977455       36.10173646374896        1.56677164102016
H          -13.61020920993777       34.94871747088436        0.49390185532379
N          -10.38246714124632       34.65194891342128        1.47229099430320
H           -9.98472721730679       35.57865371362032        1.50456122913788
C          -11.67252508004007       34.35302721704860        1.12191438665666
C           -9.75706041157123       33.49076832718130        1.77471403320128
H           -8.72984756654435       33.44204623678871        2.07257746721094
N          -10.56122351150754       32.45921299973598        1.64450575190807
C          -11.75921330701873       32.99067075828512        1.23194396982899
H          -12.60327477738832       32.36110334051217        1.03785498719528
78
 energy: -116.043624207556 gnorm: 0.021832137266 xtb: 6.7.1 (edcfbbe)
Fe          -9.99316277503064       30.29606280278414        2.18821825900776
N           -9.46079241209342       30.78990990631727        4.07801546993948
N           -8.05088476457433       30.57760336251093        1.56962813121712
N          -10.49320834280085       29.63151881486123        0.35947018300706
N          -11.89912846299753       29.98214963113816        2.82002512905329
C          -10.26831691864818       30.80527107883171        5.17396250996475
C           -9.48370770555088       31.04825429116508        6.36981420262422
C           -8.19054101067808       31.18559558064153        5.96045194348361
C           -8.19657531160508       31.02841552934640        4.51919856391419
C           -6.99461436917796       30.92560367920043        2.35256690955259
C           -5.79487283431844       31.02761965600638        1.55809878523290
C           -6.15561112385130       30.74360355193303        0.26141450968587
C           -7.57697026742506       30.43875091691666        0.30579369344407
C           -9.65197176505802       29.53748647007991       -0.70293541308751
C          -10.32631202750703       28.93620879580981       -1.82914620944340
C          -11.60673957052911       28.66275905606338       -1.41950087107833
C          -11.69346096419585       29.12963235443686       -0.04057267099683
C          -12.94858829731228       29.62179915626432        2.03683015976376
C          -14.18581043000936       29.74644466162035        2.77814010228059
C          -13.84572959626949       30.14404259582214        4.03385379228222
C          -12.40509099549480       30.27809600609106        4.04535163497576
C          -11.64070414421195       30.61705856019736        5.15582107862330
H          -12.16696991903872       30.74029340807405        6.09227422686099
C           -7.06165371786773       31.11908750941487        3.72902530083555
H           -6.13744346606686       31.34581844785381        4.24243513754581
C           -8.32788434121925       29.94643242400987       -0.74794898839193
H           -7.82804757859291       29.81400859531438       -1.69708417557427
C          -12.84584136543561       29.16181088869488        0.72665814123041
H          -13.75888591613804       28.81832826350124        0.26273699172515
C           -6.98016063840178       31.43223999264060        6.79380839690075
H           -7.24682970580199       31.51178184787534        7.84438614186178
H           -6.48912329637874       32.35907272995752        6.49926261342237
H           -6.25953294389106       30.62188504964671        6.68378561951356
C          -10.01288075351098       31.13006723795218        7.76168893959951
H          -10.88531390290487       30.49537238455995        7.89149278906111
H          -10.30030097962827       32.15452257213912        8.00294857481053
H           -9.25791554972264       30.81839884234904        8.48058785497605
C           -4.43231649370685       31.39594942919960        2.04077524877539
H           -3.81504025167363       30.50623323071056        2.17541550151534
H           -4.47482950139549       31.92186205188899        2.99019075233928
H           -3.93479188520697       32.03884971432633        1.31695910949705
C           -5.26611612392111       30.74234981308413       -0.87690945981638
H           -4.22483484220441       30.53349848103072       -0.64820334032367
C           -5.58407063275275       31.01739240598819       -2.14021760844470
H           -6.57922907930564       31.30938597509425       -2.43471896407338
H           -4.84927714464239       31.00090637770689       -2.92782253095195
C           -9.70671841549543       28.64398626982806       -3.15250370562422
H           -8.69389229287977       28.26434738233121       -3.03450294069558
H           -9.65653182665169       29.54851551054857       -3.76087854488332
H          -10.28553470470501       27.90081646955280       -3.69421063874934
C          -12.63483868227838       28.04853904493242       -2.22857779240023
H          -12.58414666227722       28.27984454498174       -3.28772597700426
C          -13.57469745814926       27.21112619885838       -1.79998860744003
H          -13.62261382434400       26.89888502436167       -0.77126208537723
H          -14.30306398080258       26.78269182427721       -2.46695171767453
C          -15.56007730260382       29.54714658507292        2.22842289188221
H          -15.84099463210010       28.49363547817637        2.21911077423818
H          -15.62595412401986       29.92160046209860        1.20870728514101
H          -16.28356651790109       30.08727413147068        2.83550272617783
C          -14.76622938581037       30.44869494535868        5.16811369474767
H          -15.68792451039876       29.87814174162125        5.08034550962341
H          -15.02335068183255       31.50979949094322        5.17160301723271
H          -14.31045464860742       30.21347882331084        6.12672996397431
O           -9.41529122845877       28.22163136093494        2.87288555971640
H           -9.36231105889965       28.11876470005607        3.83247403783267
H           -9.42598590587533       27.37358758784818        2.41093741577636
C          -12.64867039668344       35.38027777178166        0.74825016680869
H          -12.30040240507505       35.95064667520982       -0.11248547388507
H          -12.80629789513711       36.07901999938848        1.56998468198199
H          -13.60075644877832       34.92510545343695        0.49802876869342
N          -10.37535965721292       34.63235208983404        1.47799093921559
H           -9.97742248541064       35.55829349214763        1.50635293039867
C          -11.66637573797388       34.32970373625886        1.12928502478970
C           -9.75133219314919       33.47171624743314        1.78358671634287
H           -8.72556612105572       33.41932590950832        2.08449801283768
N          -10.55557546092833       32.44680551962109        1.65271631005585
C          -11.75236348977907       32.96881035821037        1.24301827494862
H          -12.59561574597702       32.33800103955461        1.05151661497764
78
 energy: -116.045942580960 gnorm: 0.036745104476 xtb: 6.7.1 (edcfbbe)
Fe          -9.99196976373474       30.29790284994094        2.18897285588134
N           -9.46171615878710       30.79309940514857        4.06331127151875
N           -8.07451136547091       30.58814029141320        1.57716119343654
N          -10.48507749940621       29.63640213882445        0.37172427394858
N          -11.88381420521969       30.01491934803442        2.80250693195474
C          -10.26653925073398       30.81289582108819        5.15811490940684
C           -9.48877079747616       31.05488329507265        6.35410478048622
C           -8.19710293978391       31.19499231154560        5.94722048547874
C           -8.20046371262251       31.03483225732780        4.51035854768271
C           -7.01366136575258       30.93673422221730        2.35380482701384
C           -5.81724160371567       31.04226086488923        1.56136761545810
C           -6.18370205081621       30.76290951163354        0.26799461172172
C           -7.59882380351063       30.45078314274023        0.31386540864104
C           -9.65010628483230       29.53907010774436       -0.69635827096763
C          -10.32851355951693       28.94573865641611       -1.81858349031951
C          -11.60552000357986       28.67225423870099       -1.40106719829281
C          -11.68485967055547       29.14242069905467       -0.02950763202577
C          -12.93642830819962       29.65552769820578        2.02222399963772
C          -14.17420009551222       29.76542966983174        2.76652717098548
C          -13.83184810628320       30.16124721303221        4.02493356493691
C          -12.39129695735986       30.30699996830311        4.02917931182481
C          -11.63860411056929       30.63606394665147        5.14055593288323
H          -12.16424027247761       30.75601505738732        6.07606847583843
C           -7.06691691184069       31.12546686682884        3.72596542741910
H           -6.13951008767042       31.34141344706849        4.23583306532817
C           -8.32623558824876       29.93919894111499       -0.74235114247088
H           -7.81019446565328       29.78769842434817       -1.67826633719833
C          -12.84579504021646       29.19527917803004        0.72081624774787
H          -13.76141618240536       28.86993260135101        0.24913827810384
C           -6.98491817817498       31.43946742504908        6.77808478456199
H           -7.25083415278120       31.51551290437048        7.82968504724795
H           -6.49301030549133       32.36668053973700        6.48374938508962
H           -6.26643937562556       30.62693765470560        6.66155217342722
C          -10.02102389613007       31.13017129901678        7.74482264552851
H          -10.88852057594430       30.48653328787719        7.87198852314881
H          -10.31719197087153       32.15248351824895        7.98775351110344
H           -9.26164323951799       30.82187436376985        8.46166459076384
C           -4.45177488068373       31.40107655088191        2.04387412585337
H           -3.84338660672634       30.50363228577726        2.17782539441304
H           -4.49111092924748       31.92615525190763        2.99506065306837
H           -3.94646353805562       32.04086078682791        1.32112329228799
C           -5.29217051732516       30.75612525493531       -0.86628684996823
H           -4.26266887010800       30.50988636131127       -0.62141411574748
C           -5.59115685284874       31.04690505095651       -2.12987928298060
H           -6.58063152393939       31.33217696320442       -2.44142601380763
H           -4.84539378491858       30.99837363210773       -2.90750903260745
C           -9.71367491461590       28.64980788155633       -3.14380923079851
H           -8.70365571571999       28.25970196170976       -3.02508242158657
H           -9.65442616366570       29.55481920709159       -3.75215124160827
H          -10.30191773396440       27.91156563479970       -3.68423634222224
C          -12.63787946414012       28.04995640419579       -2.19938371865942
H          -12.58955517160445       28.29529083303800       -3.25468600400610
C          -13.57154839955847       27.20125495351244       -1.78065185454662
H          -13.63782042780789       26.88261355408492       -0.75403488994387
H          -14.29951463675358       26.78526360552512       -2.45700712328109
C          -15.54379129444834       29.53762331138417        2.22197219444256
H          -15.80073290384125       28.47755437067616        2.21669418488594
H          -15.60867780761075       29.90796457459083        1.20147848618510
H          -16.28173416713624       30.06405035563797        2.82536696312554
C          -14.74852174987496       30.44589550029808        5.16522404613618
H          -15.66789409528846       29.87176351965287        5.07203013804197
H          -15.00799294190229       31.50632997467601        5.18114566216047
H          -14.28410419611595       30.19783235606062        6.11597463614823
O           -9.34019888643287       28.23263962255488        2.83853804573646
H           -9.39874716505210       28.08721889444263        3.80529693775417
H           -9.47899782346830       27.35733531088988        2.41127912126949
C          -12.63699568752388       35.35007596251009        0.75361488904167