87
 energy: -128.343051709939 gnorm: 0.255966886473 xtb: 6.7.1 (edcfbbe)
Fe         -36.79599999999999       15.75900000000000        2.66300000000000
N          -38.61100000000000       16.58600000000000        2.86200000000000
N          -37.80200000000000       14.11200000000000        2.07300000000000
N          -35.04600000000000       14.80900000000000        2.48200000000000
N          -35.80799999999999       17.42200000000000        3.31400000000000
C          -38.81900000000000       17.89300000000000        3.32100000000000
C          -40.23700000000000       18.23000000000000        3.18000000000000
C          -40.86899999999999       17.17000000000000        2.60200000000000
C          -39.82700000000000       16.15900000000000        2.41200000000000
C          -39.14300000000000       13.92900000000000        1.85600000000000
C          -39.44000000000000       12.52600000000000        1.54700000000000
C          -38.25100000000000       11.91200000000000        1.56100000000000
C          -37.23000000000000       12.89400000000000        1.86500000000000
C          -34.87500000000000       13.52800000000000        2.00800000000000
C          -33.46200000000000       13.29900000000000        1.71400000000000
C          -32.83800000000000       14.42500000000000        2.00100000000000
C          -33.78500000000000       15.39600000000000        2.50400000000000
C          -34.40900000000000       17.57900000000000        3.40400000000000
C          -34.09800000000000       18.86400000000000        4.04000000000000
C          -35.47500000000000       19.51700000000000        4.28800000000000
C          -36.47900000000000       18.56600000000000        3.79700000000000
C          -37.85400000000000       18.75400000000000        3.83500000000000
H          -38.21300000000000       19.66500000000000        4.31400000000000
C          -40.06100000000000       14.93300000000000        1.90700000000000
H          -41.05599999999999       14.73000000000000        1.51100000000000
C          -35.89800000000000       12.63200000000000        1.90400000000000
H          -35.61300000000000       11.58200000000000        1.84500000000000
C          -33.47400000000000       16.66900000000000        2.94400000000000
H          -32.42800000000000       16.97500000000000        2.92800000000000
C          -42.35699999999999       16.92400000000000        2.18600000000000
H          -42.96500000000000       17.82000000000000        2.43500000000000
H          -42.76200000000000       16.05000000000000        2.73900000000000
H          -42.41600000000000       16.74100000000000        1.09200000000000
C          -40.68900000000000       19.62500000000000        3.60400000000000
H          -40.15100000000000       20.38800000000000        3.00200000000000
H          -40.45700000000000       19.78400000000000        4.67900000000000
H          -41.78100000000000       19.73400000000000        3.43100000000000
C          -40.83600000000000       11.87600000000000        1.26000000000000
H          -41.60000000000000       12.67400000000000        1.14300000000000
H          -41.12700000000000       11.22100000000000        2.10900000000000
H          -40.78800000000000       11.28300000000000        0.32200000000000
C          -37.98599999999999       10.41300000000000        1.28400000000000
H          -37.09100000000000       10.10100000000000        0.72500000000000
C          -38.83000000000000        9.46500000000000        1.71300000000000
H          -39.73600000000000        9.73700000000000        2.27500000000000
H          -38.62799999999999        8.40300000000000        1.50800000000000
C          -32.79600000000000       12.01400000000000        1.18800000000000
H          -33.56300000000000       11.36600000000000        0.71200000000000
H          -32.33000000000000       11.46100000000000        2.03100000000000
H          -32.02500000000000       12.27400000000000        0.43200000000000
C          -31.35900000000000       14.67100000000000        1.89700000000000
H          -30.85500000000000       15.42200000000000        1.28700000000000
C          -30.75600000000000       13.80100000000000        2.69100000000000
H          -31.34400000000000       13.07600000000000        3.27300000000000
H          -29.66000000000000       13.79200000000000        2.77900000000000
C          -32.71200000000000       19.45300000000000        4.40100000000000
H          -32.17200000000000       19.72800000000000        3.47000000000000
H          -32.11500000000000       18.69600000000000        4.95400000000000
H          -32.84200000000000       20.36400000000000        5.02400000000000
C          -35.70800000000000       20.88700000000000        4.94200000000000
H          -34.84500000000000       21.55300000000000        4.72600000000000
H          -35.80300000000000       20.76600000000000        6.04200000000000
H          -36.63100000000000       21.34800000000000        4.52900000000000
C          -36.66000000000000       14.81100000000000        8.30900000000000
H          -36.09000000000000       13.97000000000000        8.75900000000000
H          -37.70600000000000       14.77600000000000        8.68100000000000
H          -36.18300000000000       15.76900000000000        8.60600000000000
N          -37.17099999999999       13.57900000000000        6.18800000000000
H          -37.54799999999999       12.77700000000000        6.65000000000000
C          -36.64900000000000       14.68200000000000        6.82900000000000
C          -37.08900000000000       13.76100000000000        4.88200000000000
H          -37.41300000000000       13.03600000000000        4.13700000000000
N          -36.55700000000000       14.95200000000000        4.65600000000000
C          -36.28700000000000       15.55500000000000        5.85800000000000
H          -35.86200000000000       16.55000000000000        5.90900000000000
C          -36.38699999999999       16.91300000000000       -2.86100000000000
H          -35.46200000000000       17.51400000000000       -2.99300000000000
H          -37.19000000000000       17.34400000000000       -3.49600000000000
H          -36.18200000000000       15.86500000000000       -3.16700000000000
N          -37.10600000000000       18.12400000000000       -0.79600000000000
H          -37.11400000000000       19.02500000000000       -1.22900000000000
C          -36.80000000000000       16.94700000000000       -1.44100000000000
C          -37.38200000000000       17.86499999999999        0.46600000000000
H          -37.67000000000000       18.61500000000000        1.20200000000000
N          -37.24800000000000       16.56400000000000        0.66500000000000
C          -36.87400000000000       15.96900000000000       -0.51100000000000
H          -36.69600000000000       14.90300000000000       -0.57500000000000
87
 energy: -128.411350276032 gnorm: 0.115054432434 xtb: 6.7.1 (edcfbbe)
Fe         -36.82018220246099       15.74562298294552        2.67756795556418
N          -38.61814561441636       16.60295220952042        2.88830800154081
N          -37.81097390111922       14.08777049044730        2.06417026127939
N          -35.04774504050236       14.83432955625927        2.41666772666409
N          -35.81418779642864       17.42599715133383        3.29783164206360
C          -38.81352392861233       17.89068221822648        3.33547835437202
C          -40.22545567578614       18.24310089822772        3.18420963031737
C          -40.86145326161640       17.18496108749073        2.60505168098940
C          -39.82694887483166       16.17478531445161        2.42507456849457
C          -39.14653600406988       13.91071445207260        1.84519826520582
C          -39.44604478111514       12.51659809730382        1.53844884811360
C          -38.24605330603708       11.87706362534755        1.55512717999907
C          -37.23485777378573       12.87172127637013        1.86084502980001
C          -34.86537590739865       13.53684995758037        2.01119539421649
C          -33.46373381672214       13.29631517273022        1.71488866003160
C          -32.83160096406787       14.45808208737951        1.98125173258592
C          -33.80079552852712       15.41445669568257        2.47456430476604
C          -34.44426740579357       17.60538928537084        3.41307502242409
C          -34.15258926107945       18.88357550605764        4.04077311148547
C          -35.43481933047852       19.49227808924299        4.28375230719506
C          -36.43969452147255       18.55213640438955        3.80930467148593
C          -37.82957831897372       18.74226924366380        3.83811315272040
H          -38.18970664163448       19.66035989173702        4.29553310520124
C          -40.07199895212698       14.92819956147126        1.90635460766337
H          -41.06613105439287       14.72467451014992        1.52744693370389
C          -35.88548113724865       12.61425425411717        1.90349436077588
H          -35.59879870966214       11.57275093246578        1.81626342370969
C          -33.50166787769101       16.68291315240739        2.94857908385376
H          -32.45322879488899       16.97562660266928        2.94393819847540
C          -42.32061608253218       16.94288719429435        2.20050502817383
H          -42.94561680428048       17.81159862695629        2.43528180917823
H          -42.73776419938370       16.07519535209980        2.73040297399962
H          -42.40176873181151       16.74888050985002        1.12204678862914
C          -40.69710132270576       19.61330636144486        3.59791455074065
H          -40.16657500355711       20.37566139099907        3.01251589096663
H          -40.47157265361385       19.78096770812143        4.65850742288692
H          -41.77236139714164       19.73296578422457        3.43540164910645
C          -40.81584627673903       11.90043131173537        1.26288883037137
H          -41.58418140314563       12.67012536491049        1.14369188328948
H          -41.12019922021022       11.24875020761898        2.09144134948687
H          -40.77973749513446       11.29698613737598        0.34714343512164
C          -37.99455075280399       10.42520404825811        1.29628422568806
H          -37.10255080001841       10.13420409428575        0.74051005389352
C          -38.82461956581096        9.47300659259002        1.71083182927230
H          -39.71691984840447        9.71802875792402        2.27291084664195
H          -38.63102136456946        8.42321366371379        1.50982206543380
C          -32.81858513879043       12.02604838998491        1.19220999368365
H          -33.55839098309539       11.37388935085837        0.71754112815707
H          -32.34440924607666       11.47041750960532        2.01113315317684
H          -32.04472768551220       12.27174329673752        0.45391905208796
C          -31.36657470968957       14.65987837194019        1.91958545885516
H          -30.88136384556139       15.40871405278498        1.30367088732482
C          -30.72731209143726       13.80162290952056        2.69897593012883
H          -31.29931156777775       13.08552988419964        3.27814292222368
H          -29.64788023632103       13.78710766456592        2.78418966496271
C          -32.76712231046385       19.43870441272458        4.38687083707779
H          -32.20004435995583       19.71597069393228        3.48440223859318
H          -32.15220220893097       18.70870243525360        4.93569161729370
H          -32.85100570270716       20.33862179540361        5.00909653124867
C          -35.69238527842759       20.84908870581408        4.92289481762145
H          -34.85844372138845       21.53481084528146        4.72708267480548
H          -35.80053978300689       20.76099994291519        6.01437616469186
H          -36.60607584508656       21.32147530608270        4.53426555487508
C          -36.65741369512385       14.80803344931200        8.31594012961259
H          -36.09602438239390       13.98091126933597        8.76683919824851
H          -37.68799024688135       14.77908870626678        8.68986648493000
H          -36.19238158001455       15.75395473333308        8.60604779115797
N          -37.16654439547644       13.57559630353280        6.20836533208671
H          -37.54210327298899       12.76665448253831        6.66937162189336
C          -36.65951421322501       14.68407748783569        6.83878910840786
C          -37.09210210552030       13.77299597875057        4.88898843005268
H          -37.40532880895056       13.05136080299282        4.15397379599059
N          -36.59046460442584       14.96349072027409        4.64392654288266
C          -36.29950153372422       15.54520226487597        5.84626157560196
H          -35.86819252723572       16.52941901335807        5.89794938795157
C          -36.38583845265040       16.91621295041076       -2.87161069037192
H          -35.47173081959979       17.50688372031864       -3.00737353527211
H          -37.17644494412082       17.33624134231162       -3.50391282961291
H          -36.18674657465889       15.88325927487124       -3.16995476937108
N          -37.10672588346031       18.12442136022118       -0.81268556755774
H          -37.12046992991110       19.03135405991366       -1.24454440454842
C          -36.79074775688721       16.95151811546567       -1.44993649137234
C          -37.36690578483210       17.84944605616072        0.46889288303460
H          -37.66071772799518       18.58921618701385        1.19671723645717
N          -37.20654968964291       16.56143029576842        0.68725094595082
C          -36.86753902036626       15.98000025330259       -0.50056326385208
H          -36.70006803088144       14.92006179071569       -0.56825538668716
87
 energy: -128.435709316641 gnorm: 0.045540032234 xtb: 6.7.1 (edcfbbe)
Fe         -36.83377460805939       15.73985646152414        2.67495421500120
N          -38.61934551838234       16.60954326668052        2.91836940519010
N          -37.81426526958147       14.06655894282567        2.05727070949431
N          -35.05539270076407       14.85069161905533        2.36773908388678
N          -35.82365776711059       17.42608798495418        3.30290228186858
C          -38.80610886332397       17.88168176311982        3.35527165108070
C          -40.21025667301346       18.25267696970059        3.19378217838937
C          -40.84632749530783       17.19336241146527        2.61376873644542
C          -39.82196116054927       16.17738551359556        2.44691294844632
C          -39.14620536456373       13.89697667409838        1.84113960372155
C          -39.44864714269361       12.51480712213250        1.53612805468507
C          -38.24379696293855       11.85215905776277        1.55374188350057
C          -37.23649207444694       12.85397387597417        1.85198595689657
C          -34.86600191531633       13.55208971776226        1.99356799428261
C          -33.46889164646050       13.29954645013822        1.72508720056331
C          -32.83020254572546       14.48326192126014        1.97273086030401
C          -33.82534899000494       15.43353191291098        2.42862684816311
C          -34.47772548962307       17.61829409511604        3.41023824008344
C          -34.20299988532776       18.89485498001892        4.04240456898543
C          -35.40269088891993       19.46910299805593        4.27944767837014
C          -36.41841686912936       18.53904517688802        3.81453076927928
C          -37.81045798379930       18.73223208630917        3.84044819208428
H          -38.16473657971250       19.66198541235048        4.27203838792332
C          -40.07637121692526       14.92289850864562        1.91882038064663
H          -41.07319726157409       14.72125952011876        1.55766414040165
C          -35.87464636460792       12.60369727256152        1.88277354040231
H          -35.57929418562785       11.57002916432533        1.77471285700490
C          -33.53524609926738       16.69669944020988        2.93390486148820
H          -32.48487341133156       16.97390142317013        2.96303612614941
C          -42.27984397975534       16.96834783427985        2.21705465576049
H          -42.91110310816334       17.82398421211576        2.44554384222965
H          -42.69754972454651       16.10240045024597        2.73714298424844
H          -42.36789834023926       16.76599312060155        1.14664914578635
C          -40.70400783786001       19.60425773619220        3.59365799914423
H          -40.18332682812220       20.37105506646124        3.01768624856515
H          -40.48880458810737       19.77998743862796        4.64773584315870
H          -41.77092651366079       19.71794774666487        3.43290014436593
C          -40.79452995761548       11.92345314839794        1.26489784001007
H          -41.55905092301333       12.68350946927395        1.13894617728568
H          -41.11176638893280       11.27928847503734        2.08616865943557
H          -40.76556311707048       11.30797629175919        0.36426973695463
C          -38.00429954554524       10.44401385285568        1.30568943416230
H          -37.10559772247830       10.17477380640785        0.76038339148465
C          -38.82063251837675        9.47696098534616        1.70880454720004
H          -39.70614027563440        9.69447754868420        2.27604479427602
H          -38.62749266315098        8.43670497500715        1.50729438096577
C          -32.84148046981106       12.04222449608638        1.20316698464864
H          -33.56920954750954       11.39451972076434        0.72339383179894
H          -32.36667995961360       11.47611534527236        2.00570889605120
H          -32.06414332739844       12.28182199788086        0.47642584477989
C          -31.37843060094900       14.64741122939146        1.94663947818263
H          -30.91326242035340       15.40448140827117        1.32895142206313
C          -30.69293399940078       13.80287289230361        2.70530912299565
H          -31.24275285352622       13.08917462294089        3.29408899031084
H          -29.62290594045427       13.79255822145109        2.78100246280972
C          -32.82469247355801       19.42602143613957        4.37257889328231
H          -32.25513422039730       19.69517711907703        3.47705938631530
H          -32.21644671005654       18.69644482210592        4.91509368310880
H          -32.88559662257180       20.31878036364776        4.99547731790603
C          -35.67677530091809       20.81246934938826        4.90682973197838
H          -34.85697516133941       21.50550184715964        4.71931926188497
H          -35.79522740937062       20.73343134313340        5.99178046775801
H          -36.58692049518669       21.27500453738296        4.52082487290564
C          -36.65080993968926       14.80944620810834        8.32122630016115
H          -36.09454284616422       13.98964121563439        8.77181177299389
H          -37.67142679780529       14.78201525102268        8.70187069445560
H          -36.19421317547436       15.74897622521407        8.60865872956812
N          -37.16183231860456       13.57074152690192        6.22555746879504
H          -37.52921726970048       12.75530015622917        6.68696871887475
C          -36.66865191384247       14.68823980277490        6.84327740786005
C          -37.10946210380708       13.78159168449831        4.89604955181282
H          -37.41135960924161       13.05692528693174        4.17144725500036
N          -36.63341171391968       14.97168557468220        4.62941544802750
C          -36.32751955031940       15.54193790434588        5.83106791735572
H          -35.88649678727302       16.51664662046518        5.88618990740768
C          -36.38787990554775       16.91555947648726       -2.88361497820316
H          -35.48091918573424       17.50179378109697       -3.02575087236464
H          -37.17151262660375       17.32911752057049       -3.51460727315025
H          -36.19098760127284       15.89155149266166       -3.17828984397254
N          -37.10850358640695       18.12353618919583       -0.82486403807321
H          -37.13409976936480       19.03372218079220       -1.25509145436952
C          -36.78201783380026       16.95303101134169       -1.45655937145528
C          -37.33676973063967       17.83824619313439        0.47432835875957
H          -37.63789248454978       18.56979492609523        1.19640614816007
N          -37.15778966064923       16.56134233169446        0.70422014181476
C          -36.84113423168562       15.99027183113144       -0.48950234236641
H          -36.68511487912692       14.93355095590456       -0.56373547564475
87
 energy: -128.445563124939 gnorm: 0.020638537566 xtb: 6.7.1 (edcfbbe)
Fe         -36.84264999534579       15.73382775010354        2.67392940528709
N          -38.61500612000735       16.60637300158189        2.94455658373918
N          -37.80947542801024       14.06019305587155        2.04573475868055
N          -35.06950938948550       14.86385256044055        2.31070345083893
N          -35.84185519370854       17.42149592664508        3.29309167787782
C          -38.80298666825475       17.87706391657339        3.37694106388209
C          -40.19879180701857       18.25791024908392        3.20927007323117
C          -40.82846221289842       17.19789509806170        2.63164535741981
C          -39.81522077705322       16.17257410064650        2.47296345425638
C          -39.14299576873731       13.89514616163106        1.84564120434089
C          -39.44646494756108       12.51996755061427        1.54009179332160
C          -38.24469989579462       11.84981828561286        1.55453349158192
C          -37.23323787683304       12.84933307265353        1.83367079738042
C          -34.87310349553588       13.56247552844663        1.95718989809059
C          -33.47342477712803       13.30720796263357        1.72419551433266
C          -32.83069312756317       14.48832182634008        1.97819154146189
C          -33.84179557970905       15.44222809061649        2.38983696809873
C          -34.49789166328724       17.60571342250978        3.39017062425117
C          -34.21364929915821       18.87905801533726        4.02339350690306
C          -35.42142324892490       19.45980571754257        4.28125506621345
C          -36.43312734369498       18.52537055051858        3.82047314560807
C          -37.81193156744262       18.72984257707649        3.85301315534820
H          -38.15348085147666       19.67606015795603        4.25643377765280
C          -40.07483298509975       14.92021422286368        1.94462486140629
H          -41.08053089911716       14.71690334457394        1.60633970451359
C          -35.87001526136341       12.60277570637001        1.84665151018986
H          -35.56270716160444       11.57361972109462        1.71592541488146
C          -33.55677596837700       16.69768884071832        2.91223593229969
H          -32.50846531654793       16.97113678527907        2.97429530548659
C          -42.25325875527083       16.99240461762238        2.23281460416876
H          -42.87218860407543       17.85535531089673        2.46283435920190
H          -42.66896506230260       16.12860145598660        2.75532340825861
H          -42.33184843565740       16.79148121532737        1.16271339910194
C          -40.71295978426524       19.60351540508951        3.59591407595482
H          -40.20299289381303       20.37706217165296        3.01963121669118
H          -40.51192479811580       19.78816483029278        4.65124109553683
H          -41.78128589236523       19.69531934105164        3.42562211215493
C          -40.79121778581570       11.94163305029842        1.26588258014787
H          -41.54259499314002       12.71206706994914        1.12174068770048
H          -41.12010388441872       11.31382531852053        2.09494116293796
H          -40.75503485063610       11.31248441346282        0.37505891779950
C          -38.00400763099783       10.44645513477954        1.31253332111027
H          -37.09567323871124       10.19456927499298        0.77592332653132
C          -38.81270668824159        9.46747967824009        1.70645965009745
H          -39.69967754507929        9.66717165317329        2.28026158558215
H          -38.61010104038159        8.43197860455272        1.49634015364747
C          -32.85713971633306       12.04799853324272        1.21105903258613
H          -33.59037719841691       11.41418509927893        0.72005203102945
H          -32.39735713020637       11.47236087579762        2.01475319152430
H          -32.07155007068969       12.28905507727009        0.49472429832688
C          -31.38083828455847       14.64930593107965        1.97634248623772
H          -30.93283336925469       15.41966107948911        1.36211462832946
C          -30.65962425420247       13.81318328755626        2.71549566680362
H          -31.17537340656293       13.08199859932972        3.31703894134190
H          -29.58605736632794       13.81700035482398        2.76470243177306
C          -32.85154159565130       19.40900410811834        4.35406438485725
H          -32.29718962616062       19.67323079272615        3.45171206741143
H          -32.26383737430324       18.66716817055839        4.89576166288705
H          -32.92284738387951       20.29806333955814        4.97806448362787
C          -35.68143747318738       20.79610033550185        4.90335125238024
H          -34.85623904028735       21.47917530411457        4.71012025369027
H          -35.79768958853182       20.70721826724430        5.98521056873910
H          -36.58986818555078       21.24521780689654        4.50673271983001
C          -36.64144922022117       14.81590372253430        8.32767094350848
H          -36.07910661218984       13.99824770669475        8.77534666345340
H          -37.65683498833326       14.78634540271597        8.72382919153269
H          -36.18558975174199       15.75725346123625        8.61101822871270
N          -37.16457842831574       13.56370167391634        6.24363114540234
H          -37.51068207937851       12.74216275241061        6.71189265448414
C          -36.67928406871121       14.69228157349951        6.84866628020105
C          -37.14042351633332       13.77517300611050        4.91136787834366
H          -37.43711297192758       13.04186101622914        4.19439248030691
N          -36.68475153628112       14.96997911364142        4.62992380988628
C          -36.36804179809010       15.54591895381496        5.82555425102477
H          -35.92620853571370       16.51956727724803        5.87417500835238
C          -36.39273796727659       16.91246020652889       -2.89715591815224
H          -35.48857719258384       17.50027261731588       -3.05550887349782
H          -37.18182979292856       17.32084295061042       -3.52529358677079
H          -36.19582850460259       15.88852245835233       -3.19298883275641
N          -37.10137265175141       18.12098902259685       -0.83073955817938
H          -37.15211811731070       19.02945116502827       -1.26423562587065
C          -36.76742271950469       16.95173971024603       -1.46238858037194
C          -37.29379252506365       17.83598628782180        0.47789594941269
H          -37.59804368505392       18.56306810201101        1.20193242537024
N          -37.09108731860465       16.56397300259522        0.71220430357135
C          -36.79234130895198       15.99431220269176       -0.48651013253507
H          -36.63623713499692       14.93861790627893       -0.56321490200472
87
 energy: -128.451866640248 gnorm: 0.016679993695 xtb: 6.7.1 (edcfbbe)
Fe         -36.84397061852950       15.73217081409028        2.65618514376784
N          -38.60153542695327       16.60947940053628        2.95495223003770
N          -37.80136386335435       14.06020616555172        2.03479138322555
N          -35.08315179734008       14.87068910542598        2.27846506901511
N          -35.86598195007545       17.40354241501118        3.29553635829267
C          -38.79701664687695       17.87764727291277        3.39215126427007
C          -40.18640135648644       18.26137994913616        3.22840467265198
C          -40.81095628660381       17.19974717795568        2.65524761144856
C          -39.80510898256832       16.16946741337456        2.49870186106578
C          -39.13793565064221       13.89646088592385        1.85647758584329
C          -39.44488198866003       12.52668276339713        1.55081219542468
C          -38.24639525952848       11.85198898826903        1.55406707603174
C          -37.23006158097091       12.84936572965976        1.81374128527009
C          -34.88250736845340       13.57391489473215        1.92179136674045
C          -33.47874047162539       13.31405090727876        1.72925526301681
C          -32.83164509577358       14.48818527352257        1.99876911547170
C          -33.85559659841839       15.44382057892820        2.37274201536796
C          -34.52296883687712       17.58943638418977        3.37502573148827
C          -34.23227709073566       18.85898903916686        4.00845508585529
C          -35.43737716685894       19.44201265945962        4.27561521234543
C          -36.44856611132128       18.50962014633012        3.82232215645623
C          -37.81406914006824       18.73462807665415        3.86110185076236
H          -38.14379658207628       19.68862631752426        4.24949762109234
C          -40.07159422222688       14.91777353672899        1.98055374470147
H          -41.08737050884301       14.71024831711966        1.67242995737032
C          -35.86704685710729       12.60668577948211        1.79937048996819
H          -35.54814185435765       11.58413439722139        1.64420257828273
C          -33.57809733055299       16.69607920770838        2.89926543118686
H          -32.53530006511130       16.97300037695581        2.97762324885713
C          -42.23356680563762       17.01606139334239        2.25132017036513
H          -42.83377642174663       17.89165464428533        2.48281449668387