91
 energy: -128.077352447695 gnorm: 0.000055169480 xtb: 6.7.1 (edcfbbe)
Fe           7.04516773565491       10.09636025861410       34.95866666566170
N            5.42798405733520        9.31170989894304       34.07254342038512
N            7.76249989795413        8.25628378761257       35.25787976223965
N            8.65363963514346       10.87086219552247       35.84700527032156
N            6.31340569159063       11.93695947560103       34.66484343852292
C            4.42103428824010        9.99309162201840       33.46284600189862
C            3.44279874033742        9.07792555235103       32.91808793774782
C            3.87606961657389        7.82614455419471       33.22793429576853
C            5.12289793726608        7.99351471360927       33.94053834132215
C            7.14524148093008        7.07754676685922       34.98183005405026
C            7.99651228522619        5.96035350920744       35.32737891472286
C            9.15941390979180        6.49599224185820       35.78669568658424
C            8.98984994356859        7.93162954453599       35.74243304228306
C            9.76332353454630       10.20288371296567       36.24911802505407
C           10.72536637858471       11.11404507145136       36.83841305094633
C           10.15588630681322       12.35805202646438       36.77229751753752
C            8.87469991901023       12.18173798376706       36.13622783582712
C            6.84589551331565       13.10530806042519       35.10661877787191
C            6.01700905990122       14.22764542790045       34.70991863530473
C            4.98410601215069       13.69430595567845       33.98402319666735
C            5.18503005784026       12.26829067132657       33.98050831428902
C            4.30752337168795       11.36770193746373       33.39956671310583
H            3.44857024602306       11.77066310359932       32.88497846241071
C            5.90166868189916        6.94258193802164       34.39101724081440
H            5.53070608099755        5.94157942226680       34.23009116788335
C            9.93961377790518        8.83226401917648       36.18700246079982
H           10.87245260118545        8.43007956841467       36.55185091187881
C            8.01842308166349       13.22538703275428       35.82727594845817
H            8.30862011880818       14.21529022169525       36.14507899454965
C            2.21655597214636        9.49694424686028       32.18174573013526
H            2.47975449844264       10.09305839363633       31.30766754978439
H            1.57247198808842       10.10185928098741       32.82076293425578
H            1.65012577110383        8.63103451606301       31.84759670066392
C            3.25299745216713        6.50724332653335       32.92016293769438
H            3.05652069232607        5.95207843328285       33.83774870834890
H            3.91486465485756        5.90448713275805       32.29726251735380
H            2.31177386311336        6.63779487973290       32.39180790649934
C            3.88844350903914       14.40760166784970       33.27128586526903
H            2.97132467616671       14.40707259621421       33.86316209300774
H            3.67387752470433       13.92762306374645       32.31755018672884
H            4.17513516166534       15.44066019053222       33.08488061941811
C            6.29902329067374       15.61193411150127       35.01672850588510
H            7.34892319472565       15.87227014163489       35.08729556487794
C            5.38900712209405       16.55871525627673       35.22325628964136
H            4.33326884370862       16.35133979316712       35.21487507252694
H            5.67315304221434       17.57601381955883       35.43602424770260
C           10.74164793717940       13.66531343325362       37.17916594489458
H           10.35257560861753       13.98156229108914       38.14853635943044
H           10.50201884936715       14.44009419557312       36.45226074161958
H           11.82400354552322       13.58233255481867       37.25389119876435
C           12.01808414782898       10.72477661852218       37.35610575649481
H           12.49947449177377        9.90177674004329       36.84002635444167
C           12.63462782665024       11.28214690747346       38.39338226738131
H           12.18342181011436       12.06853851310034       38.97281990341217
H           13.60708079161100       10.94920134722994       38.71671386849034
C           10.39389295670915        5.80745699692220       36.26030383341755
H           10.27149929739448        4.72745091108108       36.22844604327825
H           10.62988234179365        6.09523633126682       37.28527347793575
H           11.24472317387438        6.07491189980532       35.63278761163894
C            7.61071915818723        4.52878023745330       35.17468184977364
H            8.39668795011380        3.87491764226460       35.54450899825765
H            7.42910463972315        4.28677224311472       34.12675202443024
H            6.69828457014932        4.31720430782388       35.73253041551963
C            9.98807474349236       11.65018898851639       30.48750900949494
H            9.45142429446271       11.78494074016832       29.54837700391309
H           10.91884782100875       11.12395520690105       30.27563378269568
H           10.22622754201904       12.62749294058455       30.89542190907402
N            8.71082168600082        9.62264282448361       31.21544405112799
H            8.88191171465800        9.08942618075582       30.37882798644599
C            9.16360851465995       10.89235447794000       31.46253377928781
C            7.99873953297063        9.22495306052086       32.29406087059319
H            7.52366578450787        8.26978267377405       32.38109967329304
N            7.97334185332834       10.16419499289282       33.20732054449275
C            8.69345041829402       11.20741777644539       32.70502520864748
H            8.82407576201989       12.10882550346652       33.26691921386425
C            7.52978111892111        6.70799391792963       39.20723145722887
H            7.03677625593023        5.74115122796425       39.27975800483654
H            7.91932615260713        6.97083943804784       40.18863398627738
H            8.36371227564458        6.61702780077563       38.51675718552300
C            6.55982261021325        7.77178198055543       38.70917662004175
H            5.70405286007022        7.83352388334341       39.38808358550573
H            6.19618108228646        7.47181846200833       37.72450541246901
C            7.24011496885384        9.13587175595401       38.60999721769495
H            8.05267507100557        9.07913910988674       37.88863536619342
H            7.66197943014781        9.39856914247933       39.58261627775620
C            6.29677267578524       10.25161790417058       38.17372262944527
H            6.83050036078770       11.20454223788085       38.20061262893446
H            5.44896327250379       10.30937042198348       38.87544990984026
N            5.82596932187451       10.04804016924347       36.80448991513533
H            5.33943418098112        9.15641428940901       36.74587501409790
H            5.15138837924401       10.77272859630008       36.56961159216920
