87
 energy: -124.551739594536 gnorm: 0.355071054821 xtb: 6.7.1 (edcfbbe)
Fe           7.02900000000000       10.27700000000000       44.91299999999999
N            6.99900000000000       10.76200000000000       46.94899999999999
N            6.53200000000000       12.25400000000000       44.51700000000000
N            7.08700000000000        9.81000000000000       42.84199999999999
N            7.55000000000000        8.26900000000000       45.30599999999999
C            7.40700000000000        9.91400000000000       47.91100000000000
C            7.25800000000000       10.55100000000000       49.15300000000000
C            6.73100000000000       11.80400000000000       48.88000000000000
C            6.58300000000000       11.91700000000000       47.49900000000000
C            6.14100000000000       13.18500000000000       45.40400000000000
C            5.87200000000000       14.35600000000000       44.72100000000000
C            6.13100000000000       14.13100000000000       43.36900000000000
C            6.50900000000000       12.78700000000000       43.27400000000000
C            6.89000000000000       10.71900000000000       41.87400000000000
C            6.81000000000000       10.02300000000000       40.65800000000000
C            6.94700000000000        8.66800000000000       40.92300000000000
C            7.11700000000000        8.56700000000000       42.31800000000000
C            7.62100000000000        7.26200000000000       44.41500000000000
C            8.08300000000000        6.13500000000000       45.10099999999999
C            8.29200000000000        6.47600000000000       46.42700000000000
C            7.92500000000000        7.83000000000000       46.52900000000000
C            7.93400000000000        8.64600000000000       47.66699999999999
H            8.44800000000000        8.20900000000000       48.52000000000000
C            6.06600000000000       12.98100000000000       46.78100000000000
H            5.54200000000000       13.74400000000000       47.35599999999999
C            6.84800000000000       12.09200000000000       42.11000000000000
H            7.12000000000000       12.71700000000000       41.25999999999999
C            7.29800000000000        7.40000000000000       43.06199999999999
H            7.17000000000000        6.46800000000000       42.51200000000000
C            6.35900000000000       12.92500000000000       49.86499999999999
H            6.74000000000000       12.67100000000000       50.87700000000000
H            5.25400000000000       13.03200000000000       49.91199999999999
H            6.81900000000000       13.88100000000000       49.53700000000000
C            7.60900000000000        9.95000000000000       50.52600000000000
H            8.66500000000000       10.18900000000000       50.77600000000000
H            7.48700000000000        8.84600000000000       50.49500000000000
H            6.94700000000000       10.38300000000000       51.30599999999999
C            5.41900000000000       15.64400000000000       45.42999999999999
H            6.19800000000000       15.96200000000000       46.15600000000000
H            4.47100000000000       15.45700000000000       45.97799999999999
H            5.27200000000000       16.45200000000000       44.68200000000000
C            6.02600000000000       15.09300000000000       42.16999999999999
H            5.36000000000000       14.95400000000000       41.31100000000000
C            6.98100000000000       16.30600000000000       42.30800000000000
H            7.63300000000000       16.40600000000000       43.18899999999999
H            7.01700000000000       17.08000000000000       41.52699999999999
C            6.58800000000000       10.69700000000000       39.27900000000000
H            7.55000000000000       11.11300000000000       38.90999999999999
H            5.85300000000000       11.52400000000000       39.37900000000000
H            6.21700000000000        9.94600000000000       38.54899999999999
C            6.85600000000000        7.47700000000000       39.94599999999999
H            6.08100000000000        6.70200000000000       40.01500000000000
C            7.93600000000000        7.43100000000000       38.84000000000000
H            8.70700000000000        8.21300000000000       38.78000000000000
H            7.94400000000000        6.61600000000000       38.10200000000000
C            8.33900000000000        4.77800000000000       44.45900000000000
H            8.80700000000000        4.92200000000000       43.46200000000000
H            7.37800000000000        4.23600000000000       44.33100000000000
H            9.02700000000000        4.18400000000000       45.09799999999999
C            8.79900000000000        5.54300000000000       47.56700000000000
H            9.90800000000000        5.58500000000000       47.61500000000000
H            8.48600000000000        4.49700000000000       47.36300000000000
H            8.38400000000000        5.88000000000000       48.54100000000000
C            1.50200000000000       10.18500000000000       44.21200000000000
H            0.90600000000000       10.51300000000000       45.09000000000000
H            1.04200000000000        9.26700000000000       43.78700000000000
H            1.50200000000000       10.99600000000000       43.45300000000000
N            3.20600000000000        8.93600000000000       45.58700000000000
H            2.52800000000000        8.36600000000000       46.05100000000000
C            2.90600000000000        9.89500000000000       44.64200000000000
C            4.51500000000000        8.89700000000000       45.77399999999999
H            5.01900000000000        8.23800000000000       46.47999999999999
N            5.07900000000000        9.78200000000000       44.96700000000000
C            4.09100000000000       10.42200000000000       44.24800000000000
H            4.32800000000000       11.19200000000000       43.52400000000000
C           10.75200000000000        8.64300000000000       44.31699999999999
H           11.49400000000000        8.18200000000000       43.63100000000000
H            9.89400000000000        7.94700000000000       44.43000000000000
H           11.23400000000000        8.80600000000000       45.30399999999999
C           10.27200000000000        9.96800000000000       43.75200000000000
H            9.64300000000000        9.77700000000000       42.85700000000000
H           11.15100000000000       10.57000000000000       43.43700000000000
S            9.33000000000000       10.85500000000000       44.98700000000000
C            9.67800000000000       12.51900000000000       44.40200000000000
H            9.32100000000000       12.66300000000000       43.35999999999999
H           10.77200000000000       12.71100000000000       44.41900000000000
H            9.16800000000000       13.26700000000000       45.04600000000000
87
 energy: -124.665284068105 gnorm: 0.167028477357 xtb: 6.7.1 (edcfbbe)
Fe           7.04377026408763       10.27922116518205       44.90782241546581
N            6.99599960734838       10.74698169625974       46.91755876306223
N            6.53116673948038       12.22591559849297       44.51091840030758
N            7.07534691358399        9.80587707425039       42.87080728376357
N            7.53961891766289        8.29996831201378       45.30701690750153
C            7.41763905530359        9.91463316724336       47.89822345735546
C            7.25980035133038       10.55971034140696       49.16641555425747
C            6.72672027455041       11.80227877048415       48.90059207556421
C            6.57242799151061       11.90094393599398       47.48825516788148
C            6.13620798284202       13.17146752322747       45.39702886263622
C            5.86753222624862       14.38003515465982       44.70729259854837
C            6.13258789274224       14.15982800417520       43.36187479286568
C            6.51865834758059       12.78175578775550       43.27106746924992
C            6.90534014546563       10.71169862216047       41.87946855354531
C            6.82012486454662       10.01493941938532       40.63249252314085
C            6.93966739828513        8.65978818635560       40.89611036454742
C            7.09969077137018        8.56271559692883       42.32515712077207
C            7.61183999022113        7.27544653824198       44.42025298385879
C            8.08433420171441        6.11789709586197       45.10817668023012
C            8.29523867219024        6.46421988339273       46.42640939595516
C            7.92960504473219        7.84513724653844       46.52665820006296
C            7.94002848932488        8.64121452923913       47.67372435002270
H            8.43424127265432        8.19713097788966       48.53010649888847
C            6.06244201958506       12.97894899759441       46.77751768174772
H            5.56257144646260       13.75144599978050       47.35447760689558
C            6.84982443598764       12.09343790215183       42.10018691003308
H            7.08796258626427       12.72017957085329       41.24608786791706
C            7.29492618654241        7.39580375415035       43.06197593951035
H            7.18876180114951        6.46772726909188       42.50871083405767
C            6.36384700599558       12.91224749010963       49.86514589028067
H            6.73496795525325       12.67608497798047       50.86810069226876
H            5.27183233128440       13.03172745405425       49.91146666610523
H            6.80987169768537       13.86276660742971       49.54159441064822
C            7.60617305897857        9.95918167055028       50.51484504848099
H            8.65030946250478       10.18633878505820       50.77285079094472
H            7.48684541291881        8.86755646631497       50.49484718106147
H            6.95689612068389       10.37502372879812       51.29507789176563
C            5.42178078115002       15.64110155199479       45.41632544157623
H            6.18574095315873       15.95653194515318       46.14200106936503
H            4.48599386520408       15.46123203391293       45.96493689093789
H            5.27137918401166       16.44560281502008       44.68934619157601
C            6.08639207344608       15.14185378744365       42.21982227189415
H            5.41584018103162       14.97328143081489       41.36244418574265
C            6.93393787658055       16.25619613144125       42.29956724485624
H            7.59546047376285       16.38064087724333       43.15941001047258
H            6.99369862663336       17.03686464463041       41.53857358341399
C            6.59216527394135       10.68752399084761       39.28816119080745
H            7.53674514930301       11.10684332117964       38.91475760150757
H            5.86589825397907       11.50698087400039       39.38047932374994
H            6.22343494748089        9.95538157244849       38.55993461307528
C            6.92187759037051        7.51340472079755       39.90971773580444
H            6.13994870509111        6.74311903732451       40.00341576770789
C            7.88247191481076        7.43602609127904       38.89067738874395
H            8.66421168694222        8.19265290345470       38.80361797923237
H            7.91729177060807        6.63611891796541       38.14634456192414
C            8.33954114770987        4.78114956713234       44.46306958605022
H            8.80018413471887        4.91831750038075       43.47591509141847
H            7.39291697021883        4.23864232157676       44.33229131108651
H            9.01631651496874        4.18689095365398       45.08727526849219
C            8.79306182823372        5.55615723368666       47.54999209173718
H            9.89050898491817        5.58714354428199       47.61123638651840
H            8.48906057577828        4.51757710201145       47.36567435513324
H            8.38880679118249        5.87622630370696       48.51962161840638
C            1.50228033739171       10.18325136176687       44.21467294879866
H            0.90692841385761       10.50938787946563       45.07778201661919
H            1.04172972005935        9.28139809669250       43.78984718539355
H            1.50068383640334       10.98126063210020       43.46394266063173
N            3.19371696016176        8.93884967737787       45.58508387655026
H            2.51650210085980        8.36429824749897       46.05354289647834
C            2.89983309939850        9.89153425583271       44.64027303306739
C            4.52104532407154        8.90739704134731       45.76400373756407
H            5.02010229829893        8.25314500201687       46.46364898453002
N            5.09487695976307        9.78954689664244       44.96993781000235
C            4.09871879119816       10.41181714598594       44.25716904016487
H            4.32888935971724       11.17831339191209       43.53662533901563
C           10.75657433743189        8.63855884700693       44.31526584857433
H           11.48757871381819        8.18137434601913       43.63846137893432
H            9.91176442538994        7.95344361599968       44.43304157680434
H           11.22868384906640        8.79973667594805       45.29210684763292
C           10.27698915357952        9.96015200575529       43.74244093084182
H            9.64637199035144        9.78210352968628       42.86033153669420
H           11.14147443985064       10.57062164614499       43.44214640284213
S            9.33482183867624       10.86179943264913       44.99179457886151
C            9.67844967600395       12.53081488038673       44.39431289334972
H            9.31934476420306       12.66152062447746       43.36702039549171
H           10.76119012586194       12.70980800491493       44.42331899920922
H            9.17196429327820       13.25513028793182       45.04130448951665
87
 energy: -124.692526910634 gnorm: 0.133214613275 xtb: 6.7.1 (edcfbbe)
Fe           7.04580739895604       10.27789204263130       44.90319441473459
N            6.99444427632930       10.73010181746097       46.88604156734110
N            6.53144892765718       12.19816387833110       44.50199107259908
N            7.06056111994211        9.80512828236689       42.89824620989003
N            7.53535818871796        8.33397332697746       45.30594277542221
C            7.42950123030358        9.91341258757566       47.88058444195467
C            7.26272694224510       10.56635362867283       49.16582576606341
C            6.72077590425847       11.79537744523612       48.90451057862632
C            6.56025964763054       11.87974356986184       47.46933580207877
C            6.13079419259325       13.14927160113391       45.38782958305522
C            5.87380384610412       14.38871272901654       44.69594664602056
C            6.15046216863092       14.17554328777894       43.36288600609615
C            6.53469484697813       12.77238552107751       43.26789834974789
C            6.91720375187323       10.70714656893668       41.89123418178219
C            6.83977349412943       10.01073712280255       40.62195218396457
C            6.94515649573170        8.66127482982297       40.88477720863331
C            7.08465295106425        8.56304414842324       42.33729871823218
C            7.60045287549004        7.29652976679544       44.42493196509875
C            8.08027498738779        6.11556045419089       45.11224652397990
C            8.29492276908574        6.46496893909369       46.42049545974341
C            7.93420708494678        7.86612416895312       46.52171777415445
C            7.94522246927975        8.63491292132628       47.68246444929276
H            8.40879838648963        8.17729022015148       48.54673633746359
C            6.06055150243146       12.97167928053146       46.76877542049164
H            5.59872348418217       13.76216795434662       47.34994939725264
C            6.84429651177827       12.09383155233961       42.08777443112873
H            7.03040368990515       12.72017718763991       41.22142824020705
C            7.29251736124928        7.39428110836244       43.06370326910888
H            7.22187630590124        6.46747116998190       42.50600544309908
C            6.36678454142229       12.89469838756406       49.85791260790212
H            6.73169133770698       12.67351205511443       50.85794405032976
H            5.28359490443240       13.02847106806109       49.90838849716391
H            6.80489902129875       13.84224438122053       49.53931279593596
C            7.60470971444744        9.96963178038331       50.49758965000846
H            8.64126003569291       10.18699779454988       50.76536295673158
H            7.48458879800381        8.88629476205853       50.48691407839781
H            6.96363352625051       10.37394880535413       51.28016069325149
C            5.42699536924881       15.63210902282784       45.39794460134720
H            6.17849621553362       15.94939199807649       46.12518603824277
H            4.49812035879792       15.45931977118927       45.94689265272669
H            5.27100718010916       16.44036923230869       44.68880482030389
C            6.14135947280451       15.17034334321301       42.26401022684350
H            5.46590834122510       14.97935271681011       41.41630701173534
C            6.89675627624963       16.20257252042376       42.30670517237269
H            7.56895707942875       16.36404770002157       43.14518004098684
H            6.96014663971971       16.98208773994117       41.55259614518700
C            6.60339956549993       10.67618135970252       39.30215402656271
H            7.53159711662071       11.10389057913982       38.91771158957801
H            5.87832488057383       11.48716687765863       39.39103451799875
H            6.23328982776273        9.95785445347118       38.57234145589069
C            6.97144338004039        7.54907559521111       39.89538856046673
H            6.18864751437360        6.78493739257779       40.00869120136054
C            7.83697292432440        7.45815120261439       38.95183548694335
H            8.63109317787825        8.18951304311477       38.82623089998292
H            7.87934557536075        6.66412314084953       38.20747268699524
C            8.33546141677527        4.79084142521125       44.46745172940638
H            8.79336883566393        4.92069578412141       43.48716140990362
H            7.40152069560950        4.24137490393191       44.33278196623152
H            9.00531556816886        4.19211359437174       45.08068304968854
C            8.78518389298668        5.57612978547249       47.52927639603924
H            9.87606106561894        5.59801301937579       47.60065929082894
H            8.48772875398037        4.54063981261667       47.35888400977672
H            8.38740294625666        5.88353390663170       48.49659839913512
C            1.50306598511321       10.18176009223454       44.21561715678344
H            0.90769244949989       10.50632739714514       45.06931009362847
H            1.03985227943084        9.29125304408009       43.79059842643687
H            1.50272253399317       10.97117901727635       43.47013245068978
N            3.18489900905850        8.93998199206900       45.58516943869316
H            2.51034084367202        8.36190191343954       46.05790056238411
C            2.89612896975625        9.88782464243048       44.63889888774246
C            4.52463123198526        8.91706023115859       45.75702806368062
H            5.02246011846805        8.26720985089436       46.44978478413255
N            5.10262625570059        9.79400743731237       44.97194734997557
C            4.10396330330661       10.40357418603752       44.26598477762402
H            4.32653342562882       11.16641977641197       43.54642894677464
C           10.76269731624687        8.63283185593252       44.31146437241232
H           11.48650255848065        8.17666708607396       43.64102024465929
H            9.92508958572397        7.95613262794909       44.43639231117748
H           11.22810721045308        8.79640380257419       45.28112955159064
C           10.28403730556865        9.95209380535070       43.73291351217046
H            9.64749147740072        9.78611586301914       42.86371466690182
H           11.13542352459795       10.57329463700252       43.44802504674457
S            9.33548205077595       10.86490709563004       44.99650231968059
C            9.67793857444407       12.54134478141262       44.38697294185772
H            9.31458751556296       12.65932473693404       43.37069489912785
H           10.75244787879934       12.71098559901566       44.42695032960130
H            9.17053983519274       13.24451246160551       45.03912593201095
87
 energy: -124.705036032741 gnorm: 0.025134915863 xtb: 6.7.1 (edcfbbe)
Fe           7.04928009897330       10.27548514455277       44.90360928475052
N            6.99040349124584       10.71472511573898       46.87406133422049
N            6.53228036328751       12.17864490014593       44.49949622430291
N            7.05133528322765        9.81415412686802       42.91609465352725
N            7.53266585120439        8.34969557370465       45.30758843467590
C            7.43436138907140        9.90760810751717       47.87207077465434
C            7.26455931043142       10.56338730501338       49.15522794638635
C            6.71377934435835       11.78375407186100       48.89359721012497
C            6.55071814484008       11.86122641994039       47.45720320604863
C            6.12968492901611       13.12893516145756       45.38476756982529
C            5.88186838728930       14.37480586956532       44.69861366370715
C            6.16388698432950       14.15829524091476       43.37661793172111
C            6.54428507064846       12.75898963032985       43.27051295021219
C            6.92171392574812       10.71147046740741       41.90258993854503
C            6.85492768251429       10.01768076488095       40.63380098971317
C            6.94695812892053        8.67782816163437       40.90858080295001
C            7.07563688565753        8.57363268698444       42.35688157058959
C            7.59160230061415        7.31050574148420       44.42904645697310
C            8.07122093392680        6.12545564665131       45.11042482208119
C            8.29049103864929        6.47619189819137       46.41298435457736
C            7.93603800326627        7.87745680609127       46.51887278638023
C            7.94635222316252        8.62941348312399       47.68708175181161
H            8.37130445020141        8.15156133572820       48.56402579813533
C            6.06195006005892       12.95820065055851       46.76219792371366
H            5.64554156696423       13.77427402293544       47.34693677429800
C            6.83510372975528       12.09409316717444       42.08261232684987
H            6.94887965565500       12.72003950395528       41.19444836594692
C            7.29059843555327        7.40173009505535       43.07064550197752
H            7.26597595021161        6.47524099153319       42.50286565974524
C            6.36524496274022       12.87924264133081       49.84905203048074
H            6.73125694361510       12.66072037448242       50.84888418736041
H            5.28462835761374       13.01951634380971       49.90283048130186
H            6.80450147197377       13.82355073863817       49.52917408462361
C            7.60640746272140        9.97562734801569       50.48571629033595
H            8.64152220704022       10.19168039374084       50.75427888719462
H            7.48223951282319        8.89499927115182       50.47615839956623
H            6.96510725658192       10.38052147736169       51.26588928489284
C            5.43161991606247       15.62318015909668       45.38327567452625
H            6.17880368541982       15.94498489306084       46.11026334221720
H            4.50194860130791       15.45216150091018       45.92725451197733
H            5.27434011244041       16.43004637041789       44.67296915478075
C            6.14490591130249       15.13637659810403       42.28890584332689
H            5.48153116128276       14.94117594680415       41.44694906098957
C            6.90815113009784       16.22670652384513       42.31201499163922
H            7.58004085056952       16.39549719127155       43.14283973137334
H            6.93723095600208       16.97732358932181       41.53724786047736
C            6.61892960459821       10.67055638209605       39.31211289017737
H            7.54026606622138       11.10391841423131       38.92057462660028
H            5.88840088669276       11.47347748131655       39.40430574342034
H            6.24902662460354        9.94918952736227       38.58671991181362
C            6.96312224132844        7.57468074742015       39.94050585994262
H            6.19438808281529        6.81145816826713       40.05656831415303
C            7.84273879884899        7.47397537837345       38.94959036567656
H            8.63231588813789        8.20141495158102       38.82052721238946
H            7.85419824223655        6.66647817756775       38.23041289014814
C            8.32743835586418        4.80071921403881       44.46829042581843
H            8.78708453333056        4.92881752029732       43.49019408828669
H            7.39851598395088        4.24555478089565       44.33165387148379
H            8.99588019247792        4.19980962194247       45.07977881375458
C            8.78027678307534        5.59243292590109       47.51568119908400
H            9.86945732522522        5.61659400712716       47.58486047082896
H            8.48135587762961        4.55958961957450       47.34463435153283
H            8.38008096317799        5.90124027765128       48.47885329127344
C            1.50417381495629       10.17890158569983       44.21533704525030
H            0.90538122295634       10.50487257185966       45.06507960219017
H            1.03562257677047        9.29351841425396       43.78793695878509
H            1.50553102885222       10.96657225506367       43.47008866894255
N            3.18513357627376        8.93958342575165       45.58756865629492
H            2.51066999897038        8.36150268412415       46.06210026517090
C            2.89670928420114        9.88437272211479       44.63895150674025
C            4.52674112161529        8.92114764735497       45.75707408562823
H            5.02922700253108        8.27402774592968       46.44532195994687
N            5.10524659598753        9.79778236720411       44.97428379692379
C            4.10502578873177       10.40060962307826       44.26810031784785
H            4.32531438920621       11.16091958999408       43.54837291502725
C           10.77206218312679        8.62949711114233       44.30612422694072
H           11.49264383324085        8.16836426346920       43.63635081405254
H            9.93799508202239        7.95172617844522       44.44010557124521
H           11.23943417468728        8.79320619112200       45.27343894988954
C           10.28897800410100        9.94839007610023       43.73081036838735
H            9.64855914248674        9.78891617383863       42.86386561535606
H           11.13473713082474       10.57770528292060       43.45097728043560
S            9.34108606404845       10.86305596808669       44.99896240366004
C            9.67273064739954       12.54241945218309       44.38501944570273
H            9.30517246279103       12.65685326603633       43.37018129654061
H           10.74515175397536       12.71728014148165       44.42934377871148
H            9.16031255165080       13.23707461473801       45.04117931843644
87
 energy: -124.710219578991 gnorm: 0.021966973324 xtb: 6.7.1 (edcfbbe)
Fe           7.04288531605687       10.27370338281908       44.90440321645346
N            6.98888799843855       10.69772829743818       46.85997479700539
N            6.53753609763764       12.16114116708544       44.49530920750346
N            7.04464934336747        9.83022008270465       42.93667849281757
N            7.53130868015153        8.37093276910620       45.30765638092419
C            7.43194854828555        9.89715573698173       47.86280900399346
C            7.26410887562428       10.55736263489144       49.14369118506321
C            6.70631601678166       11.77028951624234       48.88052654497857
C            6.54824365429694       11.84262632960996       47.44243220658456
C            6.13919648043706       13.11073713692824       45.38182077612917
C            5.89801484200803       14.36372837859187       44.70201079138055
C            6.18514094592811       14.14980455613677       43.38610962263253
C            6.54666195514651       12.74768539081098       43.27097177284035
C            6.91710907810880       10.71960416767086       41.91677243760789
C            6.87234076439850       10.02751319643380       40.64774509898771
C            6.95653516115072        8.69425965013351       40.93202797361808
C            7.07524769546986        8.59116327875518       42.37762078950572
C            7.58962932145029        7.33178448769339       44.43046384912378
C            8.06161392280167        6.13923863271524       45.10566507820394
C            8.28286283849053        6.48902261442418       46.40401968252004
C            7.93025497663092        7.88935399346948       46.51534331960804
C            7.93456757022621        8.61765293522066       47.69438924511419
H            8.32703447346273        8.12404999959159       48.57747057002047
C            6.07683343225855       12.94826770821867       46.75565649995505
H            5.69810293457549       13.78060893409442       47.34110464204134
C            6.80578101910217       12.09669315251297       42.07428369073934
H            6.86063433955261       12.71563202903111       41.17515979842525
C            7.30195869835259        7.41588906024565       43.07508439295512
H            7.31257550459546        6.49370905570295       42.50108773088477
C            6.35916182423605       12.86343127728252       49.83410801090494
H            6.72664415971509       12.63861249406937       50.83216647012518