87
 energy: -124.720120006732 gnorm: 0.000193509920 xtb: 6.7.1 (edcfbbe)
Fe           7.09360373981513       10.29973674430529       44.94217822629135
N            7.07850137589120       10.72052891187788       46.89454591234278
N            6.60150004715799       12.19754102383172       44.52574536451125
N            7.09975936426234        9.87292584647838       42.98316091338862
N            7.51162954408075        8.38944228702144       45.35823188031471
C            7.38838817013484        9.87916316569321       47.91327301867250
C            7.30176558845206       10.56203472803193       49.18604929530582
C            6.91837406238408       11.83602824654078       48.90920482052481
C            6.78695984538186       11.91587653685115       47.47020960652124
C            6.33358480393472       13.18523185186161       45.42085452895418
C            6.00181999260504       14.41331015704126       44.74597699197468
C            6.08777371556845       14.15121454751617       43.40411688082437
C            6.44978383195834       12.75137025533339       43.29545848373545
C            6.91743283687458       10.74743962724423       41.95529437070108
C            7.01412597011409       10.07439309638541       40.68559730817956
C            7.23393930045827        8.75199010522515       40.96855154124250
C            7.27111640248192        8.65269479456905       42.41433246806908
C            7.60981056280845        7.36394558785710       44.47229739276599
C            7.90120910015402        6.12339504794334       45.15717708339917
C            7.98701955460178        6.42970101898975       46.47948264388985
C            7.73311658104628        7.84946580525432       46.58422515194467
C            7.70366137068855        8.54006502276182       47.78125266491512
H            7.92154762094965        7.98666297773535       48.68189136993976
C            6.41862023144937       13.06232113074040       46.79727805421081
H            6.20310649303385       13.93861759981560       47.38931197389083
C            6.63552292170622       12.09578907920882       42.09330000593783
H            6.52843951626039       12.67461987372933       41.18854528731492
C            7.49859968154720        7.47433067313899       43.09986892606418
H            7.62126059443421        6.57341678930504       42.51873024762888
C            6.67158357959049       12.97275777308774       49.84080646888146
H            6.82647330265879       12.66796215637029       50.87291855362214
H            5.64856171950453       13.33653254496178       49.74031899546934
H            7.34727639348354       13.79999064215473       49.62248112943757
C            7.58951949737457        9.92568800713171       50.50264144368762
H            8.60832672817870        9.53895480990597       50.52413754792888
H            6.90850913871873        9.09385411511922       50.68643235390756
H            7.47839237476420       10.64329259531399       51.31181623798446
C            5.59026178506484       15.67639009661232       45.41807804432684
H            6.46142107858637       16.24003399429083       45.75679817719654
H            4.96754837368978       15.46494625243360       46.28610911646284
H            5.02603772818950       16.29995837836142       44.72747273247017
C            5.84528670323307       15.03011929432073       42.28203718054838
H            5.42016324352458       14.56117986815640       41.40184095062359
C            6.10766928315889       16.33280270638481       42.25133449862665
H            6.57206863983819       16.84357376958029       43.07666695198211
H            5.88700427584356       16.93139217006636       41.38306142292392
C            6.82110101500852       10.71589628187254       39.35579417211864
H            7.73309286519991       11.21852020579319       39.02855066892923
H            6.02499525185630       11.45809300452510       39.39611254045953
H            6.55787635541962        9.96450628383599       38.61413579427812
C            7.38441595674498        7.63561159143292       40.06181339995388
H            6.98700576776982        6.69044330113937       40.41359645482902
C            7.96698196562433        7.68490514676463       38.86828389947257
H            8.42168975809738        8.58344308747751       38.48885318506826
H            8.03285513006624        6.81423544177091       38.23700616854632
C            8.07561539227955        4.80868350147225       44.47757248020806
H            8.91649799508063        4.84421505829634       43.78414740108093
H            7.18147845342081        4.54821746828098       43.91080080847588
H            8.26359285737508        4.02042077110324       45.20244695267493
C            8.27738599879897        5.53944577727580       47.63889535290257
H            9.16811146864824        5.87966578565897       48.16723151678885
H            8.44470670036007        4.51698975739360       47.30916978815518
H            7.44549701297137        5.54074394728619       48.34402319511534
C            1.62713601153833        9.80075137834061       43.96448028433171
H            0.93842586870564       10.28382452695782       44.65756953640522
H            1.23910288524689        8.80847424394153       43.73447565365232
H            1.66268906909003       10.38136948459243       43.04805136728309
N            3.24825548151117        9.03875101418576       45.71491556874758
H            2.56945558681119        8.55157039245725       46.27663748325478
C            2.98877306984834        9.71204773882285       44.54980252289611
C            4.57178431774312        9.14986818017113       45.96658236197941
H            5.06119137572404        8.72003739872977       46.81589019690689
N            5.16506079237384        9.85171307597235       45.03246911498285
C            4.19437734341216       10.20844816893921       44.14436055783308
H            4.42558352661617       10.79429142062282       43.27928712928329
C           10.88528106340660        8.60547208867063       44.18059009715248
H           11.40707533453803        8.07159511506095       43.38875697224109
H           10.07317305674787        7.98232309124694       44.54275301087075
H           11.57691011098995        8.78452213629856       45.00033034307019
C           10.34316596165984        9.91818749909378       43.65028524361276
H            9.65091740454243        9.75275669169205       42.82657090191999
H           11.15536634921811       10.56885822001840       43.32589849443831
S            9.44568536141400       10.81955415009022       44.97910074848658
C            9.63932996706034       12.50174999218147       44.31318632043678
H            9.20428235052434       12.55945713418587       43.32036666138251
H           10.69615734704502       12.75504916771024       44.29208446345619
H            9.10984375384861       13.16860957204449       44.98502696675857
