72
 energy: -105.882206615770 gnorm: 0.263241934896 xtb: 6.7.1 (edcfbbe)
Fe          19.86200000000000       40.74700000000000       13.20800000000000
N           20.89600000000000       38.97900000000000       12.98800000000000
N           18.30000000000000       39.64000000000000       13.97800000000000
N           18.65900000000000       42.41899999999999       13.06800000000000
N           21.25100000000000       41.72600000000000       12.05700000000000
C           22.16100000000000       38.85900000000000       12.45400000000000
C           22.58000000000000       37.47500000000000       12.61300000000000
C           21.57200000000000       36.79599999999999       13.20400000000000
C           20.49400000000000       37.71800000000000       13.42100000000000
C           18.27100000000000       38.31300000000000       14.25300000000000
C           17.02500000000000       38.02200000000000       14.89600000000000
C           16.33700000000000       39.17899999999999       15.00000000000000
C           17.14000000000000       40.22400000000000       14.41800000000000
C           17.44600000000000       42.56700000000000       13.71600000000000
C           16.98800000000000       43.94500000000000       13.58000000000000
C           17.91600000000000       44.58900000000000       12.84500000000000
C           18.98700000000000       43.64900000000000       12.55300000000000
C           21.14699999999999       43.03900000000000       11.59400000000000
C           22.32999999999999       43.38600000000000       10.80100000000000
C           23.18600000000000       42.12299999999999       10.83800000000000
C           22.43400000000000       41.14700000000000       11.59800000000000
C           22.89399999999999       39.87400000000000       11.87600000000000
H           23.92899999999999       39.65200000000000       11.61500000000000
C           19.28700000000000       37.40699999999999       14.00000000000000
H           19.11700000000000       36.36800000000000       14.28200000000000
C           16.78100000000000       41.54900000000000       14.34900000000000
H           15.85700000000000       41.82300000000000       14.85800000000000
C           20.11400000000000       43.90600000000000       11.82300000000000
H           20.19800000000000       44.89800000000000       11.38000000000000
C           21.45100000000000       35.29800000000000       13.55700000000000
H           22.37600000000000       34.76700000000000       13.24400000000000
H           20.58400000000000       34.85499999999999       13.02200000000000
H           21.32100000000000       35.18000000000000       14.65400000000000
C           23.96500000000000       36.93800000000000       12.12800000000000
H           24.74700000000000       37.20600000000000       12.87000000000000
H           24.22400000000000       37.39700000000000       11.15000000000000
H           23.92500000000000       35.83200000000000       12.03000000000000
C           16.63700000000000       36.60300000000000       15.37700000000000
H           17.13100000000000       36.39300000000000       16.34900000000000
H           16.97200000000000       35.85000000000000       14.63200000000000
H           15.53600000000000       36.54000000000000       15.51200000000000
C           14.94300000000000       39.45900000000000       15.61400000000000
H           14.29700000000000       40.23900000000000       15.18400000000000
C           14.48800000000000       38.77600000000000       16.66600000000000
H           15.10100000000000       37.98799999999999       17.12700000000000
H           13.49400000000000       38.99300000000000       17.08500000000000
C           15.66500000000000       44.52400000000000       14.15800000000000
H           15.39400000000000       43.97600000000000       15.08600000000000
H           14.84700000000000       44.40300000000000       13.41600000000000
H           15.80100000000000       45.59900000000000       14.40200000000000
C           17.94400000000000       46.06200000000000       12.40600000000000
H           18.91000000000000       46.58799999999999       12.37700000000000
C           16.86800000000000       46.76299999999999       12.05100000000000
H           15.87100000000000       46.29800000000000       12.05700000000000
H           16.96300000000000       47.81600000000000       11.74700000000000
C           22.63700000000000       44.73100000000000       10.09400000000000
H           22.67100000000000       45.54700000000000       10.84700000000000
H           21.84000000000000       44.95699999999999        9.35400000000000
H           23.62200000000000       44.67100000000000        9.58400000000000
C           24.55800000000000       41.88400000000000       10.16400000000000
H           25.34800000000000       41.82599999999999       10.94200000000000
H           24.79000000000000       42.72600000000000        9.47700000000000
H           24.53700000000000       40.92700000000000        9.59900000000000
O           19.13100000000000       39.62800000000000       10.92600000000000
H           19.63000000000000       38.81400000000000       10.86000000000000
H           18.54400000000000       39.93500000000000       10.33300000000000
C           21.99000000000000       40.31000000000000       15.74200000000000
H           22.14100000000000       40.31700000000000       16.84300000000000
H           22.93000000000000       40.66100000000000       15.26500000000000
H           21.79300000000000       39.26300000000000       15.42900000000000
S           20.60300000000000       41.38100000000000       15.25900000000000
H           19.66700000000000       40.59700000000000       15.77400000000000
72
 energy: -105.945714919250 gnorm: 0.110416002336 xtb: 6.7.1 (edcfbbe)
Fe          19.81319273965555       40.71972484516629       13.08334598035407
N           20.90072710974709       38.98405324207559       12.99929982881098
N           18.30737320115814       39.65978613965994       13.98683008021538
N           18.66133881349604       42.43001825501091       13.08317227969686
N           21.25140168854478       41.72696197766795       12.04989359420788
C           22.15998172877732       38.85987426651004       12.47206078519483
C           22.59412533897771       37.47327939915532       12.60546364741964
C           21.57542966023525       36.78788919863115       13.19275802525232
C           20.50815136193880       37.73351005209509       13.42673005044989
C           18.26430500018398       38.32862034816861       14.26158096790022
C           17.01146727278199       38.01293342392421       14.90726974832130
C           16.31199109225036       39.18099583982970       15.01241895798986
C           17.13811359261251       40.21764355489141       14.42382148991686
C           17.45348247997719       42.57896086715731       13.71624506867383
C           16.98293074205080       43.95175006968654       13.57687685906757
C           17.92320920702457       44.60882629148477       12.84009232373619
C           18.98355535722279       43.64732868136944       12.55166727226849
C           21.17793521558286       43.01986386521916       11.58350442509575
C           22.36192406592579       43.34224674634584       10.80061566936223
C           23.16791256407206       42.16061514165179       10.83182912413897
C           22.43720898478790       41.18475333311233       11.61180100119689
C           22.88609690177654       39.88869060482824       11.88383743429645
H           23.90845756314412       39.65563249606682       11.59966928102476
C           19.28816810632056       37.42340828371342       14.00145619682363
H           19.12005873866799       36.38747151091842       14.27941527229247
C           16.77925088768225       41.55260315896006       14.35114729520928
H           15.85312800763567       41.82036500612043       14.84668002516822
C           20.12830504395203       43.89985861730386       11.81786192432668
H           20.21106846979271       44.89063553178785       11.38327108925294
C           21.46066596881072       35.31717240038628       13.54810493379907
H           22.36399904862828       34.77620973957971       13.24898277901306
H           20.60228722985432       34.86801915346996       13.03312829699942
H           21.32423293258223       35.18768259142833       14.62932169052909
C           23.94517812859931       36.94675952269576       12.13676711550808
H           24.72872831158674       37.20433374771030       12.86017463359741
H           24.21251030923665       37.38758037661503       11.17023968117516
H           23.92081848181022       35.85676626798381       12.03189941850288
C           16.63683362833820       36.61889948417254       15.37128967818007
H           17.12264982205141       36.39899899166892       16.33094843663879
H           16.96318973882263       35.86767935607609       14.64335978464045
H           15.55348412711928       36.54046792915362       15.50336559579635
C           14.96295343783260       39.43912425028770       15.61020586245652
H           14.33912808819024       40.22151242260320       15.17522383840226
C           14.49575376790679       38.77234162502615       16.65961219852523
H           15.08745944407533       38.00087537835654       17.13581005569382
H           13.51538890819351       38.98722379090657       17.07675415671669
C           15.68800270274960       44.50935648926237       14.15161977806452
H           15.40441059511279       43.98111864766832       15.06895164603806
H           14.86864052847923       44.40181602106682       13.42923153162615
H           15.80598897053595       45.57291198504637       14.38977137273010
C           17.94057529504032       46.04122376774335       12.41173165665654
H           18.90549083193879       46.54886854779826       12.38344401605077
C           16.87097968283889       46.74776210402881       12.05938959094557
H           15.88137183706330       46.30675350418009       12.05000142852639
H           16.95876075596192       47.78838519678737       11.75566716811637
C           22.63562445069896       44.68128825205013       10.11640407605184
H           22.66841256896831       45.50994087271083       10.83974498767984
H           21.85816313730312       44.93128507249763        9.37896011423462
H           23.60040969851637       44.66094864963222        9.59706861160011
C           24.52016281112499       41.90166303150196       10.17892793574388
H           25.31928647055653       41.83298892506760       10.93158077959794
H           24.77920250589016       42.71222591976067        9.48975901956536
H           24.52208433680648       40.95717223185952        9.61590934423279
O           19.14793298072900       39.64681067322050       10.97080006303368
H           19.62755851478044       38.82632558043250       10.86859306534486
H           18.53292021109011       39.94508859730303       10.32485775348122
C           21.99634730846255       40.29747841582090       15.74658583667226
H           22.13260343349841       40.32687116703122       16.83401764879394
H           22.90951673597994       40.66018020609640       15.26474054548101
H           21.79996180436809       39.27053169522686       15.42796915586819
S           20.60650429605272       41.35710065442571       15.22825889663849
H           19.66953522583906       40.60095601514749       15.79921012338659
72
 energy: -105.964798521819 gnorm: 0.045438673492 xtb: 6.7.1 (edcfbbe)
Fe          19.79905919426245       40.70253135460777       13.04297527692980
N           20.89801289675093       38.99344189405183       12.99848818277020
N           18.30306597877121       39.67717936651835       13.96632235005984
N           18.65802287262747       42.42216755750803       13.06978500526207
N           21.23595098678835       41.71431579802808       12.03459250052727
C           22.15353282907893       38.86779190977838       12.48349847080574
C           22.60102569775117       37.48394880773930       12.60367034150775
C           21.57505041362414       36.79411874917442       13.18676843731393
C           20.51465686789432       37.75539801731682       13.42536300714448
C           18.25971923459721       38.34696724208878       14.25829634661288
C           17.01113393382603       38.01265113995502       14.91485218120087
C           16.30243920677539       39.18617343742233       15.02202060301029
C           17.13558282639968       40.21500710744554       14.41546580557464
C           17.46364563167388       42.57916194500956       13.70510209138307
C           16.98695590964126       43.94581487088377       13.56965806618788
C           17.93460735623787       44.61139321998414       12.83067701673754
C           18.98475429091408       43.63325545350789       12.54533867229533
C           21.18804534116238       42.99396242833454       11.57255220622228
C           22.38454230135715       43.29936527073363       10.80568711995591
C           23.14885442237102       42.19166405614579       10.83638953750234
C           22.42520210386486       41.20273044646691       11.61734981948542
C           22.87137123044294       39.90151529123467       11.88555883350594
H           23.88160091877812       39.66168635063803       11.57669779028296
C           19.28922333317037       37.44588401378049       14.00014890099106
H           19.12574827112238       36.41390393364478       14.27987011096577
C           16.77812681436447       41.55484877151292       14.34554079382258
H           15.84834436293444       41.82023175552514       14.82745192946255
C           20.14019572171091       43.88616623590364       11.81453707754222
H           20.22987371089213       44.87813793118772       11.39252367577552
C           21.46977082655058       35.34379289851265       13.53715947534271
H           22.36233762166326       34.79809905306532       13.24725222530259
H           20.61625534298423       34.88711706020011       13.03574390043517
H           21.32952000789563       35.20955421548621       14.60979523660579
C           23.92222084960687       36.96229343327843       12.14590280020807
H           24.70848799589379       37.21288464001289       12.85818761296904
H           24.19751446263484       37.38817974865591       11.18382709499204
H           23.90347541888519       35.88036003190673       12.04073164167539
C           16.63956740538631       36.63969443000045       15.36304806911187
H           17.11728874977624       36.40857305424424       16.31664770923906
H           16.96068211359737       35.88962465193607       14.64375092638645
H           15.56505124059301       36.55180572657964       15.49188067953754
C           14.99664718622629       39.42284549071937       15.60618310542680
H           14.39102235047177       40.20363492877692       15.15818917917708
C           14.50877309899104       38.76787323642629       16.65421371146923
H           15.07911976834454       38.00726369319380       17.15311817342158
H           13.53389253579775       38.98112208728342       17.06047258769554
C           15.71830034408634       44.49187653456696       14.14146003151369
H           15.43048271121237       43.97434249610293       15.05330385202647
H           14.89480071902353       44.39156013197137       13.43265840969852
H           15.82597396175279       45.55044587299987       14.37251260274575
C           17.94285252891617       46.00587898023453       12.41623118406035
H           18.91016284878375       46.49524450069740       12.38705574903640
C           16.87727675359284       46.72281226246082       12.06966607690794
H           15.88796493866491       46.30502969366749       12.04499031854536
H           16.96157697946362       47.75621256986896       11.77154066216275
C           22.63873515399153       44.62530111890052       10.13834174205278
H           22.66256773966556       45.44816526921334       10.85747007494074
H           21.86310507630953       44.87493818238690        9.40940763533935
H           23.59196921061550       44.62868260560857        9.61336671075937
C           24.48159502826911       41.92459021092756       10.19662406601734
H           25.27756032099288       41.84643413667875       10.94162320677082
H           24.75555835889981       42.71730407431953        9.50545236055798
H           24.48110790151897       40.98651248165985        9.63781582540851
O           19.15136901573851       39.69718745876806       11.02057063720819
H           19.61031910481897       38.86602437505261       10.88303738690347
H           18.53211688240231       39.95353988515528       10.33017955802438
C           22.00390050438656       40.28447226234015       15.74575935473433
H           22.12000253095028       40.33564284854170       16.82388534406194
H           22.89701124949859       40.66099947853919       15.26131719375593
H           21.80803487173490       39.27002603152784       15.42433172516798
S           20.61917191982713       41.36000506302926       15.23132642465248
H           19.67251170979902       40.61763873837355       15.81578558711292
72
 energy: -105.970090497074 gnorm: 0.019824764783 xtb: 6.7.1 (edcfbbe)
Fe          19.78069775458681       40.69050831797873       13.00501272734213
N           20.89840403598238       39.00599694553546       13.00347659491768
N           18.30241703310324       39.68586921570225       13.95658404674548
N           18.65397343602737       42.40683322354646       13.05220088050751
N           21.22635661747578       41.70004809122911       12.02683198482343
C           22.15141218028014       38.87664356427419       12.49048865089011
C           22.59705857900878       37.49860109792361       12.60788939576890
C           21.57254437978966       36.81006822464252       13.18864059753743
C           20.51562890945201       37.77088298911083       13.42860265548755
C           18.26617663244854       38.35824461477627       14.25715598418731
C           17.02629280209062       38.01977858884545       14.91865820793626
C           16.31567487767714       39.18905602964183       15.02698166877422
C           17.13549921112419       40.21729329094435       14.40698562971376
C           17.46326657536592       42.56629587756443       13.68903294830177
C           16.99339729619125       43.92854717404375       13.55767600734561
C           17.94030373153526       44.59174850551481       12.81926296182931
C           18.98487084818546       43.61548672093294       12.53423367220427
C           21.17527352195202       42.97996734979223       11.57143058308002
C           22.37371475996781       43.29264542480902       10.81426782761160
C           23.15067743093541       42.17677012516390       10.84788054098450
C           22.41900570057801       41.18987025204706       11.62257004456703
C           22.86809072390462       39.89983310422519       11.88537202278718
H           23.86826415767165       39.65547583167079       11.55048455407704
C           19.29360388158286       37.46038348759834       14.00277952143337
H           19.13332501000308       36.43104963390724       14.28747852178278
C           16.77092414961053       41.55150896678289       14.33167170490927
H           15.83640344435974       41.81911858613641       14.80300519574747
C           20.13881940582857       43.87361360472152       11.80982126952812
H           20.24354016993423       44.87004905925365       11.40268321067729
C           21.47466937592273       35.36233045601785       13.53289525679612
H           22.37192897009928       34.82411528006509       13.24047165416183
H           20.62192824666665       34.90467436738059       13.03039265787618
H           21.33619474278846       35.23118473903650       14.60628326954846
C           23.91486294283176       36.97696108380281       12.15072831253387
H           24.70076081787034       37.23032001106366       12.86350811442631
H           24.18752315595141       37.39904521228073       11.18542540355005
H           23.88778317771391       35.89415893767382       12.05146671813409
C           16.64529006329422       36.64892775425569       15.35592429885018
H           17.11514607534172       36.41019314540073       16.31226543574282
H           16.96727128955652       35.90375621141770       14.63095972279495
H           15.56778389235997       36.56923662006544       15.47583450392885
C           15.01237911314747       39.41602039772847       15.60705995668933
H           14.41657661011055       40.19633568543366       15.14735982077690
C           14.51388306326876       38.76369083520594       16.65310374232923
H           15.08188507058168       38.01441986889780       17.17682097300867
H           13.53374715270209       38.97754697361129       17.04405041586847
C           15.73530259889116       44.47708331558663       14.13523588315886
H           15.45904028050841       43.95999924066794       15.05137598842533
H           14.90917777150253       44.37288657826395       13.42943375177000
H           15.85299842136217       45.53692791650535       14.35642914789572
C           17.95386427838811       45.97992447444476       12.41109219223791
H           18.92783369731566       46.45530370647523       12.37701572403516
C           16.88837014852329       46.70261845822506       12.07650250851384
H           15.89603141734457       46.28892210718821       12.04391421198914
H           16.97486627796685       47.73749295876087       11.78867696661348
C           22.63422222608889       44.60392860638435       10.15041198037831
H           22.65497533879889       45.41032124866832       10.88446188612062
H           21.85161289811957       44.83306813816495        9.42587018783942
H           23.58867554513501       44.59543682854835        9.62992855565572
C           24.47486810370050       41.92664708383972       10.20807877649333
H           25.25997961287075       41.85136365288216       10.96183392768087
H           24.73591568272592       42.72826262068964        9.52265102670461
H           24.45674543495263       40.99217326981887        9.64736694661807
O           19.13667056923708       39.76809488561071       11.05210577749548
H           19.58080101024550       38.92883012005729       10.90907778546128
H           18.51688024125301       39.99576734414372       10.35215577535736
C           22.00298819311279       40.27969805434138       15.73706064256106
H           22.11197335228575       40.34686514384471       16.81597355258015
H           22.89314384452408       40.65960556294782       15.24894990535549
H           21.81421131701507       39.26074943749632       15.42353028247645
S           20.61654335161171       41.34890781580026       15.20713326942395
H           19.67307736965880       40.64101595298982       15.84902347864322
72
 energy: -105.972710795115 gnorm: 0.016871799006 xtb: 6.7.1 (edcfbbe)
Fe          19.79561208181303       40.69720100726904       13.04626243602566
N           20.89239412608838       39.02306620165256       13.00104924062081
N           18.30354286382582       39.69600624369950       13.94122846858364
N           18.65433074301869       42.38080595646579       13.03433436876290
N           21.21079638020475       41.67625170623681       12.02708153440960
C           22.14404550636033       38.88542756729287       12.49000582746488
C           22.59061885230616       37.51557225912932       12.61008272152900
C           21.56790727277935       36.82860470868036       13.18949428832464
C           20.51391628098900       37.78830752032740       13.42682054594768
C           18.27286115687000       38.37045938371821       14.25028442237092
C           17.04412558308082       38.02735697720582       14.92056557230962
C           16.32958303270345       39.19118823426820       15.02901394795625
C           17.13475476979635       40.21782540390548       14.39305010424588
C           17.46151120862234       42.54551225307131       13.66316900391876
C           16.99942617310159       43.90388098841368       13.53596538019792
C           17.94776536805955       44.56393419527837       12.80019518216685
C           18.98425279612536       43.58700104107682       12.51656662268810
C           21.16120169966781       42.95456232975003       11.57220037118090
C           22.36114157389870       43.27453635993427       10.82712076350677
C           23.14299657313456       42.15977352830720       10.86172019187134
C           22.40553212463826       41.17345695604567       11.62576906550131
C           22.86236704280592       39.89511950632885       11.87666801911896
H           23.85358441800103       39.64941646674119       11.52266866570625
C           19.29805584069995       37.47498584305806       14.00364695221683
H           19.14317977367414       36.44892831498419       14.29840148190030
C           16.75941175761401       41.54430313074866       14.30957808562288
H           15.82070384698048       41.81620054761952       14.76883365777200
C           20.13815101174286       43.85301241688891       11.80253569573128
H           20.25881721138265       44.85220315153109       11.40824553516005
C           21.47879898463547       35.38286362527362       13.53185121713068
H           22.38129647726210       34.85457944775862       13.23652020635968
H           20.62941891744232       34.92094259632090       13.02798759397183
H           21.34306198996423       35.25112683918925       14.60530577456080
C           23.90878491674225       36.99518884913196       12.15642671524875
H           24.69402794877702       37.25572527130805       12.86732901505271
H           24.17849410836819       37.41069827948967       11.18740672256474
H           23.87965660687783       35.91174139616786       12.06545985836636
C           16.65432111870602       36.65774530269434       15.34795065960409
H           17.11217059447075       36.40753718497554       16.30723869188169
H           16.97643194827938       35.91727654020460       14.61787565689945
H           15.57397434336189       36.58994893528047       15.45630215436806
C           15.02694516600057       39.41117839239633       15.60940566209952
H           14.43491705414621       40.18432960706331       15.13470589084974
C           14.52271613611554       38.76436922227841       16.65564706239017
H           15.08314597310370       38.01968887968146       17.19504882120270
H           13.53286773384695       38.97193663727039       17.02487761286998
C           15.75312326633767       44.45826806266941       14.12603909042676
H           15.49186445153293       43.94714662433547       15.05004546146500
H           14.91798318554925       44.34950187637475       13.43151794309011
H           15.88035828911485       45.51920038955519       14.33541406237326
C           17.97068048883155       45.95017524220994       12.39953276336067
H           18.95106233375384       46.41138502936788       12.36268269324837
C           16.90548244919240       46.67945522540129       12.08044756548859
H           15.91035371496102       46.27139215586090       12.05158901223962
H           16.99420261624621       47.71683878031789       11.80538936184866
C           22.62468644871597       44.57896454734323       10.16821255855017
H           22.64617337105094       45.37864630995942       10.90654776734812
H           21.84198939375852       44.80172002151483        9.44483303559441
H           23.57939005977092       44.56608889639909        9.65012936892455
C           24.46556775159572       41.92586589781180       10.22619935675738
H           25.24727862924277       41.85044243412244       10.98102685436768
H           24.71925540389306       42.73674954963041        9.54924888624796
H           24.44702717097978       40.99867221107765        9.65659707911019
O           19.10543805665682       39.85532565198840       11.05630211957764
H           19.51921387021917       38.99819382793589       10.91125423687865
H           18.47281360337772       40.04729797931893       10.35587887886140
C           22.00676606066751       40.27930442262555       15.73645037020675
H           22.11936283578939       40.34102646535030       16.81292479160603
H           22.89278810019638       40.65967702698433       15.24078974239101
H           21.81187947360031       39.26255561081635       15.41623395260505
S           20.62721963723792       41.37281973480964       15.23896145701178
H           19.68042224964023       40.67850882010394       15.88485412218634
72
 energy: -105.973746359506 gnorm: 0.013021190059 xtb: 6.7.1 (edcfbbe)
Fe          19.78127209589774       40.69131428830455       13.02551194870200
N           20.88850691494508       39.02836083245158       12.99602150948131
N           18.30684315476990       39.69886745867767       13.94470433193951
N           18.65688058110868       42.36681471917193       13.03087988788842
N           21.21201285280361       41.66696241373997       12.04085252539434
C           22.14194970991822       38.88673499519521       12.48717688544351
C           22.58877760405876       37.52076688626089       12.61217851541816
C           21.56772064960942       36.83486971816716       13.19435363309741
C           20.51460839200898       37.79296374509794       13.42958323237632
C           18.27978290968698       38.37377261509410       14.25614299976631
C           17.05385313098347       38.02927530981188       14.92530911651566
C           16.33522702329237       39.18973777393469       15.03122908048985
C           17.13516756057832       40.21705226810282       14.39412911061756
C           17.45942639299642       42.53307521199321       13.65204216038987
C           16.99929638768234       43.88992585512881       13.52036557242999
C           17.95064110977409       44.54787098810618       12.78786986163036
C           18.98677587257730       43.57259368708105       12.51203730037207
C           21.16119168871789       42.94391478170031       11.58243472057139
C           22.35890962726867       43.26467456008064       10.83661239641333