72
 energy: -105.980605944844 gnorm: 0.000063708155 xtb: 6.7.1 (edcfbbe)
Fe          19.85784682329952       40.66614840287374       12.97090900714433
N           20.93392306926473       38.99483566715830       12.89714701013702
N           18.40718763414636       39.68807307078659       13.97001706699524
N           18.72955364145603       42.33929815421554       12.99578234416241
N           21.24461087626760       41.62310849476638       11.91155028745897
C           22.16678077641112       38.84690013646465       12.35233120087142
C           22.63554442606171       37.48588547141008       12.50539844166516
C           21.64443455353143       36.81134242219402       13.14466804504530
C           20.58863979176870       37.77277355299207       13.38162773166167
C           18.39609237578631       38.36807661716348       14.30847063923759
C           17.19457213554018       38.03378468026727       15.02552450204004
C           16.46889320908067       39.19230063231359       15.12519327345507
C           17.24356538811359       40.20962120480675       14.44502098760386
C           17.53782874181497       42.51250622073246       13.63573901101211
C           17.06302337663287       43.86123562349227       13.47370760612973
C           17.99678658665786       44.50876114448147       12.70787412974895
C           19.03754505737357       43.53888365186029       12.43847031332183
C           21.20216933271673       42.90810108484077       11.47421044340143
C           22.40800425009053       43.24083181681749       10.74538287995632
C           23.18576739612151       42.12730020575660       10.76925811816668
C           22.43784413133251       41.12591519649373       11.49927929399103
C           22.88594506785606       39.83815238809798       11.71326481589249
H           23.86035988166461       39.57859381771893       11.32974052353692
C           19.41055773794875       37.46737989082865       14.03191599220432
H           19.27574138871665       36.45003141903227       14.36455548198271
C           16.84632531422383       41.52723721755250       14.31850329369115
H           15.90843281529328       41.80707792069651       14.77174334934657
C           20.17597145724314       43.80400283521273       11.70074240174297
H           20.28338805527464       44.79510770685213       11.28893977011335
C           21.58418244376051       35.37991159101510       13.55319942658480
H           22.49213094551244       34.85729480728399       13.26320027173858
H           20.73704779906470       34.88290356414344       13.08036094803577
H           21.46817560344979       35.29246676929190       14.63394951080393
C           23.95519253318576       36.99325865362537       12.02106827749062
H           24.76717234745017       37.56158486046631       12.47510073825674
H           24.02938205275994       37.10281071608661       10.93909063834823
H           24.09094290222115       35.94349877078339       12.26898415977480
C           16.82579459892391       36.66775858627062       15.48693269262639
H           17.31097626835145       36.43168285310460       16.43563349893811
H           17.13115323055171       35.91973134025644       14.75691896140719
H           15.74886317815121       36.59980138524938       15.62643857641288
C           15.17662348987020       39.41169835147100       15.73693571382410
H           14.54785200036408       40.15051631972860       15.25365757586675
C           14.72591752711494       38.79342972932564       16.82328316862693
H           15.32453963718900       38.08638615278016       17.37065478072842
H           13.74486165753457       38.99566466362024       17.21953269557667
C           15.82646672823649       44.41378423540108       14.09073520189958
H           15.68365457917062       44.01370712132488       15.09353101885823
H           14.94655941527413       44.15972064794561       13.49709978732581
H           15.89555272453149       45.49763788358552       14.15476424982524
C           18.01635811563919       45.88377209039326       12.25872818050678
H           18.99672538357641       46.34065410995903       12.19443041811246
C           16.94724453452720       46.59743124215313       11.92256773298674
H           15.95544866561329       46.17976361420214       11.92316702045408
H           17.03199722424451       47.62414761440549       11.60783080138677
C           22.67564771126131       44.56946456487220       10.12730201648138
H           22.69870476708270       45.34811939601039       10.89003750848204
H           21.89621525748129       44.82243879399532        9.40837123128951
H           23.63166573882686       44.56898156078638        9.60994520765409
C           24.53592729441892       41.90328944598111       10.18152016311866
H           25.24969704240288       41.62782487082536       10.95793894845701
H           24.89671402661767       42.80222349196145        9.68810213733249
H           24.50499625628291       41.09730731574989        9.44816162628522
O           18.77295965053463       40.14840344860092       11.07869346753233
H           17.92005758986459       39.86135202082178       11.42439210759183
H           18.64333718533575       41.02091415962734       10.69003724353485
C           21.21384500586242       39.91126087707178       16.00216873275564
H           21.37612713382776       40.21951867928204       17.03043602381378
H           22.12174443730789       39.48182289466150       15.59167241685457
H           20.40257708688318       39.19538498836324       15.92725676302900
S           20.82868239460764       41.38308788244213       14.99019617425989
H           19.68895054342223       41.67132128718496       15.62800422339812
