72
 energy: -105.980474662594 gnorm: 0.000162988369 xtb: 6.7.1 (edcfbbe)
Fe           1.66844453311241        9.52011996076200        3.88578272618257
N            1.57818034995743        7.60084800204345        3.36664409680341
N           -0.25283251618701        9.76042040326651        3.31965469904418
N            1.76987066498979       11.48538052047736        4.32793318313672
N            3.58215850743803        9.31167532123902        4.38389864613200
C            2.56926454570206        6.68255657675574        3.48108147031426
C            2.12930681554683        5.38988547481487        3.00082050653893
C            0.84781655939326        5.55545148575457        2.58079420007626
C            0.52048952600850        6.94501753311616        2.81946392144235
C           -1.07439111600409        8.80993825432020        2.79055917115730
C           -2.38540719095677        9.34737693889918        2.54325279313800
C           -2.34841044522999       10.65750212494816        2.94512483807254
C           -0.99830034984676       10.89534002161015        3.41175820859766
C            0.74742902742074       12.38732750252007        4.29070707510120
C            1.19467064792114       13.68393313031651        4.72628401260163
C            2.52292860876754       13.54914619110019        5.03516190096468
C            2.85614332864188       12.16358922019823        4.77983172324627
C            4.42290252296786       10.27823093174260        4.83347823498300
C            5.72997336597918        9.72623195847813        5.12271668388027
C            5.65184917937267        8.39919436097195        4.84405761380913
C            4.30121428518941        8.16138951410687        4.38009486362231
C            3.83728352329028        6.92759513948954        3.97116527292328
H            4.52348512064895        6.09629882602672        4.01598254034690
C           -0.71443126603468        7.49579937963360        2.54389897237943
H           -1.46438250789604        6.84692419580202        2.11924529518399
C           -0.54685641052474       12.11279208635968        3.88484740033870
H           -1.26032388334986       12.92027101480218        3.93299330432822
C            4.09987761692804       11.60825310990025        5.01458954378746
H            4.87241690146868       12.25934031388754        5.39236178180624
C           -0.09040112932492        4.56100066075400        1.98882662784715
H            0.38422444145232        3.58694954956990        1.90207748777246
H           -0.40625308565921        4.87783936373106        0.99477709173364
H           -0.98078928056669        4.45467243307644        2.60933777796808
C            2.97706013172655        4.16519033872965        2.99162705119172
H            3.31378126405201        3.92396517977649        4.00004182002623
H            3.85813667937650        4.31622625699142        2.36789499509280
H            2.42355384963967        3.31433031939301        2.60230774708601
C           -3.50881515145474        8.60516167777260        1.90916244741426
H           -4.03420497338379        7.99070598325702        2.64232550141029
H           -3.14088314187994        7.94916708925838        1.12169356623526
H           -4.22017269043579        9.30526355078019        1.47591116421084
C           -3.39405240034465       11.65596658671704        2.90219892969004
H           -3.06648347622869       12.67098980795180        2.70952056899043
C           -4.68886012307967       11.42100019640500        3.08594004106678
H           -5.06557048621913       10.44225215776910        3.32676641461989
H           -5.41793232345493       12.21181911158912        3.02751373057033
C            0.36031701457547       14.91633086604235        4.74469377083954
H           -0.25096662869149       14.95854097890487        5.64758627773921
H           -0.30726441921847       14.94467577964445        3.88464444936350
H            0.99746141836374       15.79789011112379        4.71962561236110
C            3.46112071033000       14.54797983570633        5.49861785179041
H            4.48084223962870       14.42842467833864        5.15133896247830
C            3.16766580916107       15.56465328259358        6.30197449410223
H            2.18386728583737       15.70303022144085        6.71515717879207
H            3.91526818209756       16.28122453030343        6.59882485311299
C            6.88328826186065       10.52110449538771        5.62943493908483
H            6.63585938191791       10.98830221911199        6.58273972980711
H            7.14546659025686       11.30951215755230        4.92354676705759
H            7.75489915172881        9.88781390519373        5.77392776908153
C            6.69742584333979        7.34457708857638        4.95868803530132
H            6.37137273108096        6.55486590149929        5.63563338188107
H            7.62627716997070        7.76109683519313        5.34015313569161
H            6.89617434979823        6.89602171434800        3.98514986597627
O            2.24362580247264       10.11740736088175        1.80180901125323
H            1.37987269348151       10.32430198413998        1.42659673809434
H            2.69005076439625       10.95586792196541        1.96678842383103
C           -0.14556372335469        7.70089127526462        6.11780398098751
H           -0.68407156366236        7.68755558999997        7.06041637668275
H            0.46573496805850        6.80962345440917        6.02235408628037
H           -0.82484709960280        7.77228613590684        5.27538402731943
S            1.00093554340456        9.12369654213279        6.10405461747035
H            0.03947947382339       10.05199537745020        6.15694802077300
