87
 energy: -124.720039858142 gnorm: 0.000032964630 xtb: 6.7.1 (edcfbbe)
Fe           2.62577185876462       20.92630335714142       13.10865550589239
N            4.05640459568641       19.80486814605705       12.27857819231468
N            3.17717425311590       20.28183892313393       14.92397854787937
N            1.21476030505661       22.07976317629965       13.95340052348373
N            2.10219469907187       21.60954750401191       11.29886443292347
C            4.36941571098607       19.72753085270846       10.95922740851001
C            5.45657945107716       18.79632323110526       10.74490396860602
C            5.78914196188108       18.31111695211272       11.96966630189274
C            4.90568045411897       18.95916506586795       12.91510966960351
C            4.15912198990626       19.38725235792939       15.21049653999308
C            4.26284969199404       19.18128278216999       16.63831764381130
C            3.32063365448188       19.97987091259740       17.20787701308070
C            2.65514258563900       20.66084797229772       16.11982633319211
C            0.96949950555919       22.23281800399094       15.27905896794931
C           -0.09902520828327       23.18846677800887       15.49621144698618
C           -0.46454296322014       23.63443202475448       14.25333842608975
C            0.36987920031420       22.93425658645189       13.31149770025303
C            1.09108630302244       22.46997928923217       11.00972127407172
C            1.01042180046330       22.69947094367440        9.58047764288992
C            2.03757732786010       21.98330060606677        9.02762263807549
C            2.68930459608734       21.29999269903730       10.11378952815443
C            3.75100253662080       20.42819910980937        9.94507566227276
H            4.11374136016054       20.27787971089177        8.93977280917049
C            4.96121292297011       18.75192991393821       14.28045327161456
H            5.69330256511544       18.05023158644090       14.65040177031611
C            1.62467473370939       21.56419843216776       16.29701413475005
H            1.31150566910403       21.76512240855563       17.31000424140280
C            0.30069248501838       23.11593318148720       11.94056888064927
H           -0.41436070828311       23.83210411979427       11.56724482942562
C            6.04018083860196       18.47774654683610        9.41133135749953
H            6.43467668492094       19.37823534898017        8.93977803062378
H            5.28020485830659       18.05672452802930        8.75293588832893
H            6.84931765237529       17.75745969455682        9.50461441369993
C            6.83552767085678       17.31700155804113       12.34162006956138
H            6.38615857312118       16.45949013228615       12.84258212134893
H            7.56556112624188       17.76016048768616       13.01999707995595
H            7.36146720875577       16.96079929149026       11.45928775430739
C            2.40613625465301       21.85378812940598        7.59030475491353
H            2.25258695450254       20.83058011624989        7.24537775237575
H            3.45602059386388       22.10590474145893        7.43910684294265
H            1.79680980953780       22.51382651363202        6.97780288335941
C            0.03462170518889       23.50714916128837        8.87785524330487
H            0.41999960387725       24.07015493130109        8.03424390541263
C           -1.26279350598580       23.57026112418431        9.15540001518238
H           -1.70804974775186       22.98966593971608        9.94572786949471
H           -1.93241998838913       24.18980133554431        8.58208567446818
C           -1.46572149686391       24.67872014172477       13.90137840698645
H           -2.41085576734102       24.22666162140090       13.59501559690729
H           -1.10732674496466       25.29610033110454       13.07890811068618
H           -1.65483571517073       25.31838139812058       14.76116354629776
C           -0.60948541507113       23.57538738331101       16.79248768480609
H            0.11391070368736       23.57614092563906       17.59976528871589
C           -1.86814752972171       23.91089037131135       17.05680907176457
H           -2.63896088699673       23.88236213805361       16.30653733103950
H           -2.17732166869979       24.20263225566088       18.04686057472352
C            2.98271934972177       20.16308668731777       18.64749743647850
H            3.61871303389030       19.54459943501013       19.27616507641450
H            1.94426649781755       19.88872153672504       18.83514661217582
H            3.11560248354090       21.20400021539973       18.94372252177687
C            5.23271882651274       18.25288067393707       17.28553040725364
H            5.11781084902658       18.26596784505183       18.36657316439939
H            6.25778683340684       18.53782145557821       17.04630756524081
H            5.07651711369273       17.23172011796499       16.93659402068187
C            5.17575327225745       25.88884402454293       13.06547508761860
H            6.00937276761343       26.02806175441662       12.37716347368265
H            5.44747676271577       26.33152485541069       14.02375766690135
H            4.30950797184434       26.41254844576801       12.67354945316979
N            5.76372502976252       23.53772014595060       13.69775268341310
H            6.70821377808527       23.74167785984313       13.98052391384304
C            4.85584354799850       24.44743276336624       13.22205913905300
C            5.16036612489063       22.32814707941579       13.71640852042648
H            5.63367271721037       21.42535007359990       14.04276124344205
N            3.92716248112624       22.41678455354780       13.28212239774854
C            3.72280027560704       23.72827247709551       12.97049577801661
H            2.78180115808719       24.06581042467704       12.58879053458463
C            1.12597152372186       17.51453974142922       15.11892100575000
H            0.69520718952578       17.28643556834290       16.09188706315998
H            2.16679741676307       17.79239611424240       15.25585680568767
H            1.08588589359466       16.62292386286561       14.49767934835366
C            0.36052607081630       18.64828602582791       14.46481609725035
H            0.38009853918477       19.54598527911514       15.08035936236392
H           -0.67109649480926       18.35477945070856       14.27065233758522
S            1.10810271402940       19.06276914584597       12.83561476443879
C           -0.38979740848036       19.71727368972401       12.03715826064261
H           -0.76693571639081       20.56367885615525       12.60225559477288
H           -1.13222367791711       18.92582261621589       11.97514704258592
H           -0.10547203436701       20.03808445016490       11.04112304720923
