87
 energy: -124.367442598116 gnorm: 0.410437461311 xtb: 6.7.1 (edcfbbe)
Fe           2.60600000000000       20.97500000000000       13.19400000000000
N            4.12300000000000       19.95400000000000       12.42400000000000
N            3.33500000000000       20.37800000000000       15.07300000000000
N            1.23300000000000       22.08500000000000       14.09800000000000
N            2.01600000000000       21.66500000000000       11.42200000000000
C            4.43200000000000       19.89200000000000       11.02800000000000
C            5.42900000000000       18.88600000000000       10.79300000000000
C            5.75600000000000       18.34100000000000       11.96900000000000
C            4.95500000000000       19.00200000000000       13.02600000000000
C            4.21300000000000       19.37200000000000       15.30000000000000
C            4.30200000000000       19.16100000000000       16.75700000000000
C            3.46300000000000       20.01300000000000       17.34100000000000
C            2.85600000000000       20.82200000000000       16.26800000000000
C            1.11100000000000       22.38400000000000       15.42400000000000
C            0.02200000000000       23.29600000000000       15.61700000000000
C           -0.47000000000000       23.62700000000000       14.43000000000000
C            0.23900000000000       22.83800000000000       13.44300000000000
C            0.94800000000000       22.43200000000000       11.14500000000000
C            0.96100000000000       22.77200000000000        9.67800000000000
C            2.02800000000000       22.19600000000000        9.16400000000000
C            2.72000000000000       21.46700000000000       10.23700000000000
C            3.85400000000000       20.70700000000000       10.09800000000000
H            4.35200000000000       20.76000000000000        9.13000000000000
C            4.98100000000000       18.68800000000000       14.35500000000000
H            5.62400000000000       17.87500000000000       14.69000000000000
C            1.91700000000000       21.80400000000000       16.42700000000000
H            1.77600000000000       22.18000000000000       17.44000000000000
C            0.03800000000000       22.84700000000000       12.07300000000000
H           -0.92100000000000       23.21400000000000       11.70800000000000
C            5.99300000000000       18.53300000000000        9.40100000000000
H            6.31800000000000       19.56100000000000        9.13400000000000
H            5.01400000000000       18.32800000000000        8.91700000000000
H            6.75400000000000       17.80900000000000        9.03900000000000
C            6.79200000000000       17.25100000000000       12.27000000000000
H            6.09700000000000       16.57900000000000       12.81800000000000
H            7.39500000000000       17.82400000000000       13.00600000000000
H            7.45900000000000       16.63500000000000       11.63000000000000
C            2.61400000000000       22.14300000000000        7.72200000000000
H            1.68300000000000       21.67000000000000        7.34300000000000
H            3.46100000000000       21.84900000000000        7.06500000000000
H            2.48800000000000       23.24700000000000        7.70800000000000
C           -0.13200000000000       23.61300000000000        9.06800000000000
H            0.29800000000000       24.55100000000000        8.68900000000000
C           -1.25600000000000       23.00400000000000        8.21700000000000
H           -1.74300000000000       22.06600000000000        8.52300000000000
H           -1.58700000000000       23.49900000000000        7.29200000000000
C           -1.67200000000000       24.54200000000000       14.06800000000000
H           -2.26500000000000       23.79900000000000       13.49300000000000
H           -1.12100000000000       25.19200000000000       13.35500000000000
H           -2.36300000000000       25.15500000000000       14.68500000000000
C           -0.41000000000000       23.86400000000000       17.00000000000000
H            0.38600000000000       23.88700000000000       17.71600000000000
C           -1.95700000000000       23.96600000000000       17.17800000000000
H           -2.62400000000000       23.92100000000000       16.30400000000000
H           -2.39700000000000       24.08400000000000       18.17899999999999
C            3.12300000000000       20.17100000000000       18.83599999999999
H            2.99200000000000       19.07400000000000       18.95100000000000
H            2.44300000000000       20.69100000000000       19.54400000000000
H            4.17900000000000       20.43300000000000       19.06100000000000
C            5.17100000000000       18.05000000000000       17.37600000000000
H            4.30400000000000       17.65500000000000       17.94700000000000
H            5.69900000000000       18.80300000000000       17.99800000000000
H            5.85600000000000       17.21000000000000       17.13400000000000
C            5.23900000000000       25.76400000000000       12.64200000000000
H            5.92400000000000       25.75800000000000       11.76700000000000
H            5.74600000000000       26.26700000000000       13.49300000000000
H            4.31400000000000       26.31600000000000       12.37100000000000
N            5.79100000000000       23.42700000000000       13.38700000000000
H            6.77400000000000       23.58500000000000       13.47300000000000
C            4.89900000000000       24.36799999999999       13.01500000000000
C            5.17000000000000       22.28700000000000       13.61500000000000
H            5.66600000000000       21.38800000000000       13.97900000000000
N            3.86300000000000       22.41700000000000       13.33200000000000
C            3.68900000000000       23.72600000000000       12.96500000000000
H            2.70700000000000       24.09600000000000       12.69600000000000
C            0.65300000000000       17.98300000000000       15.48700000000000
H           -0.04500000000000       17.81700000000000       16.33500000000000
H            1.55700000000000       18.50400000000000       15.86900000000000
H            0.94000000000000       16.99600000000000       15.06500000000000
C           -0.03000000000000       18.84400000000000       14.39600000000000
H           -0.33100000000000       19.83400000000000       14.80100000000000
H           -0.93800000000000       18.33900000000000       14.00100000000000
S            1.28700000000000       19.00000000000000       13.10500000000000
C            0.26000000000000       19.19500000000000       11.64500000000000
H           -0.38900000000000       20.09300000000000       11.72500000000000
H           -0.39600000000000       18.30800000000000       11.51600000000000
H            0.89600000000000       19.31000000000000       10.74100000000000
87
 energy: -124.538946725532 gnorm: 0.234936198824 xtb: 6.7.1 (edcfbbe)
Fe           2.61993048732955       20.97429756915735       13.21177307308179
N            4.12240374227488       19.92538098721734       12.40271684288079
N            3.32297729883783       20.37396381086644       15.05543323541460
N            1.22447319586041       22.09792082847432       14.09836923363887
N            2.02845879261483       21.65880782846686       11.42784831193721
C            4.43728147689099       19.88712478818660       11.04078251264648
C            5.44408332770812       18.88258980571008       10.79101119941298
C            5.76581784574323       18.33531377284528       11.97067381043584
C            4.94798740279846       18.99358168752764       13.00263287993617
C            4.21043504849084       19.38083459634851       15.29189425490511
C            4.29485222657131       19.15248870835453       16.72486435391166
C            3.44686572718911       20.02994941815509       17.32077706421327
C            2.85259402503175       20.81953519197263       16.25101676265022
C            1.11552847615341       22.39020136874289       15.42798910129871
C            0.02151967256425       23.31640445046544       15.65007794618720
C           -0.49483434272428       23.61658085126594       14.43730826682271
C            0.23758026778484       22.83656866136794       13.45518403983346
C            0.95155243279193       22.41958307912282       11.13951341583362
C            0.93478800702699       22.75030680094146        9.68826578562763
C            2.05275235981986       22.17702152119013        9.18330335930713
C            2.72274617485658       21.47306199289152       10.25903219609236
C            3.85718804122153       20.70814063895600       10.10141680419602
H            4.33988709305219       20.75078688513333        9.12791007785116
C            4.97451136421465       18.69595379109902       14.34894783572081
H            5.61827072390108       17.88916710912618       14.69114193204985
C            1.91125897922715       21.81008131498064       16.42296858225330
H            1.76781139193505       22.17095658251942       17.43731487640755
C            0.03488055979433       22.84886727540110       12.07728231379189
H           -0.91168073796817       23.23386039521595       11.70836918499294
C            5.96715969799595       18.56378710608685        9.39710652600828
H            6.32112473703324       19.55771657363023        9.09909203203490
H            5.02530330650282       18.33056046522690        8.88561061314905
H            6.72964498475783       17.82255177016800        9.09365355301681
C            6.77548212120879       17.25786921815783       12.30574499246711
H            6.12110297056365       16.55652318377208       12.83580785551815
H            7.41063783872898       17.79729173434966       13.01895531104191
H            7.42074446053969       16.67871347447496       11.62010725315846
C            2.56231509938079       22.17512047900355        7.72638112655995
H            1.67986423745641       21.68546791025014        7.29663822016454
H            3.44625341187653       21.84095306901945        7.14298419334874
H            2.48282426028261       23.26405658979169        7.64418032760068
C           -0.12545777901394       23.55664237643232        8.99090791671316
H            0.27112215119829       24.53839011323534        8.68549483079664
C           -1.20391878680681       23.01911557247426        8.24536643873201
H           -1.70805416739346       22.08864654026406        8.52436549676302
H           -1.58363561078561       23.51131833191070        7.34225243106839
C           -1.65511019483083       24.52620257366928       14.03459398580850
H           -2.28241266883205       23.81864630043350       13.47896689188069
H           -1.14656767616624       25.20351238978430       13.33846542761818
H           -2.31313910104127       25.12507304730021       14.69003060161060
C           -0.47853463664913       23.82462225330125       16.97785535728651
H            0.32801372349557       23.89188435696243       17.70975907347248
C           -1.88498230949086       23.95844989098619       17.17853672400746
H           -2.57921361304346       23.90877395278277       16.33284892303640
H           -2.35747573511886       24.09449622838841       18.15736096806437
C            3.16226455063686       20.13962681870797       18.82301151543330
H            3.00012013584436       19.06819376944213       18.99857922793318
H            2.45177898650168       20.69295574378856       19.46963096867000
H            4.18304901188754       20.42188142201602       19.11075278002214
C            5.14511235045843       18.07984204318552       17.41145488447154
H            4.32569715041125       17.63079745825900       17.98636943001198
H            5.71767896426511       18.77452442344551       18.03815501689943
H            5.81925770146213       17.25960647788504       17.09356543101767
C            5.24159686437897       25.76717298707700       12.64040377859016
H            5.91930258874055       25.76481167502604       11.77472497358621
H            5.74116303168084       26.26832528909830       13.48168151135743
H            4.32775066748096       26.31198116412276       12.37531969026659
N            5.79628885457477       23.43640674797873       13.39129105392635
H            6.78345366402346       23.59103228656118       13.47764482399617
C            4.89257481421557       24.37330856746122       13.00493943251448
C            5.16224153654098       22.28412608478999       13.61133241748103
H            5.65277140582313       21.39309813297836       13.97185634873697
N            3.86990630503870       22.42086146954160       13.33530383517182
C            3.69013064303132       23.72219593327572       12.96543220713265
H            2.71423656471201       24.09101172872872       12.69942359445459
C            0.64522142885561       17.98455158295322       15.49066685483259
H           -0.04008425725948       17.81823331762861       16.33057583079087
H            1.54312974002716       18.49554058063830       15.86292648962246
H            0.93660378053138       17.01103844635336       15.07167479367644
C           -0.02077337765541       18.83934879854235       14.40493293548544
H           -0.31936311622072       19.82520626271454       14.79385061806359
H           -0.91782072698495       18.34292810341724       13.99924367572214
S            1.27697684556327       19.00608765644122       13.09805772216185
C            0.24568731439864       19.19624318302636       11.63463728633296
H           -0.38426902714547       20.08908981967945       11.72442682049624
H           -0.39133147605970       18.31084780400262       11.51507436209993
H            0.89163529739967       19.30740700767452       10.75417336478343
87
 energy: -124.628988991086 gnorm: 0.132223971800 xtb: 6.7.1 (edcfbbe)
Fe           2.63082930290574       20.97128893056384       13.23129661052366
N            4.12606879404591       19.90144851396896       12.38269827864275
N            3.30835264024156       20.37191782292167       15.03885970373316
N            1.21483786815341       22.11351492369369       14.10104515914687
N            2.03944818058033       21.65697671078733       11.43142133278279
C            4.43722908648237       19.88229266329836       11.05536027875576
C            5.45848586565438       18.88008126324806       10.78593743680285
C            5.77351908302030       18.32775921146879       11.97197995440841
C            4.93959755990600       18.98462070521389       12.98053468798326
C            4.20459107590407       19.38383171111931       15.28813796178197
C            4.29007963121625       19.14469807836382       16.70056417923224
C            3.43413445232125       20.04425273838190       17.30574875954451
C            2.84655841000549       20.81431295588287       16.23933164151461
C            1.11445744769754       22.39892203042560       15.43186600444025
C            0.00846207945444       23.33321464952258       15.67232046417489
C           -0.51918470939144       23.60405253122391       14.43952383556839
C            0.24019332381349       22.83334710765977       13.46574832268418
C            0.94928572678580       22.40770734146264       11.13248615026763
C            0.91292936454734       22.72585023258732        9.70273553348681
C            2.07079753018194       22.16185585212232        9.19706386124243
C            2.72524508926278       21.48301846314196       10.27545586426260
C            3.86045845785635       20.70594314146677       10.10295438311121
H            4.32776418093079       20.73829450843876        9.12663900589853
C            4.96448125332575       18.70310459428952       14.34005991297866
H            5.61277803432904       17.90660835252108       14.68932899138950
C            1.90060906047524       21.81705313040881       16.42016033110561
H            1.75656455130970       22.16137072167647       17.43601999247735
C            0.03412979922364       22.85125458236302       12.08246182391834
H           -0.89818294652691       23.25797111844414       11.71001286375441
C            5.94263610406696       18.59563014877476        9.39457177219990
H            6.32361220047120       19.55747951872359        9.05920175704098
H            5.03527218135669       18.33526207152086        8.85284504665557
H            6.70611215386123       17.83487473609802        9.15927465383372
C            6.75876361622796       17.26533488605068       12.34098800966570
H            6.14672945487930       16.53131104835309       12.85781823032141
H            7.42817207704957       17.76771214181198       13.03724283007264
H            7.37717350982260       16.72834842577838       11.60279967630681
C            2.50299880723416       22.20756921968244        7.73888966870437
H            1.67014724863054       21.70555982038901        7.25102936454724
H            3.42890797051101       21.83166632452189        7.24402553298512
H            2.47135746985090       23.28146901022384        7.58259108018997
C           -0.11395115764334       23.49999675251514        8.92206697249008
H            0.25863860222412       24.51170728250793        8.67717212240566
C           -1.14438269921504       23.03235428074669        8.27788691823512
H           -1.65736222170595       22.09769195202081        8.51691714043915
H           -1.58613302368438       23.53203170845469        7.40492939248481
C           -1.63810079494759       24.50721344246321       14.00314225665192
H           -2.30328079947663       23.83993055567957       13.45782404941589
H           -1.16910569641211       25.21266516137551       13.32020463227118
H           -2.25766138489038       25.09008604663559       14.70307064584172
C           -0.53268483993853       23.79648640883081       16.95890978601586
H            0.26799504806819       23.88958251248935       17.71283142191597
C           -1.80617889830414       23.94242225649160       17.17012360505095
H           -2.53901043496398       23.88549464146366       16.35871325738034
H           -2.30444843215856       24.11102866927907       18.13172625314952
C            3.20374717272363       20.10781445870698       18.80353485666298
H            3.01232268910984       19.06174378850431       19.04081339487676
H            2.45854691923916       20.69927759291742       19.37539637611978
H            4.18965483026404       20.40770380081532       19.15707614355796
C            5.11461746939479       18.11489888732473       17.44480596003381
H            4.34563218865738       17.61136310651759       18.02810963412784
H            5.73177061026959       18.74947458155071       18.07865731729993
H            5.77400430865657       17.31980000218751       17.03810068345767
C            5.24409212291394       25.77050183322207       12.63865675362856
H            5.91712026572509       25.77152961677320       11.78010411552601
H            5.73803779313072       26.26903690337529       13.47364879703262
H            4.33821775190638       26.31148960715448       12.37824464857854
N            5.80314674126596       23.44656758530009       13.39605942609104
H            6.79269457414116       23.59694264519341       13.48250121560791
C            4.88652039002556       24.37728481511907       12.99521090235378
C            5.15565712075420       22.28379089650481       13.60852585342511
H            5.64224783449188       21.39792641142680       13.96480081275121
N            3.87735557209674       22.42249334775159       13.33807810688485
C            3.69132449700847       23.71791825300504       12.96571904192928
H            2.72018100452617       24.08704164453017       12.70157965294583
C            0.63952707450021       17.98686764746481       15.49263703884095
H           -0.03893013027020       17.82125120265626       16.32622178916694
H            1.53278717639062       18.48939557224522       15.86060695183228
H            0.93298211927063       17.02194634162173       15.07730560714482
C           -0.01290129611061       18.83624406051647       14.41087339656516
H           -0.30553395333215       19.81969810393480       14.78764188603504
H           -0.89864700239364       18.34475279308310       13.99471077014230
S            1.27398214342405       19.00879873248179       13.09438272847526
C            0.23106055648825       19.19803025874193       11.62733235523748
H           -0.38361142291337       20.08751271365951       11.72315499315954
H           -0.38943943484148       18.31253630125777       11.51410902099561
H            0.88809605886004       19.30489288490652       10.76685036762797
87
 energy: -124.674036236567 gnorm: 0.059498756614 xtb: 6.7.1 (edcfbbe)
Fe           2.63688572985678       20.96918277239891       13.24271076516952
N            4.11467324308610       19.88218441571759       12.37395452346743
N            3.29141654193780       20.36793852429820       15.02844990935259
N            1.21631872506667       22.11899300679061       14.10024890622835
N            2.04743386522743       21.65315030650236       11.43930258268442
C            4.43675200185259       19.88038486349067       11.05978778892558
C            5.46494553175327       18.88476560992071       10.78565470294161
C            5.77342476189479       18.32544393200449       11.97592257741245
C            4.92672308778011       18.97381056038932       12.97147812859472
C            4.19381335860792       19.38262385476846       15.28193314860862
C            4.28206833707351       19.14486141336970       16.69161408169466
C            3.43064247528176       20.04798321027113       17.29525348217034
C            2.83581218274324       20.81021348398504       16.23157400773903
C            1.11631573007749       22.40253209874657       15.42771415258847
C            0.00954269499371       23.33290755229611       15.66087752247737
C           -0.52779829378670       23.58960734047123       14.42878729225963
C            0.24335432248822       22.82531878187555       13.46511828320914
C            0.94810866035821       22.39398250236208       11.13572850043160
C            0.91725911844167       22.70218313593357        9.71825698768006
C            2.07317452600681       22.14927136284879        9.20370647122229
C            2.73405979779913       21.48592285548527       10.28493601778674
C            3.86584784451798       20.70336176780237       10.10516648595036
H            4.31372468280186       20.71873302459230        9.12148877067627
C            4.95199668997694       18.70622291047771       14.33155741112282
H            5.61089858167097       17.92545929612817       14.68809360875121
C            1.89148475859613       21.81805123949766       16.41622958291583
H            1.73810189429441       22.14678066539865       17.43516009624367
C            0.03750614235403       22.84997203588026       12.08481711694889
H           -0.87767010321106       23.29420528103725       11.70984680655187
C            5.92720794480034       18.62121571382330        9.39272022078524
H            6.32715897823282       19.56135778708814        9.00881265390252
H            5.04520266581032       18.34406343943037        8.81242056702508
H            6.68966905231772       17.84135378407440        9.23505870802254
C            6.74729462624972       17.26996108282709       12.36862993679577
H            6.17687924347144       16.49933345866360       12.88824485206752
H            7.44951368890111       17.73260815936725       13.06483980024022
H            7.33326387944876       16.78064428344320       11.57417442519296
C            2.45826757851630       22.23147471438939        7.75080081710236
H            1.65496671137610       21.73507368129645        7.19818253270004
H            3.41739727174026       21.81749344313051        7.35293395437707
H            2.44859453388887       23.30054761477169        7.51417685292835
C           -0.05404496382430       23.48158707041357        8.89921076515595
H            0.28887239939812       24.49472903875381        8.65923124802945
C           -1.15608885623997       23.03079000004400        8.29455584245265
H           -1.61289671647938       22.06805885875108        8.50309063577584
H           -1.62715642999699       23.56666831873577        7.46547781555346
C           -1.62709438499748       24.49175405138260       13.97344536452831
H           -2.33382643572289       23.86443557654309       13.42537270902341
H           -1.19257191873471       25.22127300200855       13.28910587660766
H           -2.19688463861678       25.05540079308676       14.72628718063327
C           -0.51130721015019       23.75944277384130       16.94817267240971
H            0.25112858019520       23.87016031876680       17.72746928634908
C           -1.81499273725915       23.95507952395660       17.17904197649615
H           -2.54150247598912       23.84727234205926       16.37933119521155
H           -2.27355710320011       24.14938859317238       18.14156699505997
C            3.23448759591421       20.08782974888062       18.78474629923326
H            3.03084434513174       19.05487714043550       19.08816262095345
H            2.45730807239784       20.71661573641825       19.26939039351928
H            4.20018477838113       20.38737646814926       19.20753453769711
C            5.09013331222122       18.14348053480865       17.46600871387468
H            4.36861026001977       17.59348538546091       18.07990697453352
H            5.74190571403520       18.72374896871037       18.12757838294300
H            5.72820770472667       17.38208419432231       16.96771975117692
C            5.24620642022279       25.77438203489075       12.63646556646787
H            5.91936086044228       25.78172933214252       11.78060987808699
H            5.73749052654269       26.27330682561818       13.46984594015277
H            4.34363567370440       26.31729382177762       12.37851591992932
N            5.80857533560270       23.45569140342329       13.39973947848388
H            6.79887102188517       23.60620440618178       13.48934215115279
C            4.88668555762141       24.38076359137179       12.98910854827009
C            5.15701171851298       22.28941272122355       13.60732657924957
H            5.63803945365642       21.40097563605362       13.95843844277207
N            3.88181177060841       22.42491398053264       13.34053567490626
C            3.69401999109198       23.71803419048048       12.96416070003067
H            2.72335056888151       24.08511351819753       12.70184045138199
C            0.63576274250135       17.98783056462861       15.49654742870417
H           -0.04496806405914       17.82473420448805       16.32698150396054
H            1.52759211125638       18.48577935336908       15.86484265725047
H            0.92961731940088       17.02556782461626       15.08319238141837
C           -0.00049317415563       18.83559841172101       14.41049348819236
H           -0.28755620192652       19.81990058479878       14.78072344610562
H           -0.87793590954047       18.34475823631945       13.98489584431046
S            1.27568536052149       19.01305818494301       13.08701388667503
C            0.21949314788893       19.19905553363476       11.62402711599169
H           -0.38952883547040       20.09006128432119       11.72110153738285
H           -0.39309878534538       18.30985503425194       11.51223200872032
H            0.88537943465011       19.30326591526649       10.77324710024107
87
 energy: -124.693277026861 gnorm: 0.051632941911 xtb: 6.7.1 (edcfbbe)
Fe           2.63782462241125       20.96873254603676       13.24810307161063
N            4.09877991603097       19.87356925685269       12.37124232802228
N            3.26911726424762       20.36061071151822       15.02513099989489
N            1.22061660033977       22.11764188565523       14.10142935359076
N            2.05377255838702       21.65083995686583       11.43979894184591
C            4.42988116822456       19.87994590805372       11.06170208196536
C            5.46594850014567       18.89288775572711       10.78800529964035
C            5.76668820860937       18.32501475846826       11.98247228801428
C            4.90810918859342       18.96568775026397       12.96753994752134
C            4.17748662601650       19.37662983622535       15.27951955929056
C            4.27532772324034       19.14729886770213       16.69195791395761
C            3.42952082658116       20.05034271184723       17.29283400865027
C            2.81958898762967       20.80536197919691       16.23097982101341
C            1.11147929993424       22.40250934152763       15.42535973054800
C           -0.00190739475898       23.32501310021939       15.64843642327075
C           -0.53834934334882       23.57077260323224       14.41259274919899
C            0.24914751431733       22.81509664072333       13.46200390548637
C            0.94622679898489       22.38441483491131       11.13811366115712
C            0.90877924856650       22.68349194150205        9.72756339935704
C            2.06395461642494       22.14913803150873        9.20109302030370
C            2.73733041498070       21.48640840579763       10.28163242889992
C            3.86438985841073       20.69711700722885       10.10142499214861
H            4.29722764183379       20.69282249898592        9.11261643571694
C            4.93372425521425       18.70709055510046       14.32574578757908
H            5.60912022895496       17.94465461392853       14.68666292706632
C            1.87586834230074       21.81401685625358       16.41681279102195
H            1.70954992097247       22.12836071941037       17.43753344457130
C            0.04539327454880       22.85208338343444       12.08588080223747
H           -0.84886727899640       23.33883593462269       11.71058432835830
C            5.92331365334031       18.63708634937021        9.39705594883495
H            6.33762231245411       19.55653735462071        8.97344816634413