78
 energy: -116.058135080516 gnorm: 0.000057742943 xtb: 6.7.1 (edcfbbe)
Fe          10.81554641413739        2.56800403457026       25.69492408839594
N           10.07447888158724        2.61890177837129       27.56597547778673
N           10.91296645547576        4.55839767878185       25.67700118808788
N           11.49397249988211        2.49708838766246       23.82092903218246
N           10.65152491482813        0.56008884002513       25.70798702897299
C            9.71004090212638        1.55912732421529       28.33880099655253
C            9.27336046980173        2.00358888389605       29.64270904024971
C            9.39407256690039        3.35892461678104       29.64455486192569
C            9.89561471357654        3.72465705221733       28.33939705524619
C           10.59739621299633        5.40452185793301       26.69380868864713
C           10.81933631765557        6.77625479034493       26.30920714874087
C           11.28689604859668        6.74338020442342       25.02319095837808
C           11.32843168388724        5.34123513964799       24.65021317455668
C           11.83940173983461        3.55764921516717       23.04301008497491
C           12.31419434359152        3.11810799898534       21.75480335333213
C           12.25475539486380        1.75048401952161       21.77070382927488
C           11.72978603057826        1.38930224950495       23.07456619911803
C           11.02463168037166       -0.29215467241937       24.71535808338025
C           10.80349325469656       -1.66432795482761       25.11032789588732
C           10.28821968505750       -1.62253627399044       26.36931248604708
C           10.20855171418110       -0.22542464173922       26.72869510708273
C            9.75666268409391        0.23103660450924       27.95371024669081
H            9.43493311815205       -0.50727261973142       28.67227376825378
C           10.13487983125936        5.02459737393486       27.94160945355413
H            9.94684039933641        5.80503351752869       28.66286603986920
C           11.77056703750409        4.88607952704384       23.42363259179541
H           12.09723142238244        5.62416486429501       22.70690234785173
C           11.53162327660055        0.08502039006152       23.48663820128066
H           11.79140323834527       -0.70310064366218       22.79679536416712
C            9.08591997119175        4.33231184028164       30.72998551123337
H            9.97360666085475        4.90909296538200       30.99021786074623
H            8.73650791310064        3.81948905462550       31.62281115913225
H            8.31167591171435        5.03040332181183       30.41051401401986
C            8.79798346195667        1.09572947324569       30.72523915369392
H            9.58123600008900        0.39232024780879       31.00980286917092
H            7.93349463242705        0.52064804562051       30.39241285305973
H            8.51161000989626        1.66308848258921       31.60726961379875
C           10.51148221870012        7.96408153506944       27.15252604067471
H           11.31637629726193        8.15634188349721       27.86407871275410
H            9.59299525171531        7.80842834837128       27.71646172707164
H           10.38955784917289        8.84487453205122       26.52546661952568
C           11.64821660408568        7.83980290805637       24.15223975290093
H           11.43883233095601        7.68965906882702       23.09948597438954
C           12.20835495677561        8.98093240460382       24.54049811025267
H           12.48126810561215        9.16576339737244       25.56486958452582
H           12.43790791838765        9.76404784300210       23.83696509072393
C           12.70650661665700        4.01608245527695       20.63401544262259
H           13.72968669723983        4.37432753642931       20.76040180257809
H           12.04899495939976        4.88282002133857       20.58819967951253
H           12.64390297489724        3.48163124043160       19.68833497890845
C           12.59478060522701        0.80785051266283       20.72806662389597
H           11.98738551093716       -0.08917686609251       20.69102517953949
C           13.57539988788749        0.95704164090056       19.84332458030209
H           14.23962981604315        1.80336909307836       19.86180369477854
H           13.76415335200791        0.21893767891920       19.08137313202906
C           11.10055749948964       -2.84479642768869       24.25090988273181
H           12.15544808028162       -2.86254868105145       23.97654268790038
H           10.51394603606022       -2.80768002916607       23.33257547057789
H           10.86540649804884       -3.77103900278082       24.76959360118734
C            9.87106297415569       -2.74480129850479       27.25735189790830
H           10.00833268005224       -3.70194388664521       26.76047155286490
H            8.81995520550995       -2.64837560558312       27.53063276505852
H           10.45897575162526       -2.74835045874369       28.17587357979651
O            8.63727404303148        2.59429163408956       24.97634144767241
H            8.19501450101968        2.73516917418148       25.82062921338582
H            8.53276616387383        1.66253758200973       24.75461021656589
C           16.26541025374841        3.20787884925796       26.67894336071437
H           16.92291698143992        2.37081137770686       26.44432010492411
H           16.57105729224030        3.62266891854031       27.63939294656842
H           16.38693738476163        3.97017350182227       25.91590045278637
N           14.39542115311356        1.82123639898870       27.60157893009868
H           14.95462396874623        1.33991805930814       28.28653802785518
C           14.84769242247111        2.76883255930575       26.72106094412794
C           13.07241849535873        1.65378025619040       27.37930871923616
H           12.45370503094877        0.97147212354483       27.92441471207548
N           12.65990998214333        2.43694246349235       26.41254300806807
C           13.75289373028294        3.13708452042259       25.99283769243078
H           13.67899442508638        3.85400976307038       25.20133523134999
