78
 energy: -115.963283047777 gnorm: 0.232874527046 xtb: 6.7.1 (edcfbbe)
Fe          11.01400000000000        2.48900000000000       25.80900000000000
N           10.15600000000000        2.67800000000000       27.60800000000000
N           11.01600000000000        4.58600000000000       25.72100000000000
N           11.62600000000000        2.50700000000000       23.79400000000000
N           10.73400000000000        0.63100000000000       25.73900000000000
C            9.68300000000000        1.61500000000000       28.31500000000000
C            9.12500000000000        2.04300000000000       29.52600000000000
C            9.25900000000000        3.37900000000000       29.57900000000000
C            9.88300000000000        3.77000000000000       28.37100000000000
C           10.61900000000000        5.40400000000000       26.72000000000000
C           10.74100000000000        6.75500000000000       26.30700000000000
C           11.23500000000000        6.74200000000000       25.01899999999999
C           11.39900000000000        5.31400000000000       24.66400000000000
C           12.00400000000000        3.55700000000000       23.03000000000000
C           12.53800000000000        3.05700000000000       21.81800000000000
C           12.44100000000000        1.67500000000000       21.83300000000000
C           11.87700000000000        1.35700000000000       23.07800000000000
C           11.02200000000000       -0.20600000000000       24.73500000000000
C           10.58600000000000       -1.57000000000000       25.05700000000000
C           10.05800000000000       -1.51200000000000       26.27600000000000
C           10.16400000000000       -0.10300000000000       26.68200000000000
C            9.69200000000000        0.31700000000000       27.91600000000000
H            9.30700000000000       -0.43600000000000       28.60400000000000
C           10.14400000000000        5.06000000000000       27.99800000000000
H            9.97600000000000        5.85600000000000       28.72300000000000
C           11.88600000000000        4.88000000000000       23.43000000000000
H           12.20000000000000        5.64600000000000       22.72100000000000
C           11.61800000000000        0.08100000000000       23.48800000000000
H           11.88100000000000       -0.74600000000000       22.82900000000000
C            8.82300000000000        4.25100000000000       30.73300000000000
H            9.65900000000000        4.35300000000000       31.45700000000000
H            7.95500000000000        3.78600000000000       31.24800000000000
H            8.54600000000000        5.25900000000000       30.35800000000000
C            8.54500000000000        1.15300000000000       30.60800000000000
H            9.06800000000000        0.17300000000000       30.60200000000000
H            7.46400000000000        0.98600000000000       30.41700000000000
H            8.68500000000000        1.63000000000000       31.60200000000000
C           10.36900000000000        7.93000000000000       27.18700000000000
H           11.19200000000000        8.13000000000000       27.90600000000000
H            9.44300000000000        7.69600000000000       27.75500000000000
H           10.21100000000000        8.83300000000000       26.56000000000000
C           11.59600000000000        7.85100000000000       24.11100000000000
H           11.88800000000000        7.61400000000000       23.07800000000000
C           11.59500000000000        9.13600000000000       24.45100000000000
H           11.47400000000000        9.43500000000000       25.50300000000000
H           11.71500000000000        9.91600000000000       23.68500000000000
C           13.10900000000000        3.87500000000000       20.68300000000000
H           14.20900000000000        3.72600000000000       20.63500000000000
H           12.89900000000000        4.95200000000000       20.85400000000000
H           12.65900000000000        3.54800000000000       19.72100000000000
C           12.90200000000000        0.67200000000000       20.83800000000000
H           12.58800000000000       -0.37400000000000       20.96400000000000
C           13.67900000000000        0.93800000000000       19.78400000000000
H           14.03100000000000        1.96300000000000       19.59400000000000
H           13.97600000000000        0.13600000000000       19.09300000000000
C           10.74500000000000       -2.82500000000000       24.21200000000000
H           11.77800000000000       -3.21900000000000       24.32400000000000
H           10.56600000000000       -2.58300000000000       23.14300000000000
H           10.02500000000000       -3.60000000000000       24.55200000000000
C            9.45500000000000       -2.67700000000000       27.03800000000000
H           10.07300000000000       -3.58600000000000       26.87600000000000
H            8.42400000000000       -2.87200000000000       26.67200000000000
H            9.43500000000000       -2.44500000000000       28.12400000000000
O            7.98900000000000        2.21100000000000       25.69600000000000
H            7.66800000000000        2.47200000000000       26.55900000000000
H            7.49200000000000        1.94400000000000       25.00900000000000
C           16.66300000000000        3.45100000000000       26.42400000000000
H           17.44600000000000        2.67500000000000       26.28500000000000
H           16.92900000000000        4.07900000000000       27.30100000000000
H           16.61200000000000        4.07900000000000       25.50900000000000
N           15.13500000000000        1.94800000000000       27.72000000000000
H           15.81400000000000        1.71700000000000       28.41600000000000
C           15.35200000000000        2.79500000000000       26.65600000000000
C           13.89700000000000        1.50600000000000       27.65700000000000
H           13.45600000000000        0.80100000000000       28.36100000000000
N           13.29400000000000        2.07500000000000       26.58500000000000
C           14.19800000000000        2.86600000000000       25.95200000000000
H           13.93900000000000        3.41200000000000       25.05300000000000
78
 energy: -116.006592023763 gnorm: 0.089412597843 xtb: 6.7.1 (edcfbbe)
Fe          10.96166038071022        2.50193240505494       25.78617588764207
N           10.15914054513118        2.66432364193064       27.61068589338447
N           11.02235951388476        4.56870556681878       25.72445767113826
N           11.62350489886685        2.48548634825236       23.81095843660520
N           10.72223236615947        0.61390591297970       25.72897272846834
C            9.68892950436757        1.60502828265740       28.32438933187599
C            9.12935645831882        2.03658676875182       29.55795012327177
C            9.26107459867576        3.38577777480825       29.59922690773741
C            9.89837013340246        3.76620348591428       28.37222194259891
C           10.63232608125929        5.40826516594560       26.71676769113638
C           10.75768176662921        6.77023276570099       26.29664040840605
C           11.25855050004544        6.74841418081817       25.01433194861010
C           11.40565526403942        5.32171394345283       24.66938195616233
C           12.00914054410534        3.54177411838009       23.04303670703769
C           12.54492130822003        3.06042797560532       21.80263547394087
C           12.46083295451175        1.68190323934835       21.82176013829991
C           11.88203810133572        1.35537840979671       23.08608145247727
C           11.02307577469700       -0.23347040374142       24.71932220974115
C           10.59923220190668       -1.58788839364456       25.04832044907448
C           10.05919450099486       -1.52937406457099       26.28222589803966
C           10.15756856680569       -0.13516961152401       26.69313657206810
C            9.69661347784761        0.29496734202520       27.91859935699593
H            9.29867631304142       -0.44427334941684       28.59770302665304
C           10.16003996878008        5.06005605249237       27.98273052474516
H            9.97310930877605        5.85231132631460       28.69703864689285
C           11.88622191319212        4.87261997181032       23.44321673684275
H           12.19345022363415        5.63173972626823       22.73257992022137
C           11.61452450472621        0.07204919323307       23.50141263795729
H           11.86709241073040       -0.74513653338710       22.84174348252882
C            8.82611449403699        4.26243532895386       30.73034473759928
H            9.64495941315771        4.36461292762734       31.45221475878124
H            7.97033592216236        3.80938560967333       31.24046209258758
H            8.54595392796837        5.25547015417585       30.37152075496717
C            8.54606024353167        1.15004754323135       30.61441415601811
H            9.05536271793400        0.18237249818819       30.61591294615347
H            7.47871354151694        0.98359120268986       30.43036621500321
H            8.67512602103063        1.61432383733805       31.59509999144751
C           10.37142812009644        7.92386875805186       27.17732304383663
H           11.17609639506168        8.13363740073828       27.89372871288314
H            9.46069635660996        7.69814461758519       27.74173261702238
H           10.18738905964414        8.81939681799249       26.58330196422290
C           11.58942932759242        7.84808076402489       24.11811993858383
H           11.84813139324736        7.59741951909813       23.09047315723445
C           11.60142021230645        9.13895941642999       24.44659168781422
H           11.47753793087014        9.45984342443400       25.46988371086269
H           11.74346122724193        9.90843541966735       23.69735051722193
C           13.10302652220359        3.88788412551964       20.68781459770360
H           14.19023147011110        3.74861520256843       20.63429705266130
H           12.89867423187715        4.94901276507877       20.84435074296491
H           12.66306221058979        3.57166195295121       19.73530747619576
C           12.89930463291776        0.69454737187428       20.83438395974976
H           12.58126762751737       -0.33794487119956       20.98146552085681
C           13.67450325521935        0.94012786607525       19.78034401481920
H           14.04645296284121        1.93142845946817       19.57628633419489
H           13.97019013268101        0.14721811031687       19.10357270410207
C           10.75070942934991       -2.81779885100756       24.20479138509411
H           11.76602768648087       -3.21667295395365       24.31201915474897
H           10.56806213375019       -2.59384617233658       23.15091067554222
H           10.04103198365685       -3.58206597453015       24.53542540787684
C            9.45887989019008       -2.67163571385355       27.04406164237068
H           10.06029014421164       -3.57261003477349       26.88653292504705
H            8.44069249667589       -2.86929966218067       26.68884023090936
H            9.42783764824028       -2.45772966016870       28.11479323362691
O            8.04355919392210        2.22900556396698       25.70223961676974
H            7.68250742497267        2.46813264336639       26.55310364467173
H            7.49019975451006        1.93861048381191       24.99832682601388
C           16.67079980974797        3.45015805572645       26.42445196847709
H           17.45097850068900        2.69318647377540       26.28422361672929
H           16.94043147596463        4.07680200341837       27.28192576926060
H           16.61859786249013        4.07190162833713       25.52782735477232
N           15.13307104088682        1.95290869263091       27.70528893538989
H           15.81456720473321        1.71256519376963       28.40659467961822
C           15.35733475021060        2.79969702304005       26.65304059479792
C           13.86564356160557        1.52812003112970       27.63550967942858
H           13.43360926370050        0.82745685441746       28.33053095041856
N           13.25060569609608        2.08210803168909       26.59155387179235
C           14.18073541727198        2.86031755577758       25.96647105638314
H           13.93132419587950        3.40162132332031       25.07216921421871
78
 energy: -116.021595336728 gnorm: 0.028616977962 xtb: 6.7.1 (edcfbbe)
Fe          10.91765501209958        2.51476397303284       25.76846441163602
N           10.16460895391696        2.64638969743956       27.61598436766174
N           11.01797832365369        4.55027375256657       25.72352200635360
N           11.61668686042256        2.46734078304021       23.82829928297418
N           10.70317660676686        0.59676340375084       25.72205489532974
C            9.69879538987546        1.59280139211418       28.33563588970778
C            9.14401264352604        2.02987675203105       29.58635989878654
C            9.27362585949494        3.38591309914625       29.61474373123601
C            9.91446006685822        3.75528698298025       28.37290111958416
C           10.64220098686576        5.40574168384929       26.71475278181180
C           10.77357865464315        6.77583909920726       26.29325441849306
C           11.27476527618761        6.74685806204824       25.01367250006011
C           11.41195564749440        5.32500493100683       24.67550915553747
C           12.00730864996063        3.52992393229421       23.06222675403237
C           12.54804282602308        3.06808329825549       21.80429970854199
C           12.47709202721338        1.69240598486634       21.82369070724065
C           11.88383885082137        1.35475146186354       23.09801110101006
C           11.01524586729177       -0.25993847268098       24.71065786497635
C           10.60915869484954       -1.60711840811232       25.04588431267294
C           10.06448519873245       -1.54872308709518       26.28831496452164
C           10.14737372868882       -0.16622384372511       26.70083637482091
C            9.69883232842495        0.27571092899887       27.92309405993613
H            9.28822184841167       -0.45413804742016       28.59870177897199
C           10.17251369160729        5.05041727504893       27.96980427886688
H            9.96592268076366        5.84093226845492       28.67518757809923
C           11.88655966761212        4.86220315712556       23.45791145135892
H           12.19211486377046        5.61216906567631       22.74235734727649
C           11.60750758437704        0.06538326919692       23.51251284688131
H           11.85231070188993       -0.74518245852133       22.84710844192872
C            8.83664435220410        4.27574131655227       30.72655261395273
H            9.64221158411977        4.38792428264610       31.45223795722069
H            7.98407290580647        3.83425931257870       31.23631503648742
H            8.55392671896402        5.26005107584518       30.37106310324427
C            8.55165904913135        1.14721354420551       30.62760053184346
H            9.04919922492682        0.18270607701076       30.63559706924313
H            7.49081929338564        0.98166736658611       30.44213622043095
H            8.66493710595972        1.60112820232489       31.60634616941634
C           10.37397752678857        7.91817733363917       27.16782967155920
H           11.16905618075029        8.14160806825544       27.88072104515983
H            9.47449925703188        7.67991877456994       27.73091410184636
H           10.16461000879909        8.80869760000613       26.58905921390221
C           11.57972752542729        7.84032438022089       24.12384376752808
H           11.79487422870685        7.57465158019927       23.09492190625126
C           11.61598516267820        9.13654529352395       24.43856815684606
H           11.48627442474370        9.48689137288706       25.44194100136004
H           11.78399142980346        9.89409859428885       23.69390691009347
C           13.09168522476367        3.90808353389500       20.70150373942227
H           14.17336784325426        3.78143709538033       20.63852552458093
H           12.88333871314662        4.96064376098532       20.85034589057500
H           12.65944075333013        3.59734832768373       19.75156731977565
C           12.90080323657033        0.71924342333666       20.84232478716501
H           12.56374292821634       -0.29867208937027       21.00382022661123
C           13.67501348134117        0.94203360851505       19.78159843185459
H           14.06630548542213        1.91063281544234       19.55152557058480
H           13.95117203907159        0.14889514460620       19.10938442807009
C           10.75751067059626       -2.81874775163577       24.19691246950020
H           11.76556511752415       -3.22090095506247       24.29134042810399
H           10.57075133531809       -2.59735659176435       23.15142909459809
H           10.05363281133885       -3.58065842158089       24.51869135787396
C            9.46541747966789       -2.67675056551873       27.05177967509223
H           10.05341709426069       -3.57813369947138       26.90018951679203
H            8.45049661388883       -2.87067017806771       26.70515486827124
H            9.42778951385256       -2.46629753181501       28.11417196577476
O            8.13307539469618        2.29630907077209       25.67126335707349
H            7.73038867439311        2.44472144714191       26.53327288273899
H            7.53226468035404        1.92484722626199       25.01253983181599
C           16.67061965647978        3.44793349312965       26.41839879350507
H           17.44923167611804        2.70014061485657       26.27963928213450
H           16.94346337201990        4.07147579094246       27.26796100906797
H           16.62252325160127        4.07031497425934       25.53288965143231
N           15.11493019802716        1.95374094022935       27.68748395608124
H           15.79332077007959        1.69716140108034       28.39033334830199
C           15.35160836919298        2.80448660774211       26.64261363374190
C           13.82211281240007        1.56050977010617       27.61347599078010
H           13.38961163778275        0.86462865136325       28.30305252161519
N           13.21342028358937        2.11199822409551       26.59097673060548
C           14.16201925237568        2.87614859951902       25.97131543191513
H           13.92446415785447        3.41833915116657       25.08020977784955
78
 energy: -116.027235257598 gnorm: 0.061741928368 xtb: 6.7.1 (edcfbbe)
Fe          10.88742229270381        2.51868252915897       25.76100059569510
N           10.17200177732900        2.62898466405364       27.62600793604170
N           11.01449255455963        4.53820429333472       25.72454005751544
N           11.60691511453360        2.45975120680681       23.84133091418359
N           10.68633299847575        0.58071032857607       25.72286417873801
C            9.70980196232201        1.57839210561814       28.34990774420910
C            9.16352314722489        2.02183418427105       29.60927914249107
C            9.29329207786294        3.37939770253109       29.62818842873475
C            9.92896503414365        3.74125162562566       28.37840784856357
C           10.64747084934186        5.39789292402941       26.71735647840959
C           10.78211076962237        6.77107614907205       26.29806255121699
C           11.27816284616864        6.74086044674572       25.01791005889987
C           11.41106823884342        5.32378193089433       24.68101821509678
C           12.00058484590290        3.52574042510925       23.07988650213287
C           12.54846629207404        3.07718959980010       21.81871517679535
C           12.48540936853924        1.70286780478287       21.83419976770644
C           11.88216349441903        1.35463727093538       23.10941298584938
C           11.00411425207674       -0.27787260708348       24.71030968572261
C           10.61298590090378       -1.62462443423423       25.04788581287274
C           10.06915773141282       -1.56885066002248       26.29418260442878
C           10.13777541582049       -0.18979430287796       26.70722757520233
C            9.69818591764958        0.25970295859372       27.93164375197760
H            9.28007363542203       -0.46660086529833       28.60771333801492
C           10.17953923070122        5.03622398817828       27.96773950425704
H            9.95911613057266        5.82687893871440       28.66769176234785
C           11.88337044670071        4.85606139401346       23.46853617480248
H           12.19455115347462        5.59897430303968       22.74956147822853
C           11.59964857431057        0.06206013478002       23.51760247750187
H           11.84171193894120       -0.74519901160122       22.84614446424899
C            8.85283470787445        4.28749830722803       30.72459085044152
H            9.65205389403167        4.41545562327687       31.45478842756742
H            7.99688402604281        3.85657035341664       31.23779779885745
H            8.56947246032795        5.26706503720329       30.35559869559672
C            8.56019277009626        1.14263182887113       30.64662911810464
H            9.05149463079785        0.17500498108084       30.66266330635008
H            7.50009701463331        0.97960923029779       30.45233359453030
H            8.65990933189776        1.59374810953323       31.62865720093477
C           10.37127169781960        7.91150777985355       27.16455302980901
H           11.16579396004552        8.15741345195213       27.87014735165245
H            9.48121512508673        7.65501901368959       27.73404019067403
H           10.13518625722401        8.79535022707290       26.58405989438203
C           11.56731532294691        7.83119900828618       24.12276826879777
H           11.74420632791075        7.55164466763267       23.08961058117204
C           11.63267604192179        9.13038097547897       24.42292795043179
H           11.51991026023713        9.50878042188520       25.41924022774598
H           11.82559810943042        9.87428372539503       23.66996947676459
C           13.07703867622654        3.93114572673209       20.71998418980299
H           14.15994364236129        3.82204520129703       20.64901650377973
H           12.85454061362447        4.98089086715816       20.87008559308560
H           12.64707450653886        3.62090322599963       19.76888805396562
C           12.89668222139721        0.73764499518740       20.84790483532606
H           12.54668683122774       -0.27240485483322       21.02001273536459
C           13.66608259889009        0.94260792797845       19.77897223685707
H           14.09038396319275        1.89661200521727       19.53591731111988
H           13.92598862182921        0.13822513255335       19.11366223753817
C           10.76384969276045       -2.82737821526488       24.18786522833182
H           11.77337718446730       -3.22931068206551       24.26795357923413
H           10.57089503087703       -2.59692659048988       23.14503316012412
H           10.06438888199953       -3.59560287724617       24.50285915518934
C            9.47156175358354       -2.69308301104660       27.06264456036838
H           10.05197658045831       -3.59917774611604       26.91459444606024
H            8.45363245584874       -2.88251082462873       26.72205887105990
H            9.43507474206248       -2.47897653550062       28.12436511814184
O            8.24149893997853        2.43496833304134       25.60448616590948
H            7.82611076359684        2.39289075183043       26.51286802448038
H            7.62521151678345        1.89427320174744       25.02436377197655
C           16.66091457601560        3.44340348759939       26.40914345994145
H           17.43736724614051        2.69398407736126       26.27064115274769
H           16.93843939331592        4.06377093532283       27.25950998138145
H           16.62133989971454        4.07061540828893       25.52686007477108
N           15.08144457557536        1.95669119415934       27.66748793136756
H           15.75470913620501        1.68016872853715       28.36804581338675
C           15.33288838429817        2.81257960237048       26.62713681117062
C           13.77333817483039        1.59460675920130       27.59041024788496
H           13.32956027700862        0.90559293181529       28.27897831063375
N           13.17683147710890        2.16244424619877       26.57749511304198
C           14.14066926268955        2.91226049888815       25.96227090506213
H           13.91497244901164        3.46366832901364       25.07478124519510
78
 energy: -116.032648174413 gnorm: 0.034908855160 xtb: 6.7.1 (edcfbbe)
Fe          10.86468729717557        2.52268874994229       25.75726567164707
N           10.18067808209350        2.61047339675232       27.63772453199379
N           11.01065159384832        4.52768224950300       25.72497417034178
N           11.59493497429682        2.45458534211359       23.85396550017976
N           10.67061810637735        0.56345994785082       25.72673297136707
C            9.72226291797501        1.56225733741914       28.36609458590306
C            9.18598079567209        2.01333913568613       29.63192257153832
C            9.31631607410114        3.37069604054332       29.64118153912434
C            9.94376932400530        3.72536051952665       28.38469445922191
C           10.65100262036565        5.38819411823349       26.72010546990345
C           10.78857080042626        6.76317959467454       26.30458279052436
C           11.27810082976619        6.73325114160427       25.02333598648882
C           11.40805218203590        5.32165271656684       24.68584190614321
C           11.99148758093193        3.52303664115023       23.09844764475249
C           12.54794752397271        3.08706096056669       21.83803220714724
C           12.49250398788122        1.71400928073944       21.84851552836666
C           11.87902877617646        1.35436160581853       23.12174865790475
C           10.99260706332081       -0.29496265992758       24.71310634594862
C           10.61691970806531       -1.64291067607729       25.05192721506322
C           10.07549218241107       -1.59078803849781       26.30063355547965
C           10.12932528773207       -0.21358546213069       26.71423021016755
C            9.69749275193696        0.24347967432345       27.94223175599819
H            9.27274118289201       -0.48073909769216       28.62002738660019
C           10.18484878537643        5.01952234048132       27.96721748471465
H            9.95100443693733        5.81107968538644       28.66188062650731
C           11.87952296679012        4.85031059298870       23.47827461559057
H           12.19828355787743        5.58556330102871       22.75530995921786
C           11.59164791606005        0.05945234831364       23.52191628461850
H           11.83220015188820       -0.74569203496784       22.84444113209848
C            8.87124957503760        4.29957090394519       30.72213030216901
H            9.66509899625271        4.44641712540849       31.45759534077504
H            8.00989685728937        3.87967150132986       31.24009578740410
H            8.58718244143698        5.27516083252589       30.33433536908405
C            8.57026973910799        1.13751688948072       30.66813369382010
H            9.05672179776171        0.16502130860469       30.69344129146043
H            7.50943012015457        0.97696191258527       30.46221658398011
H            8.65554869338661        1.58782746107187       31.65499939146480
C           10.36738513867980        7.90544172082425       27.16049057719527
H           11.16310883889216        8.17757678732632       27.85763063570396
H            9.48669009598305        7.62945622045910       27.73899391907568
H           10.10478546266363        8.78100875342258       26.57205594106678
C           11.55354250119551        7.82217431677238       24.12088416697277
H           11.68947315279424        7.52929204924277       23.08279689862281
C           11.65177028631604        9.12260183450784       24.40688364271895
H           11.55542848019392        9.52991440047764       25.39828349550788
H           11.86473571893502        9.85196882467544       23.64142485693679
C           13.06085344793186        3.95462146112900       20.74037718388672
H           14.14665308181374        3.86555350899929       20.66097892117746
H           12.82083140608494        5.00328193218242       20.89277626612644
H           12.63223280645168        3.64304930046042       19.78695728637798
C           12.89412195432753        0.75606931108654       20.85493879349406
H           12.52839689871066       -0.24654752442261       21.03434267101886
C           13.65888896254545        0.94398108086525       19.77844624518061
H           14.11366121187164        1.88583185240736       19.51981249967206
H           13.89691305094602        0.12604697876984       19.11718990160256
C           10.77182670604981       -2.83843612711681       24.17836019631070
H           11.78533699326913       -3.23882037677960       24.24276001385056
H           10.57151904648959       -2.59482141517538       23.13679981653069
H           10.07650832735902       -3.61544981001347       24.48678606519756
C            9.47876156893271       -2.71325293111281       27.07551643169835
H           10.05250450113620       -3.62551509607408       26.93062413635759
H            8.45570173920166       -2.89708287802573       26.74086115132497
H            9.44595320672092       -2.49279877483147       28.13862354849026
O            8.36750056605745        2.34048771519395       25.60824899626015
H            7.93431252026458        2.45620269211346       26.44162213595916
H            7.71766598105003        1.98199590863534       25.00298256350781
C           16.64757509353862        3.43900175224840       26.39868142486412