77
 energy: -118.772667211209 gnorm: 0.954724842649 xtb: 6.7.1 (edcfbbe)
Fe          14.44200000000000       54.59599999999999       19.08900000000000
N           13.02900000000000       55.97900000000000       18.45300000000000
N           13.99500000000000       53.49000000000000       17.39100000000000
N           15.88500000000000       53.22000000000000       19.71200000000000
N           14.90900000000000       55.75000000000000       20.71700000000000
C           12.72400000000000       57.08000000000000       19.22200000000000
C           11.75900000000000       57.77499999999999       18.43900000000000
C           11.52100000000000       57.09900000000000       17.31000000000000
C           12.29400000000000       55.91800000000000       17.31600000000000
C           13.08300000000000       53.79900000000000       16.43300000000000
C           13.01700000000000       52.67100000000000       15.54000000000000
C           13.83500000000000       51.72200000000000       15.98800000000000
C           14.52800000000000       52.26400000000000       17.12600000000000
C           16.21300000000000       52.18800000000000       18.89800000000000
C           17.42800000000000       51.62400000000000       19.47700000000000
C           17.75300000000000       52.33000000000000       20.55100000000000
C           16.79300000000000       53.38900000000000       20.70400000000000
C           15.78100000000000       55.32000000000000       21.69800000000000
C           15.61200000000000       56.15300000000000       22.83400000000000
C           14.57500000000000       57.15100000000000       22.48200000000000
C           14.14300000000000       56.83100000000000       21.16000000000000
C           13.19700000000000       57.50999999999999       20.42000000000000
H           12.80700000000000       58.44600000000000       20.82000000000000
C           12.34100000000000       54.95800000000000       16.33500000000000
H           11.75900000000000       55.12100000000000       15.42800000000000
C           15.52500000000000       51.67300000000000       17.85300000000000
H           15.79900000000000       50.66199999999999       17.55300000000000
C           16.70000000000000       54.31099999999999       21.65600000000000
H           17.41900000000000       54.25700000000000       22.47400000000000
C           10.56400000000000       57.43500000000000       16.12100000000000
H           10.04200000000000       58.39500000000000       16.32500000000000
H            9.80700000000000       56.63000000000000       16.01000000000000
H           11.15100000000000       57.53600000000000       15.18300000000000
C           11.18300000000000       59.11200000000000       18.94600000000000
H           12.00700000000000       59.84599999999999       19.07400000000000
H           10.68200000000000       58.95800000000000       19.92599999999999
H           10.45600000000000       59.51199999999999       18.20700000000000
C           12.04500000000000       52.53400000000000       14.35800000000000
H           12.51100000000000       52.95800000000000       13.44300000000000
H           11.10800000000000       53.09000000000000       14.57600000000000
H           11.81700000000000       51.46099999999999       14.18200000000000
C           14.07400000000000       50.34000000000000       15.35500000000000
H           14.22800000000000       50.21300000000000       14.27400000000000
C           14.09100000000000       49.30600000000000       16.13800000000000
H           13.93800000000000       49.42299999999999       17.22100000000000
H           14.25800000000000       48.29900000000000       15.72900000000000
C           18.08300000000000       50.41299999999999       18.78600000000000
H           18.20200000000000       50.62400000000000       17.70200000000000
H           17.43900000000000       49.51700000000000       18.91000000000000
H           19.08400000000000       50.22499999999999       19.22900000000000
C           18.95300000000000       52.23300000000000       21.51200000000000
H           19.57400000000000       53.11500000000000       21.72600000000000
C           19.25000000000000       51.11000000000000       22.08400000000000
H           18.64900000000000       50.20900000000000       21.89100000000000
H           20.10700000000000       51.04200000000000       22.77000000000000
C           16.33100000000000       56.10500000000000       24.16800000000000
H           17.32400000000000       56.59400000000000       24.07200000000000
H           16.47900000000000       55.04799999999999       24.47700000000000
H           15.73600000000000       56.64500000000000       24.93500000000000
C           14.04400000000000       58.23400000000000       23.46300000000000
H           14.90200000000000       58.76700000000000       23.92700000000000
H           13.44300000000000       57.75300000000000       24.26400000000000
H           13.42000000000000       58.96800000000000       22.91000000000000
O           15.58600000000000       55.86399999999999       17.22000000000000
O           15.85000000000000       55.56900000000000       18.14800000000000
C           11.79400000000000       51.93099999999999       23.31200000000000
H           11.97500000000000       50.83599999999999       23.36800000000000
H           10.72000000000000       52.13000000000000       23.51800000000000
H           12.42600000000000       52.44000000000000       24.07000000000000
N           11.54300000000000       51.97699999999999       20.78700000000000
H           10.81500000000000       51.29300000000000       20.74900000000000
C           12.14700000000000       52.42600000000000       21.94400000000000
C           12.08900000000000       52.60100000000000       19.75800000000000
H           11.78900000000000       52.44000000000000       18.72300000000000
N           13.03600000000000       53.43299999999999       20.18300000000000
C           13.08800000000000       53.32699999999999       21.54500000000000
H           13.79800000000000       53.90900000000000       22.11900000000000
77
 energy: -118.944446560159 gnorm: 0.193913140366 xtb: 6.7.1 (edcfbbe)
Fe          14.46340243476005       54.60734594323057       19.08213450165316
N           13.04034717439485       55.96038865654010       18.46954350195034
N           13.99943547203305       53.49264200273355       17.39505790497071
N           15.87608241045285       53.23570018209043       19.69560296312896
N           14.89583008666934       55.74022350868829       20.71980600298177
C           12.72199683026139       57.07464069406921       19.20436269182739
C           11.74387818241250       57.79766235431718       18.43790084077602
C           11.50166312368228       57.11291742762070       17.29579972092554
C           12.30620518274440       55.92874971030155       17.32535625794612
C           13.08742119275246       53.79186171739434       16.43204500478065
C           13.00232574473013       52.66898073353520       15.52469334449299
C           13.84510831517957       51.71100164242686       15.96975242622123
C           14.51525382459008       52.26174522922225       17.12873360496799
C           16.21821261918624       52.18629538110329       18.91614970945371
C           17.43610696912012       51.60558131268884       19.47097683106469
C           17.77587453048620       52.33262001448661       20.55661899222464
C           16.78776864050968       53.37950315333409       20.68938338644087
C           15.76492586286022       55.34425298680762       21.70458240550357
C           15.59270170579048       56.18538346459124       22.84277277726242
C           14.58944810783247       57.14187616420968       22.50348217563185
C           14.16326875676247       56.82253827933456       21.17191843636767
C           13.20544615649981       57.50044591768902       20.42085430019908
H           12.81023628092412       58.43404975340595       20.81920886255252
C           12.34555289962207       54.95693770936246       16.33998997666213
H           11.75983779272584       55.11826839115277       15.43780992506086
C           15.52441739380212       51.66527769646905       17.85225162606839
H           15.80509734653849       50.66470140094277       17.54535330946694
C           16.69857135689467       54.32022669542595       21.66269969481629
H           17.41616340030598       54.26034042226693       22.47501896075136
C           10.56665657076587       57.43792527591834       16.12959232815756
H           10.04595593441675       58.38621998743385       16.32193686265236
H            9.81671603676474       56.63931277619007       16.01151761774757
H           11.14430913004224       57.53415839852468       15.19576352237344
C           11.18073721417587       59.11138280372643       18.94018488728488
H           11.99738150941124       59.83904369985773       19.07133478594475
H           10.68546804670977       58.96033808025096       19.91320536654776
H           10.46013348702835       59.51119431190750       18.21534209997612
C           12.04642445030958       52.53653848072761       14.35944922574861
H           12.50544175825440       52.95492931592668       13.45038794828248
H           11.11603409507504       53.08310173658264       14.57188340554621
H           11.81892971725755       51.47383791828351       14.18354302156403
C           14.07509103861758       50.35530576107950       15.36049170234739
H           14.22337818039698       50.22913176816943       14.28457194965590
C           14.09178208465656       49.29823374698115       16.14437296097446
H           13.93791491966138       49.41205881144174       17.21499151557214
H           14.25653435472550       48.30203271176003       15.73770431655215
C           18.08628865230641       50.41677318732064       18.79136332976306
H           18.20107004752531       50.62190024485216       17.71493674954706
H           17.44824615911069       49.52603892779692       18.90996725586153
H           19.07614372945889       50.22449490217691       19.22603066685300
C           18.94612410212917       52.23473790070159       21.49815443144458
H           19.55781001687080       53.11481563041641       21.71496830189793
C           19.25175588325679       51.09969464307597       22.08642442444377
H           18.65751145276196       50.20915794772352       21.89772592960315
H           20.09952680461818       51.03511762298477       22.76690232906159
C           16.32521638421433       56.10802381346686       24.16029762392323
H           17.31437976070204       56.58904992468447       24.07409455205291
H           16.47635926345409       55.06098170109824       24.47365614851968
H           15.74406555041170       56.63787284811857       24.92887419229619
C           14.05205316031072       58.22222040506398       23.45145551775179
H           14.89224562082680       58.76011730354911       23.92069736436115
H           13.45003241753110       57.75867463205446       24.25245220612139
H           13.42804131845540       58.95601155140916       22.91581140240601
O           15.57210764264622       55.90304815811532       17.11716788730715
O           15.85172184199018       55.52720389659321       18.23985327314110
C           11.79300907369779       51.92899490450691       23.31036049635803
H           11.97189052126489       50.84425420375712       23.37089029550820
H           10.72991471690114       52.12700345718606       23.51971557606613
H           12.41739849815663       52.43438069096990       24.06110362943863
N           11.54124088857685       51.97566713569759       20.79633753505631
H           10.81076443428762       51.28926783078548       20.75298980985123
C           12.14756389329120       52.42270518029969       21.94863242642790
C           12.09541623895460       52.60749938014808       19.75846927795796
H           11.79577239107128       52.44532650645898       18.73125800819268
N           13.03392128156296       53.43512168630717       20.17789273748583
C           13.08423493978913       53.32585525174555       21.53901924806528
H           13.79070499107174       53.90408440073208       22.11336372015783
77
 energy: -118.978466574927 gnorm: 0.071742648553 xtb: 6.7.1 (edcfbbe)
Fe          14.50720279841308       54.63782493708585       19.05120520046481
N           13.04396599552767       55.93932317059349       18.49711739026169
N           13.99895771986925       53.48386633346911       17.40894019901579
N           15.86989842511415       53.25431660319428       19.67137640290605
N           14.86421637027581       55.71085927866616       20.73766000588988
C           12.72468935227037       57.06804980931469       19.19231996742773
C           11.73871197464143       57.81490682100589       18.43689916132647
C           11.49701401825615       57.12401228497819       17.29016457574263
C           12.32724819866452       55.93995806388800       17.34055485614658
C           13.09462183545718       53.78293390179614       16.43978107336654
C           12.99598560193964       52.66878211693719       15.51702218093925
C           13.85717523079366       51.70748225007951       15.95709558880333
C           14.50220465148150       52.25276251299450       17.13996639117489
C           16.21811639139474       52.17797726195116       18.93156924296706
C           17.43605864231772       51.59232309812067       19.47204445329485
C           17.78714758086833       52.34202873734405       20.55516015221942
C           16.77999409894586       53.38478417019518       20.67016880996930
C           15.74616762509283       55.35984760321637       21.71571475179437
C           15.57601759645817       56.21937553038583       22.85118593080934
C           14.60098080971284       57.13213742192575       22.52036025514164
C           14.17469931576773       56.80563520284798       21.18302181644887
C           13.21710229417710       57.47914362334842       20.42162888142843
H           12.81953139325407       58.40507844930166       20.82147932471576
C           12.35749901405443       54.95596316957810       16.35957426535557
H           11.76108859310177       55.11252144483500       15.46812821644988
C           15.52342056646761       51.65184010337324       17.85442727526849
H           15.83100352442233       50.67098771473177       17.51807408776384
C           16.69016557598498       54.33366145901716       21.66275582053634
H           17.40649302527073       54.27072954923206       22.47179309679673
C           10.57499519585542       57.44194205869642       16.14858455714622
H           10.05063877181538       58.37957138750314       16.32288072952113
H            9.83257867695983       56.65082898008167       16.01970529010586
H           11.14059609534235       57.53227466512946       15.21891953460388
C           11.17604156814850       59.10986458784488       18.92747882800311
H           11.98180619741968       59.83408533187828       19.06280741821740
H           10.68415126096074       58.96525489168555       19.89212247100834
H           10.45751366510332       59.51534229858027       18.22045552109506
C           12.05165892176914       52.54456723875639       14.36371048522600
H           12.49891228583092       52.95748944545064       13.45762088381123
H           11.12306314685172       53.07737677377118       14.56450770415391
H           11.82314998502025       51.49330036048337       14.18392799487144
C           14.07924564931470       50.37420266841999       15.38271388759645
H           14.21066094299548       50.27139277957987       14.30944661986151
C           14.09562398882397       49.29407840622792       16.15229517540227
H           13.93466962962828       49.38405010570673       17.21437399943926
H           14.25388946503147       48.30701246879912       15.74594623560498
C           18.09249433911602       50.42361644573117       18.80780997871480
H           18.20456381549764       50.62124308474331       17.73929463890293
H           17.46717701595707       49.53385141390302       18.91728456266295
H           19.07316614534788       50.22548909287700       19.23341706248692
C           18.93002460252954       52.22545312307978       21.47491470553887
H           19.51613834853304       53.11572097259207       21.68605734836440
C           19.25024214749451       51.08964705222093       22.07783956264331
H           18.66947783957325       50.19832980682314       21.90812454814655
H           20.08567860653069       51.02738034388803       22.75926353969164
C           16.31524611463134       56.11985096902499       24.15098120141830
H           17.30114665552184       56.58656541149979       24.07167072655684
H           16.46388392479862       55.08140163270101       24.45789926115516
H           15.75380320278774       56.63419061533745       24.92912750961141
C           14.06497046229003       58.20454392485026       23.43406093870018
H           14.88676475021829       58.74739096006496       23.90586058179251
H           13.46123802909158       57.75847531321651       24.23089421874386
H           13.44269597524382       58.92810681281500       22.90695824439300
O           15.57088464854741       55.91555174908536       17.07866719791537
O           15.81828814177408       55.50588722830588       18.23782987293298
C           11.79258355043026       51.92614462188452       23.30379365349824
H           11.96613183434551       50.85090694792204       23.37626596228693
H           10.74107671969315       52.12199201927859       23.52205366526395
H           12.40637342368077       52.42812978298097       24.04869564909022
N           11.54138042975928       51.97759248030463       20.80207331975157
H           10.80784156807240       51.28911823021783       20.75641894835086
C           12.15115323979569       52.42030907737339       21.94866917246396
C           12.10380137104017       52.61767504093947       19.75985963620813
H           11.80807969849400       52.45719107375031       18.74020895134093
N           13.03906520657660       53.44288430284946       20.16953466696331
C           13.08139783598414       53.32732489028074       21.53018833203493
H           13.78065668977680       53.89928850745599       22.10659563228140
77
 energy: -118.987262350523 gnorm: 0.024457444683 xtb: 6.7.1 (edcfbbe)
Fe          14.53135785290775       54.66277155833966       19.02828849185721
N           13.06336391903528       55.94028499359521       18.51098577862199
N           14.00675124635852       53.48213286263248       17.42199764082326
N           15.87418270787641       53.27734279569751       19.63420332199106
N           14.85479227556587       55.69548422082025       20.74190474386726
C           12.73023785358693       57.06680358883859       19.18737566210134
C           11.74299644134025       57.82523621679613       18.43834702041321
C           11.50623406363376       57.12981989545613       17.29087574110005
C           12.34855568879133       55.94731494567156       17.35525861256650
C           13.10303690778477       53.77936335013247       16.45348014571747
C           12.99520853439364       52.67432156081581       15.52257634084928
C           13.85903306695934       51.70811644554230       15.96472440475834
C           14.49948126809887       52.25095849861435       17.15027347641620
C           16.22393455907185       52.17576127532766       18.92688962220612
C           17.42433258645219       51.58011033897898       19.47570851390642
C           17.77962415957712       52.34814019154467       20.55220839522127
C           16.77685624074353       53.39942026819763       20.64069942188776
C           15.73994203457437       55.36186865104570       21.71660821819735
C           15.57430268091013       56.23538592760690       22.85223724816414
C           14.60491391178621       57.12700729386209       22.52325079884925
C           14.17419193065660       56.78603152763032       21.18435438306889
C           13.21865104777205       57.45739938259472       20.42749708722907
H           12.82061814589287       58.37594405912105       20.83402882867353
C           12.36635366523259       54.95413594740977       16.38511599468677
H           11.75568325134287       55.10421617631218       15.50569037565848
C           15.53404198271127       51.64598912822395       17.84395606265905
H           15.86381826192965       50.68228698539260       17.47982535790846
C           16.68565761317624       54.34166905595544       21.65167574819856
H           17.39841813419779       54.27313503158141       22.46092108004378
C           10.58769823757810       57.44306132663224       16.16348773065534
H           10.06129088725762       58.37703938274465       16.33503696693143
H            9.84729477183671       56.65392386359709       16.03372680032992
H           11.14629252539407       57.53204715641299       15.23305184610553
C           11.17186231209191       59.11124258783148       18.91770940660471
H           11.96786735809253       59.84156575172967       19.05438333621403
H           10.67553975770280       58.97169802656799       19.87748817835557
H           10.45270325764648       59.51361180789563       18.21302343673828
C           12.05960427869481       52.55880577565376       14.36946274332601
H           12.50258388702233       52.97267462289081       13.46454917598928
H           11.12909364060464       53.08526857183790       14.56286291958256
H           11.83001607562670       51.51170649723306       14.18304196867462
C           14.07385842078060       50.38746851445913       15.41092526071347
H           14.19296198150539       50.31197620375365       14.33641693340394
C           14.09798284464586       49.28865182314451       16.16011413014950
H           13.93956057851084       49.34981328014547       17.22281828033250
H           14.25500841110505       48.30976356773299       15.74374112462900
C           18.09963151088040       50.42297729093526       18.83115613529660
H           18.22149057077727       50.61790889327691       17.76620083068321
H           17.48850001658507       49.52573276500807       18.93329814885422
H           19.07520204430475       50.23500620817722       19.26579436512450
C           18.90302034240378       52.21689073422187       21.46235087782303
H           19.47053433846038       53.11816856016510       21.66321872218804
C           19.24339621993641       51.08283301219462       22.06533851909268
H           18.68007717666407       50.18077053686953       21.90617241705245
H           20.07900435021822       51.02343864351526       22.74056082799375
C           16.31307196788047       56.12839386230389       24.14349267778104
H           17.29796107218241       56.58761814217538       24.06323128220157
H           16.45165360535103       55.08963667822036       24.43645852156831
H           15.76311863358998       56.63634131548567       24.93071014595169
C           14.06842286886299       58.19742447920885       23.41247434544602
H           14.88504279446934       58.74162381313370       23.88345207654517
H           13.46469474665773       57.75659110908319       24.20782612789312
H           13.44841630426348       58.90795985332506       22.87611967966365
O           15.55484535245489       55.91740232866564       17.05696318498642
O           15.76437398691181       55.48388163780687       18.24362372258545
C           11.78938414525066       51.92063168101579       23.30195094362383
H           11.96015875100452       50.84850871002325       23.37905382212899
H           10.74173578209962       52.11785538734870       23.52105583035894
H           12.40041636022920       52.42389336348599       24.04306238970273
N           11.53707978487220       51.97511994544421       20.80526431353434
H           10.80179145221858       51.28749086932854       20.75609606685627
C           12.14959836997568       52.41349658760902       21.95056403068032
C           12.10508870440218       52.62234908783682       19.76394536203967
H           11.81511447648452       52.46847582645722       18.74545444112615
N           13.03633315022728       53.44270447936519       20.17419572861251
C           13.07653177113677       53.32267853439920       21.53209631130134
H           13.77051809078771       53.89042472991296       22.11301939492604
77
 energy: -118.989532705836 gnorm: 0.014685757393 xtb: 6.7.1 (edcfbbe)
Fe          14.53311649068360       54.66738567730732       19.02038526421036
N           13.07458789911253       55.94760668957872       18.51914256466360
N           14.01110814988681       53.48299855682473       17.43162545391392
N           15.88195866294182       53.28694704922979       19.60782196060939
N           14.85401357826374       55.68959852801682       20.73780420629803
C           12.73460172674803       57.07263881600868       19.19245662011003
C           11.74899761773472       57.82914773392491       18.44312811497194
C           11.51771146967483       57.13151129349615       17.29771468118558
C           12.35894496230909       55.95026392201754       17.36489126992153
C           13.10495027657467       53.78066969122243       16.46643561962815
C           12.99310592296069       52.68021965577849       15.53542308396321
C           13.85161250767779       51.71031698184621       15.97950819729112
C           14.50200910079189       52.25270696772865       17.15498255845580
C           16.23272841924345       52.17699702746644       18.91023970810608
C           17.41748170616139       51.57486235428788       19.47600692955768
C           17.76717049058287       52.34828051001349       20.54860638102371
C           16.77690394776101       53.40878971992574       20.62010753441015
C           15.74353445968477       55.35857483813867       21.70951675454732
C           15.58063472655775       56.23337016734363       22.84665956092726
C           14.60273662107604       57.12292626133307       22.51749970804537
C           14.17073360690430       56.77759222952727       21.18073426337816
C           13.21622763112970       57.45287915994147       20.43543142234379
H           12.81086104662075       58.36194329519690       20.85452517114396
C           12.36848669100848       54.95432066848223       16.40252265256330
H           11.74423345791879       55.09821050815593       15.53248337410120
C           15.54858616755374       51.64694475718411       17.82747253644421
H           15.89172111421006       50.69445827764194       17.44444563710691
C           16.68708749509882       54.34374133752086       21.63758372523661
H           17.39843230561453       54.27038525123508       22.44731277874508
C           10.59779799552699       57.44409963197999       16.17072993393606
H           10.07172055530057       58.37860383004797       16.34597708082904
H            9.85761735470937       56.65351686639614       16.04515756934837
H           11.15566856507549       57.53353481304494       15.23941725044922
C           11.16716789070852       59.11619059781268       18.91172390873518
H           11.95589680770023       59.85565709705786       19.04723705323562
H           10.66352579429226       58.98023720300944       19.86887045042276
H           10.44827975953219       59.50800022314882       18.19857778445222
C           12.06443782872346       52.57632411307560       14.37469432110202
H           12.51472499881815       52.99960370274621       13.47669221964115
H           11.13225516056083       53.10245322899716       14.56609087035652
H           11.83588944862041       51.53029266505654       14.17688937516557
C           14.06370143500476       50.38811166284793       15.42645052787768
H           14.16906059449775       50.32779602120941       14.34905679323820
C           14.10161568840075       49.28208093559515       16.16317090771074
H           13.95329100372125       49.32290659735622       17.23026427283646
H           14.25698249230521       48.30795484758288       15.73314915609415
C           18.11057328182673       50.41339673331737       18.85643643967990
H           18.25246490217402       50.60073817139704       17.79195859745577
H           17.50997121026939       49.50829811083467       18.95717832079427
H           19.08056706572792       50.24397671768991       19.31497274016840
C           18.88617532757729       52.21189067387451       21.46193201873715
H           19.43794695319377       53.12199787196325       21.66908188797994
C           19.24214597180471       51.07594468331427       22.05019531986785
H           18.68927175821030       50.16556477734327       21.89099653555306
H           20.07990619183101       51.01931527363804       22.72353504834687
C           16.32060024819040       56.13038708564302       24.13600717749233
H           17.30659250698474       56.58731688219306       24.05306086407063
H           16.45327961835479       55.08967845474095       24.42424325580572
H           15.77429623787217       56.63972554594272       24.92624040111680
C           14.06397385290736       58.20048113402481       23.39463388153747
H           14.88030896079427       58.74903147151840       23.86187571627781
H           13.45653925141414       57.76539940415957       24.19084644028748
H           13.44709088652574       58.90180148844752       22.84251021433266
O           15.53247348212209       55.91938486576198       17.03664474101363
O           15.74460831167107       55.48941228589748       18.22642262715096
C           11.78085014516862       51.91029665188687       23.30441181823815
H           11.95051047668551       50.83748955921557       23.38310246285229
H           10.73275300307736       52.10912764465679       23.52296558696777
H           12.39258409102166       52.41450573053487       24.04538744079331
N           11.53001471215482       51.97073702671364       20.80636213686051
H           10.79373314433618       51.28502615912421       20.75373534264092