72
 energy: -105.902984073565 gnorm: 0.276354150105 xtb: 6.7.1 (edcfbbe)
Fe         -33.68900000000000       -1.30600000000000        9.88400000000000
N          -34.89999999999999        0.08700000000000       10.73200000000000
N          -32.95200000000000        0.15000000000000        8.60900000000000
N          -32.37400000000000       -2.69800000000000        9.04700000000000
N          -34.33100000000000       -2.64700000000000       11.10900000000000
C          -35.63600000000000       -0.09200000000000       11.86000000000000
C          -36.22700000000000        1.14100000000000       12.25400000000000
C          -35.73199999999999        2.07700000000000       11.40500000000000
C          -34.88600000000000        1.42200000000000       10.49000000000000
C          -33.35300000000000        1.40700000000000        8.58900000000000
C          -32.67800000000000        2.08200000000000        7.51900000000000
C          -31.90600000000000        1.16200000000000        6.91300000000000
C          -32.06200000000000       -0.07400000000000        7.64900000000000
C          -31.50500000000000       -2.44600000000000        8.04100000000000
C          -30.81300000000000       -3.64800000000000        7.71800000000000
C          -31.30700000000000       -4.57000000000000        8.62500000000000
C          -32.25400000000000       -3.93300000000000        9.47500000000000
C          -33.89200000000000       -3.93300000000000       11.26800000000000
C          -34.68600000000000       -4.65200000000000       12.28400000000000
C          -35.53200000000000       -3.74000000000000       12.79500000000000
C          -35.23100000000000       -2.49400000000000       12.08600000000000
C          -35.87299999999999       -1.32500000000000       12.40600000000000
H          -36.64800000000000       -1.38300000000000       13.17000000000000
C          -34.24299999999999        2.04700000000000        9.44200000000000
H          -34.44499999999999        3.10500000000000        9.27300000000000
C          -31.38900000000000       -1.26100000000000        7.34300000000000
H          -30.71900000000000       -1.24900000000000        6.48400000000000
C          -32.96600000000000       -4.56400000000000       10.47300000000000
H          -32.78400000000000       -5.62500000000000       10.64100000000000
C          -35.99799999999999        3.56500000000000       11.40300000000000
H          -36.54000000000000        3.84600000000000       12.33100000000000
H          -36.62299999999999        3.83300000000000       10.52500000000000
H          -35.03500000000000        4.11800000000000       11.36700000000000
C          -37.20499999999999        1.36100000000000       13.40400000000000
H          -36.63999999999999        1.59200000000000       14.33200000000000
H          -37.80500000000000        0.44100000000000       13.56700000000000
H          -37.87500000000000        2.21500000000000       13.16800000000000
C          -32.80200000000000        3.51400000000000        7.04200000000000
H          -33.54700000000000        4.05000000000000        7.66800000000000
H          -33.14300000000000        3.52900000000000        5.98500000000000
H          -31.82000000000000        4.02600000000000        7.13200000000000
C          -31.17900000000000        1.55800000000000        5.75000000000000
H          -30.57300000000000        2.47600000000000        5.76900000000000
C          -31.20200000000000        0.89300000000000        4.68800000000000
H          -31.79400000000000       -0.03200000000000        4.62100000000000
H          -30.63000000000000        1.22500000000000        3.80900000000000
C          -29.83700000000000       -3.94600000000000        6.60400000000000
H          -29.69000000000000       -3.03500000000000        5.98600000000000
H          -30.23900000000000       -4.75700000000000        5.96000000000000
H          -28.85900000000000       -4.25100000000000        7.03400000000000
C          -31.00700000000000       -5.95900000000000        8.80000000000000
H          -31.64000000000000       -6.55100000000000        9.47700000000000
C          -30.05000000000000       -6.58100000000000        8.22700000000000
H          -29.37600000000000       -6.05400000000000        7.53600000000000
H          -29.88800000000000       -7.65200000000000        8.41700000000000
C          -34.55800000000000       -6.09100000000000       12.70700000000000
H          -33.48300000000000       -6.36800000000000       12.76100000000000
H          -35.06200000000000       -6.74700000000000       11.96500000000000
H          -35.01600000000000       -6.23000000000000       13.71000000000000
C          -36.52400000000000       -3.98200000000000       13.94800000000000
H          -35.98600000000000       -3.92500000000000       14.91800000000000
H          -36.97900000000000       -4.99100000000000       13.84700000000000
H          -37.31700000000000       -3.20400000000000       13.93000000000000
O          -31.98300000000000       -0.96000000000000       11.50200000000000
H          -31.34600000000000       -1.66200000000000       11.36800000000000
H          -31.93400000000000       -0.31500000000000       12.11200000000000
C          -36.53500000000000       -2.79800000000000        8.85500000000000
H          -37.15699999999999       -3.24900000000000        8.05300000000000
H          -37.19100000000000       -2.14900000000000        9.47400000000000
H          -36.14000000000000       -3.62200000000000        9.48700000000000
S          -35.14600000000000       -1.81300000000000        8.15100000000000
H          -34.47699999999999       -2.86400000000000        7.69900000000000
72
 energy: -105.952245538950 gnorm: 0.088738792533 xtb: 6.7.1 (edcfbbe)
Fe         -33.66907369764981       -1.29845476517112        9.90529635320885
N          -34.86370206315019        0.08854708136811       10.75717594199157
N          -32.95237158509190        0.13520446185537        8.63295474364275
N          -32.37724882958749       -2.65677196079287        9.06751993025295
N          -34.32698681890678       -2.65611734446265       11.13837734903957
C          -35.66090494974156       -0.09188193054595       11.84554915897913
C          -36.24005592268739        1.15280258475955       12.26079841856540
C          -35.74490110802889        2.09418865182328       11.41294854425899
C          -34.89691241933642        1.41999169779156       10.48455051569573
C          -33.35565795742581        1.41512788083779        8.59454406766013
C          -32.68321623254941        2.09962231697082        7.52371947863144
C          -31.89064804375440        1.17691110174173        6.92384433384058
C          -32.06590471587036       -0.07122525093682        7.64095799488464
C          -31.52141643821671       -2.44411292525458        8.03096923417107
C          -30.82196972239673       -3.66117513617266        7.72200240298325
C          -31.30198401568935       -4.58681413540841        8.62565052685390
C          -32.26209024124245       -3.92917889816079        9.46306176762019
C          -33.91645511723538       -3.95454854055739       11.25590431395278
C          -34.67904695765374       -4.65242340668960       12.29081594358519
C          -35.53353607013663       -3.74025815791052       12.80842290820408
C          -35.26573183586289       -2.49806638055238       12.09604315220217
C          -35.90503958757691       -1.32406023787165       12.41101422035042
H          -36.65062261579475       -1.37190494612010       13.19175532441911
C          -34.24757243129724        2.04382431379994        9.44077646901688
H          -34.44020582269467        3.09632254910485        9.27927144563297
C          -31.39615937394982       -1.25059911263635        7.33939811311073
H          -30.71908784626248       -1.23483748321073        6.49452584752161
C          -32.97541796519538       -4.56642093294950       10.46670541454304
H          -32.78264733652635       -5.61482439022789       10.64529098969495
C          -36.00262036657870        3.56747029171596       11.40820120590540
H          -36.53514398300953        3.85455411777561       12.31856384072958
H          -36.61220223234089        3.83917880634924       10.53873948858382
H          -35.05564558101344        4.11637973418833       11.36613240303780
C          -37.19793971036996        1.35918344514238       13.40044330759710
H          -36.65060388517101        1.58670643190305       14.32294655950511
H          -37.79885697333911        0.46005415779897       13.56597705966122
H          -37.86592216344459        2.19652893364438       13.17641773770370
C          -32.81315847384457        3.51613926587452        7.05579165953937
H          -33.54310300762121        4.05958707417718        7.65937577793888
H          -33.13568179054627        3.53426650588815        6.00813719168477
H          -31.84332044313667        4.02303499671803        7.12987730272546
C          -31.13472377775888        1.54763134582390        5.75880827935498
H          -30.57180664974423        2.48019471880129        5.78511006629425
C          -31.17899960592752        0.86171778074363        4.64279768580853
H          -31.78171793061169       -0.03713196253844        4.57853593506505
H          -30.64003418637068        1.19704954959441        3.76773494114337
C          -29.84779278300393       -3.92660828510564        6.61245810908829
H          -29.69462596060555       -3.03948496789536        5.99127569305033
H          -30.22661174698144       -4.73573797204915        5.97413129400745
H          -28.87351676407733       -4.22578448463436        7.01864761091853
C          -31.00436874492491       -5.97711427427588        8.79862333416055
H          -31.64130987293233       -6.54443393006893        9.47397061013912
C          -30.01869897332541       -6.62113883978838        8.21014505421147
H          -29.35036904954606       -6.10946596578797        7.53847039248949
H          -29.85884904544159       -7.67134875239800        8.39980532467088
C          -34.54672412514609       -6.08467370079986       12.69964859275513
H          -33.49258172015560       -6.37343166449671       12.75862136460818
H          -35.04979063936698       -6.74095431003254       11.97825058102563
H          -35.00226067080292       -6.23167202156679       13.68468679172796
C          -36.51484731677830       -3.97120044631596       13.93421183702389
H          -35.99516171050213       -3.92105911011462       14.89894259193123
H          -36.96908652276524       -4.96379493794744       13.84253063305928
H          -37.30901866750430       -3.21965665027215       13.93018032704855
O          -32.00095477351618       -0.97048903206211       11.46913802980512
H          -31.34503715846457       -1.65785377331747       11.36996360648660
H          -31.93045718121137       -0.30067718373418       12.12510858770104
C          -36.54625966288377       -2.81430666356714        8.85836028342016
H          -37.14743342316372       -3.24042024789156        8.04940254691425
H          -37.17015411713729       -2.15140667436868        9.46411584381683
H          -36.14254247154933       -3.61242187968180        9.48553863954575
S          -35.16851160398458       -1.81946244233039        8.17503692466337
H          -34.48898681188829       -2.86281368751870        7.69830004893845
72
 energy: -105.964612854177 gnorm: 0.031448018901 xtb: 6.7.1 (edcfbbe)
Fe         -33.65325141105727       -1.28956145893214        9.91260393069181
N          -34.83709670995880        0.08752423156491       10.78073149262311
N          -32.94537037338490        0.12495046913482        8.65332922401964
N          -32.38404091442877       -2.63208904055856        9.08481919418044
N          -34.33646688612741       -2.66102839850337       11.15769913276114
C          -35.67312536333500       -0.09273641809421       11.84076295162240
C          -36.25517320907380        1.15803761795548       12.25939666107953
C          -35.75769660534516        2.10293240745740       11.41585272237556
C          -34.89563302526307        1.41536767317344       10.49035419802876
C          -33.34698998419046        1.41960618675385        8.59991042392816
C          -32.67855401465581        2.10750912954886        7.52654710681084
C          -31.88007998440557        1.18129988723864        6.92136079114574
C          -32.06325031666177       -0.06640725083867        7.63821279553604
C          -31.53592113893197       -2.44353958809175        8.02928454563207
C          -30.83605817984233       -3.66749771348255        7.72441809311406
C          -31.29911329826005       -4.60296529179045        8.62343556496574
C          -32.26898299499391       -3.92873437299911        9.45473478415514
C          -33.93806690529067       -3.96231783405148       11.25188829008300
C          -34.68029807544654       -4.65150118003771       12.28927553695180
C          -35.53960726459162       -3.74068815279214       12.81450419666544
C          -35.29335846761438       -2.49929290115869       12.10905529252339
C          -35.92613868900182       -1.31846897062934       12.42523556035155
H          -36.65532302599155       -1.35364886133521       13.21812430926764
C          -34.24017828782681        2.03819733323538        9.44912631237422
H          -34.43481806886739        3.08682347929259        9.29039078211454
C          -31.39814076644439       -1.24278500590466        7.34433214286640
H          -30.71486732787828       -1.22121237772959        6.50850670036036
C          -32.98103251545436       -4.55992589064597       10.46570517532066
H          -32.78479300750954       -5.60145638484696       10.65325745297358
C          -36.00888986701892        3.57028747983066       11.41070616457804
H          -36.53923344807911        3.86607401827901       12.31013017016102
H          -36.60677637266954        3.85001513022646       10.54393616549944
H          -35.07001097144432        4.11846052162752       11.36770580188705
C          -37.19770702461491        1.35627346058495       13.39613811084367
H          -36.65516079286795        1.57941632846827       14.31511049196571
H          -37.79821111087846        0.46718370451814       13.56506063009506
H          -37.86612125353226        2.18729239530832       13.18581608995117
C          -32.82296634523669        3.51882377095255        7.07363555551524
H          -33.54585639128129        4.06788387057866        7.66559071256172
H          -33.13881220250875        3.53992004160841        6.03103161857189
H          -31.86130954455944        4.02881720716790        7.13570717427103
C          -31.10623431784061        1.51951235674783        5.74632957606050
H          -30.55503214513464        2.45104977780746        5.78704268668327
C          -31.16163863005630        0.83281139441681        4.61274174518456
H          -31.75897924619224       -0.05755814805333        4.54658065760060
H          -30.63374714413688        1.16295517770602        3.73876839002679
C          -29.86123726570397       -3.89839653270708        6.61844393886788
H          -29.72034337786675       -3.01685324974122        6.00141620457430
H          -30.21785992090794       -4.71192663107936        5.98330897986225
H          -28.88661828560621       -4.18409476332265        7.01560940943157
C          -30.98812554297861       -5.99681055424400        8.78686096931301
H          -31.62930158827220       -6.55063031965918        9.45722318885579
C          -29.99236390110198       -6.65459060186899        8.19748711955803
H          -29.31490401737662       -6.16471247602909        7.53419972954107
H          -29.83803621879179       -7.69832709565793        8.38693880380708
C          -34.53526282025850       -6.07996541850685       12.69002902296230
H          -33.48998981810313       -6.37162960216495       12.74889682854010
H          -35.03415254015378       -6.73600722472738       11.97584001867813
H          -34.98849739779733       -6.23594963732820       13.66596944438143
C          -36.50939890691632       -3.96368368689076       13.92472270672380
H          -35.99992752706375       -3.91369367340356       14.88802517827689
H          -36.96346643569548       -4.94827159737866       13.83543572862013
H          -37.30276092725236       -3.22342708384867       13.92155396760427
O          -32.01583074318719       -0.95272925200971       11.42041774539379
H          -31.34840221333851       -1.64060322966423       11.38375222327489
H          -31.93614649420041       -0.30484383354722       12.12025979379485
C          -36.55614708812242       -2.82674839906841        8.86599988977544
H          -37.14031189066992       -3.23638313721466        8.04796975812014
H          -37.16466244819969       -2.15725232328860        9.46289657851205
H          -36.15086665256014       -3.61293415207196        9.49010007424318
S          -35.19197352151726       -1.81736463537556        8.19250122454706
H          -34.50729883647239       -2.85378069990968        7.69225436676117
72
 energy: -105.968557843485 gnorm: 0.029934849042 xtb: 6.7.1 (edcfbbe)
Fe         -33.64891850192859       -1.28204676037890        9.90914900185127
N          -34.82545450683799        0.08871438933810       10.79476973240864
N          -32.93983629804948        0.12142746635560        8.66353660118103
N          -32.39843286272960       -2.62830469155920        9.08676561487305
N          -34.34565832465851       -2.66015103589521       11.16730734346798
C          -35.67337061196574       -0.09260017862251       11.84318450578765
C          -36.26517985378025        1.15962020965274       12.25497594256838
C          -35.76443829173566        2.10632820416676       11.41600452797168
C          -34.88704633954551        1.41415285586699       10.49994147884321
C          -33.33330787207465        1.42299146345215        8.60660928737214
C          -32.66985131788856        2.10774321418099        7.52823439983401
C          -31.87617136910827        1.17773898990174        6.91551239698373
C          -32.06039132353084       -0.06354326567336        7.64002370160798
C          -31.54724885485697       -2.44286229089164        8.03221498361087
C          -30.84707454123264       -3.66504635674788        7.72612541669314
C          -31.29807109748886       -4.61059607099682        8.62003180963728
C          -32.27469707820449       -3.93186143207440        9.45002053741463
C          -33.95020797259726       -3.96084436749543       11.25071585842826
C          -34.68210846877035       -4.64991965775869       12.28676871363021
C          -35.54289822744427       -3.74054325572118       12.81822594069369
C          -35.30467325214472       -2.49791258360578       12.12063792313921
C          -35.93201591629351       -1.31192960559358       12.43958105553251
H          -36.65321442067321       -1.33578765312400       13.24113306577823
C          -34.22560268511734        2.03661909441915        9.46215943887731
H          -34.42286979569013        3.08495715598501        9.30687690317894
C          -31.39840899517297       -1.24024386129318        7.35190521824603
H          -30.70613423969575       -1.21297717653865        6.52371846947051
C          -32.98521585392877       -4.55387632589909       10.46483131365269
H          -32.78487566767252       -5.59324448974781       10.66104075211189
C          -36.01531892376565        3.57346172882205       11.40913916847923
H          -36.55062474038760        3.87390211357074       12.30435220158186
H          -36.60657300380455        3.85850607228522       10.53938650742583
H          -35.07653593089933        4.12193272293681       11.37100420489645
C          -37.20420401607251        1.35259474149636       13.39329536333520
H          -36.65739837109820        1.56949115888571       14.31135263896181
H          -37.80655409335146        0.46520219887521       13.56261520966099
H          -37.87343263439244        2.18572789397111       13.19430341976011
C          -32.82708740925153        3.52104515497378        7.08789437886992
H          -33.54979350386752        4.06518388311311        7.68449796400202
H          -33.14857386452708        3.54797110350864        6.04741725356608
H          -31.86991727858983        4.03954786846837        7.14620239334698
C          -31.09172375425621        1.48563663201475        5.73132133806384
H          -30.53470423492270        2.41264274233814        5.78102691675044
C          -31.13809244595440        0.79172997996450        4.59778793405193
H          -31.74162928841152       -0.09354464588286        4.51963466916669
H          -30.60901431166397        1.11411701260883        3.71996104750281
C          -29.86992382390964       -3.86679561434751        6.62041307161904
H          -29.75704339320184       -2.97878875354107        6.00758642466540
H          -30.20370055823285       -4.68883326902960        5.98444007200303
H          -28.88795740618047       -4.12661784517674        7.01647554642109
C          -30.97254803126403       -6.00745216502562        8.77114285381910
H          -31.61868476590174       -6.55791164467009        9.43894071267553
C          -29.97506371955785       -6.67537576793897        8.18688324354660
H          -29.27678016973486       -6.20700630438803        7.52566989754426
H          -29.82761138328661       -7.72199127628616        8.37972298280623
C          -34.52547269447742       -6.07885993846046       12.67949660308813
H          -33.47819753630276       -6.36327589931700       12.73476599650700
H          -35.01799584506581       -6.73483579060744       11.96136601961253
H          -34.97609000582604       -6.24581751375325       13.65412623048930
C          -36.51316981443619       -3.96187026587216       13.92330190303869
H          -36.00913154577800       -3.90686671429013       14.88887887085829
H          -36.96651526857636       -4.94655921555389       13.83631883382499
H          -37.30739390147502       -3.22283592011856       13.91384334195215
O          -31.99233464623755       -0.88838309476172       11.33734810616605
H          -31.36699959066773       -1.63303090247393       11.41832426111692
H          -31.96197917113323       -0.32034477851163       12.12931627637351
C          -36.56853938553953       -2.83335288981158        8.87550306168228
H          -37.14384310681405       -3.24010977363643        8.05133391687819
H          -37.17831732847866       -2.16709635764384        9.47245385433147
H          -36.15857096189553       -3.61751985737112        9.49808527436862
S          -35.21523601068014       -1.80877858731342        8.20325602594360
H          -34.53034758931289       -2.83684020575232        7.68081207439997
72
 energy: -105.970409682995 gnorm: 0.016994781074 xtb: 6.7.1 (edcfbbe)
Fe         -33.64511019044883       -1.27381429429755        9.90740290559908
N          -34.81818114377224        0.09267124534774       10.80484463355189
N          -32.94389511769557        0.12003683386355        8.66233005475595
N          -32.41368507450851       -2.63304528310565        9.08193410713569
N          -34.34547869764204       -2.65483662539425       11.17880520154385
C          -35.66980073959454       -0.09149162498225       11.84796185902113
C          -36.27153604456093        1.16062173714846       12.25092385190813
C          -35.76736849034972        2.10834971170774       11.41600846785729
C          -34.87786123694886        1.41646854375126       10.50870823215180
C          -33.32331630606959        1.42586554474567        8.61086137818746
C          -32.66168600620573        2.10602273632597        7.52878867683834
C          -31.87857926778135        1.17150066417421        6.90804186470756
C          -32.06517250936062       -0.06389750136128        7.63900945667482
C          -31.55786634898832       -2.44217491308925        8.03416124174103
C          -30.85371712604211       -3.65881659818868        7.72689366078881
C          -31.29760296960373       -4.61209340328238        8.61576256565427
C          -32.28012447113031       -3.93647346420569        9.44619957304379
C          -33.95401347784387       -3.95652042907295       11.25297629551815
C          -34.68367760439473       -4.64899370679269       12.28562513159222
C          -35.54402001901391       -3.74074574541224       12.82233457149935
C          -35.30531925931038       -2.49548267923177       12.13297246165749
C          -35.93032062962305       -1.30617240574561       12.45206718443337
H          -36.64867996902290       -1.32183276078749       13.25733325714483
C          -34.21071766134208        2.03873652383734        9.47459561255672
H          -34.40474748363785        3.08953691275251        9.32704402072927
C          -31.40241156462807       -1.24076549245853        7.35614591090784
H          -30.69895483180919       -1.20741918904111        6.53679344782630
C          -32.98890027711938       -4.55056260954471       10.46358694401817
H          -32.78640934839245       -5.58988033045239       10.66514371517617
C          -36.02198056057363        3.57609665806849       11.40602185847055
H          -36.56574589916009        3.87759622267527       12.29784544334758
H          -36.60758344400920        3.86233771430005       10.53121320351458
H          -35.08235175940425        4.12635582618923       11.37581892653673
C          -37.21349723890696        1.34908753923564       13.38989881189425
H          -36.66312935996916        1.55678233104882       14.30968996382568
H          -37.81992601929719        0.46185486199863       13.55396069669103
H          -37.88089205487479        2.18707327729747       13.19905504980110
C          -32.82595735745197        3.52365711656181        7.10058958708013
H          -33.54973902240187        4.05743095239273        7.70859090491401
H          -33.15661371223691        3.55975878553956        6.06209709453444
H          -31.87181648520604        4.04959449799427        7.15958622420954
C          -31.08670085178480        1.45223911042821        5.71810015901917
H          -30.51318922518192        2.37062549917069        5.77113454830046
C          -31.11703137727479        0.74763372354316        4.59271911320027
H          -31.72115075193707       -0.13898857268397        4.50422736400380
H          -30.56418133448439        1.04882815403033        3.71860137780790
C          -29.87233906136152       -3.83790438846097        6.62192507722531
H          -29.79113032619211       -2.94348213107503        6.00967877932649
H          -30.18173514417764       -4.66986372147571        5.98538742461775
H          -28.88166864034921       -4.06656819461293        7.01937724870844
C          -30.95891497352860       -6.00971767716620        8.75542157189033
H          -31.60996822925117       -6.56410696511071        9.41843072921079
C          -29.96187079365377       -6.68195784533879        8.17785229496402
H          -29.24643813759509       -6.23095937588934        7.51609662950328
H          -29.82297649585407       -7.73355096633263        8.37038953547600
C          -34.51788130616411       -6.08024328140569       12.66791700561905
H          -33.46580761142705       -6.35397055742065       12.72049931682317
H          -35.00179446972354       -6.73500479514569       11.94123677551263
H          -34.96718576970432       -6.26048934006848       13.64185223210321
C          -36.52085110498870       -3.96297665229775       13.92430304985407
H          -36.02316476501209       -3.90073071599283       14.89389499348468
H          -36.97125855806983       -4.95014179393236       13.83841224076516
H          -37.31724729816829       -3.22406878711410       13.90421327746808
O          -31.99982092368893       -0.86569212538054       11.31903944754961
H          -31.37753865727004       -1.59412682141264       11.40690373191256
H          -31.96828198585170       -0.32347893461346       12.12184398037703
C          -36.58167016885717       -2.83697707281888        8.88606214873518
H          -37.15183791034931       -3.24667074287617        8.05854435025614
H          -37.20066885069611       -2.18141737792344        9.48721988992166
H          -36.16411670421083       -3.62200939110604        9.50548638928116
S          -35.23914659410035       -1.79254522967381        8.21771561993933
H          -34.55804519875967       -2.81010021035375        7.66888964810336
72
 energy: -105.970945645389 gnorm: 0.037671065194 xtb: 6.7.1 (edcfbbe)
Fe         -33.65165924453093       -1.26915024044424        9.90123079021459
N          -34.81279422851884        0.09818304670042       10.81145802717441
N          -32.95244133331538        0.12046517637229        8.65803667211428
N          -32.42438932360590       -2.63718665058890        9.07733911640454
N          -34.34157344946239       -2.65032930330946       11.19005023667717
C          -35.66348210660562       -0.09012321539280       11.85300729770305
C          -36.27382283493399        1.16148590168962       12.24871780911341
C          -35.76706889428896        2.11026849152850       11.41737486701707
C          -34.86961076001391        1.42116098582385       10.51576939511575
C          -33.31720425672205        1.42954622731706        8.61388016985345
C          -32.65618524297152        2.10502106241474        7.52823202037819
C          -31.88597007916700        1.16524916183847        6.90071735865272
C          -32.07698050196223       -0.06616734850969        7.63518427154888
C          -31.56647684633371       -2.44002765452982        8.03458959141367
C          -30.85659772590324       -3.65099354406862        7.72608207208888
C          -31.29852584501948       -4.60804052928042        8.61039383813826
C          -32.28433996406590       -3.93928712329629        9.44317596058901
C          -33.95181084604025       -3.95199594019300       11.25760059844719
C          -34.68368822298166       -4.64931633721332       12.28632659916523