72
 energy: -105.980112670843 gnorm: 0.000079909951 xtb: 6.7.1 (edcfbbe)
Fe          24.23244564663819       -3.18466219209802        5.08530026550658
N           23.78300285579236       -3.43325648715088        3.14255210941475
N           22.25711681518582       -3.13368313738211        5.51518004728867
N           24.65572314435179       -2.84861773442016        7.00793373381733
N           26.16543405638148       -3.17189940218602        4.64031300796992
C           24.66320910091735       -3.61003645246441        2.12277339596788
C           23.96503627437633       -3.79117469283114        0.87056629147106
C           22.63738007674968       -3.71122554420819        1.15663181957741
C           22.54247966785810       -3.49313343449425        2.58206191035986
C           21.21891838443405       -3.23593084606322        4.63560221263854
C           19.95829671694484       -3.19731293266408        5.32678629749381
C           20.25226376326098       -3.07846399670961        6.66058934844222
C           21.69627929370595       -3.02291261093258        6.74971543193107
C           23.77125849513786       -2.75873203670432        8.03939340080641
C           24.45893232964158       -2.52900361835016        9.28490220748262
C           25.79278310908278       -2.47963555376386        8.98175546680135
C           25.88636365191703       -2.68269501978009        7.54938021469062
C           27.19576429351668       -2.98346659019239        5.50135595311068
C           28.46520173487164       -3.06999701803713        4.80903518371329
C           28.17172164985483       -3.32273966493363        3.50756465619184
C           26.72696120345767       -3.37890344432680        3.42237321972788
C           26.03959853782543       -3.59780824475489        2.24549046779911
H           26.61953610398128       -3.75449122303047        1.34943820065709
C           21.34641330230835       -3.38878094115421        3.26475979294247
H           20.43856069845731       -3.46371063879702        2.68701754128898
C           22.39642883130592       -2.86932760997919        7.93103782158946
H           21.82268607285936       -2.81470841326193        8.84285365928230
C           27.07918209421367       -2.74893425824235        6.85608778067708
H           27.99096743105796       -2.61997995423006        7.41799119210314
C           21.46491694084745       -3.82329208153416        0.24413894676604
H           21.78842959562175       -3.96954831890028       -0.78321972394052
H           20.85701041666674       -2.91916933185512        0.28628229100899
H           20.83573937774788       -4.66716130133442        0.52885513106380
C           24.63715276910492       -4.01109021390161       -0.44034786082637
H           25.25915597875349       -4.90563832332507       -0.40622513971426
H           25.27705718774846       -3.16424446327837       -0.68904635169998
H           23.90535027721187       -4.13263917001408       -1.23507838582772
C           18.62185189381879       -3.21875646861362        4.67188445007609
H           18.31809471539003       -4.24048303413273        4.43739524967292
H           18.63783527293875       -2.65086858971718        3.74271852382866
H           17.87623918422135       -2.78302353199147        5.33374578179152
C           19.35214641341372       -2.98412466134880        7.78883554283012
H           19.69017117526954       -2.35987542666847        8.60768880875083
C           18.17905728539582       -3.59987596051981        7.88962288722240
H           17.81480051560091       -4.26863507364268        7.12935705350536
H           17.55101572358916       -3.47519593592308        8.75584876103761
C           23.79862942492616       -2.31441323815654       10.60152659444371
H           23.52556803931243       -3.26634474235354       11.05995062129911
H           22.89146510831468       -1.72281225377685       10.48716979022405
H           24.47313354739724       -1.78966646090874       11.27473241652241
C           26.92229580598774       -2.24861650970752        9.85560946988975
H           27.74468710005359       -1.69423132328739        9.41907946578669
C           27.01800521416742       -2.66347586487610       11.11420045105186
H           26.25241305869961       -3.25818860461270       11.58127246297929
H           27.88502629452705       -2.44448351854526       11.71493667923632
C           29.79163455564419       -2.90471510591666        5.46578621498392
H           29.92561901136881       -3.65051277393627        6.24937007179389
H           29.87208224695695       -1.91720584380694        5.92028146479773
H           30.59709850283660       -3.01635464678560        4.74427651499994
C           29.08884005030905       -3.50930441381626        2.34856070921938
H           28.93795112863242       -4.48897095436609        1.89487133930664
H           30.12693420729568       -3.43331138980054        2.66184983224153
H           28.90366241205048       -2.75100095523492        1.58748195749791
O           24.06250166993421       -0.97548863923846        4.73095936201291
H           23.31451636224124       -0.74824903076200        5.29485431204249
H           23.75004994917262       -0.95248819357873        3.81912599293357
C           23.08438402683890       -6.31960576048170        4.43159391884388
H           22.89199653618164       -7.32116207577851        4.80353821405238
H           23.53416048679584       -6.36585882677854        3.44546256206632
H           22.17439833690991       -5.73128382092297        4.39281201398062
S           24.30043852534831       -5.49969713522282        5.52186528849297
H           23.50853833863157       -5.49471233749946        6.59993368303706
