72
 energy: -105.891520270494 gnorm: 0.264872097561 xtb: 6.7.1 (edcfbbe)
Fe          24.15000000000000       -3.29000000000000        5.12200000000000
N           23.71000000000000       -3.53000000000000        3.21000000000000
N           22.21800000000000       -2.96900000000000        5.50100000000000
N           24.62500000000000       -2.75200000000000        7.05300000000000
N           26.12900000000000       -3.28000000000000        4.66500000000000
C           24.62200000000000       -3.81200000000000        2.17900000000000
C           23.86500000000000       -3.97200000000000        0.93200000000000
C           22.57000000000000       -3.77400000000000        1.19400000000000
C           22.44600000000000       -3.47600000000000        2.60700000000000
C           21.14200000000000       -3.06300000000000        4.62300000000000
C           19.89500000000000       -2.95700000000000        5.33700000000000
C           20.18600000000000       -2.84600000000000        6.65400000000000
C           21.64000000000000       -2.88000000000000        6.75500000000000
C           23.69000000000000       -2.71800000000000        8.07000000000000
C           24.41000000000000       -2.55600000000000        9.32300000000000
C           25.72700000000000       -2.51200000000000        9.02900000000000
C           25.87600000000000       -2.66300000000000        7.58000000000000
C           27.16200000000000       -2.94300000000000        5.56300000000000
C           28.41100000000000       -2.98800000000000        4.87300000000000
C           28.09200000000000       -3.38800000000000        3.46900000000000
C           26.66800000000000       -3.53900000000000        3.41900000000000
C           25.99700000000000       -3.89200000000000        2.27100000000000
H           26.56600000000000       -4.24400000000000        1.41100000000000
C           21.26100000000000       -3.22700000000000        3.24200000000000
H           20.35800000000000       -3.15200000000000        2.63600000000000
C           22.31900000000000       -2.79900000000000        7.95200000000000
H           21.73100000000000       -2.79900000000000        8.86900000000000
C           27.06400000000000       -2.64800000000000        6.88900000000000
H           27.97400000000000       -2.38700000000000        7.43000000000000
C           21.39600000000000       -3.80900000000000        0.19100000000000
H           21.75300000000000       -4.20500000000000       -0.78400000000000
H           21.00100000000000       -2.78200000000000        0.03900000000000
H           20.59200000000000       -4.47200000000000        0.57700000000000
C           24.46400000000000       -4.34000000000000       -0.43800000000000
H           24.30800000000000       -5.42300000000000       -0.63200000000000
H           25.55400000000000       -4.12700000000000       -0.44000000000000
H           23.96099999999999       -3.75500000000000       -1.23700000000000
C           18.55200000000000       -2.99500000000000        4.57800000000000
H           18.37800000000000       -4.01900000000000        4.18300000000000
H           18.58100000000000       -2.28100000000000        3.72700000000000
H           17.72300000000000       -2.72900000000000        5.26800000000000
C           19.27500000000000       -2.66700000000000        7.88400000000000
H           19.59800000000000       -2.06600000000000        8.74700000000000
C           18.11000000000000       -3.22900000000000        7.91000000000000
H           17.76300000000000       -3.83500000000000        7.06000000000000
H           17.45100000000000       -3.10800000000000        8.78300000000000
C           23.69600000000000       -2.46500000000000       10.69800000000000
H           23.42300000000000       -3.48500000000000       11.04300000000000
H           22.77000000000000       -1.85800000000000       10.60100000000000
H           24.37700000000000       -2.00300000000000       11.44400000000000
C           26.93400000000000       -2.30900000000000        9.96500000000000
H           27.77600000000000       -1.68400000000000        9.63400000000000
C           27.01500000000000       -2.86000000000000       11.17600000000000
H           26.20100000000000       -3.49400000000000       11.55600000000000
H           27.89700000000000       -2.68700000000000       11.81000000000000
C           29.82400000000000       -2.68600000000000        5.45600000000000
H           30.04000000000000       -3.38900000000000        6.28900000000000
H           29.85500000000000       -1.64600000000000        5.84600000000000
H           30.59300000000000       -2.81800000000000        4.66500000000000
C           29.06800000000000       -3.57100000000000        2.29300000000000
H           29.28500000000000       -4.65200000000000        2.15600000000000
H           30.01800000000000       -3.03700000000000        2.50700000000000
H           28.61100000000000       -3.17500000000000        1.36100000000000
O           24.10500000000000       -1.11600000000000        4.69200000000000
H           23.25200000000000       -0.80500000000000        4.99400000000000
H           24.74200000000000       -0.62200000000000        4.31600000000000
C           23.87700000000000       -6.61800000000000        4.41700000000000
H           23.21900000000000       -7.47900000000000        4.66200000000000
H           24.87300000000000       -7.01800000000000        4.13200000000000
H           23.43700000000000       -6.08700000000000        3.54700000000000
S           24.03300000000000       -5.50700000000000        5.80200000000000
H           22.78700000000000       -5.06200000000000        5.73400000000000
72
 energy: -105.948415729762 gnorm: 0.108636465307 xtb: 6.7.1 (edcfbbe)
Fe          24.16115174117696       -3.22549222761976        5.10437659041107
N           23.71107119656288       -3.54120233112686        3.19289866812986
N           22.20034914819025       -3.00629496604238        5.51257707833400
N           24.61921922649590       -2.78421506817889        7.05307358156962
N           26.13223831400881       -3.27645693295277        4.67096562508213
C           24.60724860974013       -3.82264574947016        2.17759089966074
C           23.87454424324623       -3.98286044013575        0.92324573155153
C           22.56626970834764       -3.76874212901503        1.18659057438821
C           22.46115153464965       -3.48310263114586        2.60440906280999
C           21.14286677256554       -3.06005060855817        4.63087936672789
C           19.88840019291687       -2.95254919512142        5.33426733170565
C           20.18580161658330       -2.83461414946833        6.66413486539202
C           21.63627240753205       -2.87136341853324        6.75751262214133
C           23.71025674690410       -2.72370841770975        8.07674135417798
C           24.41551350642664       -2.55756605661806        9.33748858355704
C           25.74417986167022       -2.49906403944110        9.04184075030892
C           25.86136231202691       -2.64958149580445        7.58892871115980
C           27.16797199442959       -2.94995046457839        5.53020306137044
C           28.42076489411455       -2.99546419229468        4.82853862114358
C           28.11500078431995       -3.38015978604392        3.50092835469826
C           26.68608369404388       -3.54280418905650        3.44980792560027
C           25.98569295156715       -3.89165155234249        2.29570083457601
H           26.55500267845857       -4.21772470163678        1.43071801219782
C           21.27271194352889       -3.22628995305927        3.25386806429823
H           20.37297068663291       -3.16633020893550        2.65044192090594
C           22.33236258224253       -2.78535612059024        7.95060115723925
H           21.74598645508638       -2.80850801895392        8.86131113183300
C           27.05120065561934       -2.64835543393196        6.87783741372448
H           27.95972549092853       -2.40561337832477        7.41986595379890
C           21.41017654347368       -3.80841945297905        0.20628583779974
H           21.74777942973616       -4.19826537460409       -0.75977013591161
H           21.00666239016389       -2.80127625144179        0.04831803091916
H           20.60753845546810       -4.45701460520981        0.57509138704577
C           24.46555481334368       -4.33804930637522       -0.42255872862709
H           24.31314078003920       -5.40512151285877       -0.62739389482043
H           25.53788493082792       -4.12913052864883       -0.44464735025041
H           23.97620713238249       -3.76423862800530       -1.21734705425203
C           18.56592576444120       -2.99234000908558        4.59406630427763
H           18.38442830006574       -3.99952069161590        4.19596895971599
H           18.58167378286715       -2.29337822125717        3.74972014014955
H           17.73781079042725       -2.72511401460273        5.25590212439330
C           19.29087765930190       -2.67027007465440        7.85138858702949
H           19.62813193931524       -2.07506341771150        8.70056514305492
C           18.10016800571217       -3.23710495347852        7.90274600650865
H           17.74534955852801       -3.84724006397851        7.08292950894328
H           17.45172705821084       -3.11577781614341        8.76574737188288
C           23.71150751686439       -2.46519428925223       10.68001688988709
H           23.43218280047577       -3.46675065968607       11.03110778374481
H           22.79602194587782       -1.86779480186007       10.59848313255841
H           24.36818806685189       -2.00717830870877       11.42589313245950
C           26.91041204136904       -2.31379403404967        9.95849283141489
H           27.74022239913920       -1.69685219040158        9.61223251398021
C           27.00278814453653       -2.85707866754117       11.16716774002956
H           26.21713317348038       -3.49283776796747       11.55611500824458
H           27.87383742400258       -2.69104258261646       11.79590418576529
C           29.78989857172758       -2.69573978146933        5.43242582730665
H           30.01994648425794       -3.37801378128609        6.26247325217519
H           29.84077631442096       -1.67129956247125        5.82642790007509
H           30.57166143455432       -2.81419012015931        4.67602487752834
C           29.05527934986187       -3.56606135017534        2.32613900911665
H           29.27842069121999       -4.63031106243301        2.16749912800017
H           30.00037035976122       -3.04444565035984        2.50526859595312
H           28.61766219502030       -3.17802793132237        1.39675516929244
O           24.09536414620021       -1.11673155224467        4.69632838202969
H           23.25076138863653       -0.78043455105924        4.98939539903666
H           24.75682033416675       -0.57962832636981        4.30242762959668
C           23.87252702946854       -6.62723673716670        4.40084293879622
H           23.22729566499193       -7.47396962218192        4.66281985593212
H           24.86346271415761       -7.00788059305803        4.13577799754989
H           23.44745985699824       -6.09367678277537        3.54590892778375
S           24.03110450008783       -5.50390760592890        5.79785539477104
H           22.76648616754957       -5.09587890811432        5.75586041061917
72
 energy: -105.965245531423 gnorm: 0.036168920508 xtb: 6.7.1 (edcfbbe)
Fe          24.17140715653904       -3.20331959498216        5.10523669034703
N           23.71593951777507       -3.53731984520774        3.18234505198319
N           22.19083623130026       -3.01235359505897        5.52161912510399
N           24.61387569961953       -2.79129015448637        7.04740118629408
N           26.13054555939026       -3.25588136958972        4.67503037820029
C           24.59586483064168       -3.82637384059628        2.18222160087319
C           23.88481316788008       -3.99258961167964        0.92405402345221
C           22.56810394349827       -3.76628521779088        1.18847833838335
C           22.47920712025383       -3.48488086533563        2.60728818536592
C           21.15099393869752       -3.05959006845364        4.63916664366849
C           19.88925893176038       -2.95031397562251        5.32947011975654
C           20.18773345415821       -2.83043637448744        6.66767076977435
C           21.63601429036522       -2.87181195745275        6.75818418092587
C           23.72610656292451       -2.74032976615811        8.07635580829193
C           24.41780242457568       -2.56465108351932        9.33904746865976
C           25.75415741968417       -2.49042445385929        9.04075576433594
C           25.84880633594076       -2.63657341887712        7.58845312159514
C           27.16215589297188       -2.94688882712862        5.50888138877457
C           28.42131562528056       -3.00354999912520        4.79576823327809
C           28.12833221121555       -3.37436543333904        3.52910381166487
C           26.69059786476006       -3.53588480076818        3.47154973810949
C           25.97423468651608       -3.88317791536229        2.32219126803035
H           26.54635404485352       -4.18150300551075        1.45325730305805
C           21.28870153857874       -3.23339669905902        3.26793695317664
H           20.39155729992041       -3.19024482262920        2.66660988624594
C           22.34572122897215       -2.80279932057473        7.94772749715355
H           21.75938933724430       -2.76561866401273        8.85354757978850
C           27.03523119924290       -2.65131035540602        6.86565451446099
H           27.94507401109174       -2.43354932956914        7.40858854604123
C           21.42621584513257       -3.80662098985096        0.22602705198246
H           21.75271936635736       -4.19328427928941       -0.73559308383433
H           21.01432110702824       -2.81040470755932        0.06652914935716
H           20.62471040747467       -4.44679738560004        0.58895898281487
C           24.47021809477662       -4.33744605207496       -0.40422169531173
H           24.32183413595147       -5.39605869540699       -0.61928431734417
H           25.53331807450290       -4.12901353750057       -0.43929268118322
H           23.98636513952569       -3.76794823217575       -1.19529339709132
C           18.58070184402044       -2.98479092981625        4.61133283603185
H           18.39345029178968       -3.98457455207397        4.21609929364657
H           18.59033415622077       -2.29595733428412        3.76801601133465
H           17.75684346066912       -2.71350829176372        5.26194475895504
C           19.30290184827783       -2.68187284719217        7.80876267623101
H           19.65925307922459       -2.08933949296317        8.64366884542299
C           18.09848843115855       -3.24399712679029        7.89149096465222
H           17.72709586100684       -3.86757005627576        7.10138507692362
H           17.46389020200781       -3.11526731843987        8.75150102445747
C           23.73019232677537       -2.46617106091594       10.65926796578087
H           23.44620315661913       -3.45693513782769       11.01639670229691
H           22.82126066583058       -1.87214165146171       10.58431398453961
H           24.37648815355698       -2.00917986491001       11.40319870549378
C           26.88211948176706       -2.31880857139741        9.93944580530183
H           27.70301597609231       -1.70960127049988        9.57646672904719
C           26.98543040335328       -2.85404399994098       11.15146688284920
H           26.22310455068070       -3.49530459953533       11.55425926983857
H           27.84895124144847       -2.68862225375523       11.77569580480149
C           29.75686958197135       -2.70564547339756        5.40496568890820
H           29.97846665083921       -3.38068352734194        6.23325271503878
H           29.80372968137945       -1.68911817488067        5.80007246963916
H           30.54956421470953       -2.81538984355707        4.66956396542676
C           29.04523591052535       -3.56234641318183        2.36032492418001
H           29.26337868014620       -4.61892278914552        2.19260000872254
H           29.98914815147545       -3.04832238076913        2.52062849767618
H           28.60770571293853       -3.17268833727002        1.44097470396918
O           24.09301981610474       -1.12050682425509        4.69980916027755
H           23.25944741720747       -0.73808825136943        4.97737097570128
H           24.75263657279337       -0.55108946659654        4.30208420662472
C           23.87071421728196       -6.63951101612403        4.37890730233101
H           23.23332849175334       -7.47329503218828        4.65791107490012
H           24.86233615972252       -7.00186843602770        4.13340024636485
H           23.45544011985844       -6.09856289174877        3.53732770994022
S           24.03319244687160       -5.51475297682355        5.79711232848924
H           22.74822734752013       -5.14823356037873        5.79755549802200
72
 energy: -105.969499856791 gnorm: 0.021735025105 xtb: 6.7.1 (edcfbbe)
Fe          24.17782890019927       -3.18083755488346        5.10576300713027
N           23.72109716202633       -3.53674237347805        3.18418020010559
N           22.19417200058628       -3.02062754364071        5.52540350979789
N           24.61007729767702       -2.79368897105447        7.04027473614744
N           26.12620107098789       -3.24268582946723        4.67430934897985
C           24.59652597075256       -3.82778775437495        2.18605920350072
C           23.89125033847433       -3.99824858286477        0.93084685812868
C           22.57492197411202       -3.77178583753877        1.19671339157839
C           22.48721543347002       -3.49004982436649        2.61247518616671
C           21.16009361097627       -3.06780771423100        4.64057883142275
C           19.89772625404342       -2.95723075299534        5.32427751422559
C           20.19180695233560       -2.84112113041217        6.66135032536670
C           21.63843117774123       -2.86920714571934        6.75735397643111
C           23.72480937490650       -2.74072491500030        8.06930411146172
C           24.41517792134879       -2.57492261716367        9.32822422068342
C           25.74935679390810       -2.49690628927057        9.02761027134254
C           25.84254524825693       -2.63615164439464        7.58048658164868
C           27.15229117409258       -2.93866549250325        5.51022492541115
C           28.41455138644750       -3.00091911240246        4.80004043202620
C           28.12132300355987       -3.37784946282502        3.52758261927312
C           26.68173792069308       -3.52982220991331        3.47071063868768
C           25.97209527672130       -3.87366285271330        2.32694988157017
H           26.54855144830858       -4.14896828640418        1.45487668529249
C           21.29750709880385       -3.24563887059719        3.27310230028196
H           20.39891167226484       -3.22282293075214        2.67459838862684
C           22.34612462676330       -2.79326282544168        7.94479841065340
H           21.76418410361731       -2.75167785604563        8.85238506586422
C           27.02710463004562       -2.65238949638073        6.86280661974915
H           27.93968289746644       -2.45952018431041        7.40968938668923
C           21.43121046656132       -3.80762107607874        0.24221419501605
H           21.75597130874768       -4.19237543053136       -0.72113959652372
H           21.01858847862047       -2.80963690365377        0.09053611727083
H           20.63211449745758       -4.44815771599462        0.61182269540403
C           24.48205849897446       -4.33979737358107       -0.39403909914285
H           24.33815224982441       -5.39916316726564       -0.61248631449786
H           25.54568162755613       -4.12720553658592       -0.42725852792153
H           23.99653858191119       -3.76764919667768       -1.18286304265610
C           18.58669784525623       -2.97488893104176        4.61904467085920
H           18.38497317343725       -3.97593927347885        4.23303024708126
H           18.59958556835548       -2.28882605434330        3.77280255057905
H           17.77488877600069       -2.68831803320660        5.28006995242315
C           19.30190068792451       -2.69618479991529        7.79008889494959
H           19.67076505472867       -2.09593164432912        8.61339992718207
C           18.09700119493296       -3.25407654378647        7.88826192059449
H           17.71414640712300       -3.90004408388184        7.11722829392457
H           17.46889992844186       -3.10876105481819        8.75002895258636
C           23.74085500927698       -2.46684622476176       10.64982413333411
H           23.45524774919564       -3.45563245143949       11.01251470956058
H           22.83582209414310       -1.86617413931990       10.57424216327841
H           24.39911303888970       -2.00823618344921       11.38330668228432
C           26.87218218420001       -2.32179942886303        9.92137333236148
H           27.69060590217341       -1.71783757727251        9.54502201580015
C           26.97525540642393       -2.84821993935087       11.13767132060692
H           26.22005766408006       -3.49726266847552       11.54529816840115
H           27.83763481720373       -2.67608595499156       11.75968212403427
C           29.74396840888692       -2.70538502916600        5.40285918697741
H           29.95078586911211       -3.38718614183800        6.22776230999327
H           29.77553326746777       -1.68739496278537        5.79224536353252
H           30.53435171870392       -2.81565012218464        4.66477941713586
C           29.04084369073135       -3.56586678911448        2.36902486339992
H           29.24980174171510       -4.62410925305268        2.20668335011199
H           29.98528896388027       -3.05485220467671        2.53818273744461
H           28.59802901322189       -3.16566633631423        1.45836117064239
O           24.09734322773466       -1.08420127534077        4.69739310954768
H           23.27054707040970       -0.67219952368251        4.96012904255943
H           24.75105857385399       -0.50613343494924        4.30120563642131
C           23.87460652843876       -6.64307388301735        4.36073811284126
H           23.24798149951004       -7.48319602503223        4.64420674345721
H           24.87298571679666       -6.99024021132376        4.11834374120994
H           23.45413611595560       -6.10380323513442        3.52060051715211
S           24.02947913383918       -5.51696336746082        5.78696913061273
H           22.70600852771505       -5.25068075668708        5.86786245192654
72
 energy: -105.971800056778 gnorm: 0.016394555237 xtb: 6.7.1 (edcfbbe)
Fe          24.17341670168454       -3.18721267649669        5.11285839389093
N           23.72712526193524       -3.53201872879604        3.18730187255561
N           22.19913112191566       -3.02105631957180        5.52787179147163
N           24.60306369518146       -2.79305899227232        7.02662602392721
N           26.11127507941618       -3.22897832953557        4.67400914165576
C           24.59925984044055       -3.82263455171169        2.18782740131596
C           23.89795631350044       -4.00172929590511        0.93670570575723
C           22.58206060325358       -3.77914052341514        1.20447438585171
C           22.49435228590916       -3.49508787653400        2.61692314068410
C           21.16988382395626       -3.07388532217569        4.64044334263332
C           19.90659358982425       -2.96498616175099        5.31803098666887
C           20.19447943913921       -2.85070037466471        6.65374762312978
C           21.63965389993168       -2.86971858773263        6.75561646922639
C           23.72038079860875       -2.74048242338390        8.05866435463968
C           24.41156925483601       -2.58203203682843        9.31307613931817
C           25.74356223452061       -2.50421473129177        9.00966737666811
C           25.83435686935934       -2.63736350330388        7.56773330270924
C           27.13758026737589       -2.93223363993093        5.50964624528110
C           28.40126235056513       -3.00046242141981        4.80393199355468
C           28.10839501031619       -3.37725400341485        3.52932354652622
C           26.66861993571936       -3.51801421384170        3.47042118485294
C           25.97267758527409       -3.85599785564198        2.32777937676483
H           26.55487152561349       -4.11218504571144        1.45541027300829
C           21.30439686741279       -3.26226782529590        3.27675745151243
H           20.40348739570144       -3.26207056331673        2.68222975182062
C           22.34330842749327       -2.78591116473862        7.94177842084560
H           21.76719311207928       -2.73619140413227        8.85256277357207
C           27.01925291273330       -2.65861152121908        6.85858825938050
H           27.93381400278471       -2.48834006702604        7.40836869177589
C           21.43275360981210       -3.81218222568000        0.25865404423251
H           21.75107699779440       -4.19165767039714       -0.70918665262198
H           21.01926246416800       -2.81208555095079        0.11873000840502
H           20.63713736757960       -4.45447429004913        0.63472714205623
C           24.49695687172455       -4.34273368551216       -0.38460915957534
H           24.36203029505397       -5.40372111656777       -0.60351933527882
H           25.56060953889728       -4.12386701389373       -0.41113996949576
H           24.01216134261907       -3.77190101242050       -1.17546040492093
C           18.58984432107352       -2.96291372006411        4.62646883479499
H           18.35797887378416       -3.96318479333548        4.25270311626858
H           18.60710778862538       -2.28249078315778        3.77513603805721
H           17.79728332780107       -2.65111127805486        5.30246192504666
C           19.29753040632187       -2.70916276218686        7.77651368136218
H           19.67159223338397       -2.09559867425693        8.58797453093605
C           18.09677239752935       -3.26892215227684        7.88887585691284
H           17.70010793135921       -3.92769376094380        7.13363647711234
H           17.47345103958527       -3.10473993746472        8.75138075777732
C           23.75143021116915       -2.46494188612430       10.64038183280680
H           23.46397431723937       -3.44960524703906       11.01360493396151
H           22.85035488606615       -1.85681303413480       10.57066972397194
H           24.42579919696407       -2.00606388595853       11.36026135995527
C           26.86840229159169       -2.32895693851705        9.89934352421564
H           27.68255074869805       -1.72614929450228        9.51298291558523
C           26.96942790634893       -2.84589554175249       11.11962109447984
H           26.21332349526708       -3.48953995655654       11.53512642700371
H           27.82824706528492       -2.66094574382871       11.74263990370849
C           29.72831235676433       -2.70649076310385        5.40724845150902
H           29.93176828613374       -3.39079259067328        6.22976609002006
H           29.75458324591895       -1.68874512818344        5.79556436830771
H           30.51915552622871       -2.81515558510677        4.66923053333169
C           29.03355265133600       -3.57181378846201        2.37937479765479
H           29.23225532001850       -4.63153449628219        2.21635943979509
H           29.98229156536575       -3.07112751531892        2.55869975201219
H           28.59911186441086       -3.16143590748195        1.47009267380147
O           24.10614040310348       -1.05186937324184        4.70269569777854
H           23.28902895112261       -0.60028322355474        4.94002916023116
H           24.75084394034232       -0.46521347262110        4.30388306185083
C           23.87962052658920       -6.64713018314494        4.34032869105916
H           23.26110454806131       -7.49520672838313        4.61416878974352
H           24.88427291354260       -6.97887786196450        4.09995802132515
H           23.45766084507501       -6.10189532015700        3.50357555809949
S           24.02704800192397       -5.54000478881363        5.78986643976774
H           22.69510192183920       -5.33223115682012        5.92280444595573
72
 energy: -105.972710527546 gnorm: 0.012144322472 xtb: 6.7.1 (edcfbbe)
Fe          24.16914308827585       -3.17542965780454        5.11318477972564
N           23.72975744453785       -3.53141443638708        3.18854761793900
N           22.20210024265804       -3.02927513043555        5.52936338225706
N           24.59698164954817       -2.80068367994040        7.02003906036415
N           26.10273836976208       -3.22977414343636        4.67513293914670
C           24.60182388011000       -3.81823528401963        2.18605020020919
C           23.90059223716550       -4.00296837506871        0.93724199556928
C           22.58406023489116       -3.78919381429190        1.20662466815611
C           22.49548242793801       -3.50574914428674        2.61827015430500
C           21.17354310271392       -3.08603168264660        4.64039634903652
C           19.90931514648873       -2.97356892671548        5.31514983734190
C           20.19318078303931       -2.85907009036321        6.65033655246722
C           21.63792080395170       -2.87935035123907        6.75565362400593
C           23.71472539631748       -2.74497269110977        8.05446120517172
C           24.40774693789862       -2.58445100730846        9.30621842553321
C           25.73908747970335       -2.51077154164554        9.00127610245274
C           25.82890725434062       -2.64811238797312        7.56229020629693
C           27.13060182147419       -2.93736968449296        5.51129889089564
C           28.39387134139431       -3.00388083691962        4.80801254853447