72
 energy: -105.980105046437 gnorm: 0.000068514252 xtb: 6.7.1 (edcfbbe)
Fe          48.29299234554244       46.24582652939922        9.07524176897953
N           47.58213132927717       44.39061215165739        9.00109059567193
N           50.17573618415961       45.52262035231401        9.06903253862409
N           49.02458383290813       48.11257648396612        9.26856391760879
N           46.44288664079505       46.96998600961869        9.11470835993460
C           46.27805788756501       44.02375017448043        8.94015684477083
C           46.15067555263560       42.58191602662851        8.93429787713114
C           47.41417143363300       42.08737846734125        9.00552438963812
C           48.29629658722018       43.23451638485229        9.03874614211792
C           50.54746897762319       44.21154115261922        9.04443136805942
C           51.97997584419979       44.08683565434910        9.00404331100989
C           52.47933686644325       45.36349153134061        9.00340109536506
C           51.33004682056401       46.24330143867671        9.04605526088495
C           50.33676162803737       48.48160959618671        9.24937854513737
C           50.46583102601866       49.90454994782848        9.40894544987177
C           49.19547664999048       50.39520392902116        9.55413020759456
C           48.30966474320435       49.25728171914269        9.42785747692711
C           46.07587864097570       48.27478467166639        9.19630298125914
C           44.63741034401768       48.40866990585905        9.09960314799434
C           44.14731528190200       47.14980782806795        8.95735823862795
C           45.29286577614417       46.26473250876655        8.97295261157218
C           45.20280185013821       44.88966832610993        8.89186904588349
H           44.21769686184826       44.45763526878390        8.80873853284154
C           49.67283412131653       43.13789000644960        9.05851321853865
H           50.10165710470631       42.14815728197533        9.07605536494227
C           51.41303467729421       47.62049110705514        9.12335628923941
H           52.39724971514098       48.06194577430639        9.11433440044479
C           46.93177548886806       49.34521256611661        9.36169063744190
H           46.49746304969069       50.33074848358223        9.41134029008093
C           47.87599941497002       40.67131784165750        9.03844956937786
H           47.02967555182899       39.98921948328461        9.03040958627580
H           48.46144327644907       40.48099274130183        9.93790347089495
H           48.50233528129752       40.45025527188871        8.17342973022648
C           44.85223304035710       41.85466713269594        8.87218302375820
H           44.30434378091282       42.12385033484738        7.96890548523235
H           44.23207109825042       42.10803380781554        9.73199998957999
H           45.01084105261909       40.77916287782796        8.86877521811483
C           52.72475160624901       42.80198646731962        8.90505357437468
H           52.19570432313859       42.09663110729780        8.26582613964244
H           52.84145730708181       42.34352916121346        9.88837617648841
H           53.71449736483336       42.97598646963897        8.48782333117352
C           53.85414337009299       45.80980909960142        8.95039021154913
H           54.02535586693099       46.73521533530222        8.41247320566729
C           54.88744046027508       45.18619796147670        9.50622477089132
H           54.76963126275314       44.29088492301413       10.09133180925082
H           55.89042624475027       45.56866404642290        9.41586094727791
C           51.75688873217295       50.64469158050584        9.46084961970397
H           52.33658862196536       50.46949069773149        8.55410746793952
H           52.35533180539501       50.31651498455171       10.31153370669916
H           51.58078467102087       51.71253335906560        9.56058930229377
C           48.81620917785006       51.77304750219236        9.79133617310403
H           49.41310085586185       52.51368470508055        9.27057242295227
C           47.85007995901753       52.17889326649688       10.60688244691196
H           47.26264989206044       51.48776899885703       11.18757048853402
H           47.62746078297563       53.22443136383632       10.73984989614851
C           43.91139170080371       49.70798989491257        9.15493563893171
H           44.24690382875046       50.36704354472892        8.35426243941136
H           44.09546306869957       50.21019554080520       10.10489124648276
H           42.84004906101370       49.55688062749784        9.04976155369185
C           42.73646785339810       46.69345450760649        8.81596791975769
H           42.60335019624561       46.14574080302918        7.88299643643621
H           42.05465247393532       47.54010459707202        8.81688174544629
H           42.46414995320100       46.03231784104999        9.63889796046175
O           48.36536622347788       46.17183167634303       11.31513175260628
H           48.28094983233832       47.10630495406077       11.53652560551730
H           49.28680605381995       45.92766959195340       11.45935174765538
C           48.69913615161745       44.86485314747058        6.00045232107104
H           49.02500882408998       44.99719033094742        4.97331100013009
H           47.76216207878714       44.31858574503573        6.02947577185132
H           49.44645541917574       44.34310963661478        6.58827346469287
S           48.37012574709693       46.50267614245023        6.74069412937610
H           49.63603947062844       46.92684961932945        6.65976159422040
