78
 energy: -116.057992071173 gnorm: 0.000049172330 xtb: 6.7.1 (edcfbbe)
Fe         -34.06659935138597       -2.27989692304368        2.36431082715187
N          -33.90795024227905       -2.05554241523537        0.39301332988096
N          -35.44969313700744       -0.84333962335387        2.42536827160048
N          -34.17902746610351       -2.46494044125090        4.37003906118877
N          -32.63585953802946       -3.69380949507457        2.32343819095068
C          -33.09390307963861       -2.74826817082393       -0.44672837715983
C          -33.26147325297794       -2.29557937229748       -1.81179688284954
C          -34.19934227048608       -1.31308158428661       -1.77423973210506
C          -34.59226379741759       -1.18095889171845       -0.38732769037542
C          -35.94197404545387       -0.13969550743667        1.37298329757749
C          -36.95195286694429        0.79918913437080        1.81078654679471
C          -37.05819099962055        0.64377089921480        3.15700405219017
C          -36.11086425276758       -0.38768105944147        3.52186931055983
C          -35.02244172790151       -1.80336452751596        5.20408250515389
C          -34.82049599101971       -2.22467096999688        6.57546114055808
C          -33.83674716978124       -3.17846292065496        6.53821274038999
C          -33.45783339536270       -3.31432426964558        5.15627945128790
C          -32.13106087278391       -4.38212252375017        3.38249288828656
C          -31.13539788299897       -5.33963943753306        2.94248261703966
C          -31.07560649871339       -5.22087814017299        1.57842162708098
C          -32.01469959114245       -4.19103595388686        1.21882219486149
C          -32.22050797677790       -3.75044756791772       -0.07720987838967
H          -31.64148169053193       -4.21781510283649       -0.85886653024463
C          -35.54683626325176       -0.28526652732397        0.05684223914951
H          -36.01529027749559        0.35122299353300       -0.67848280889084
C          -35.92108514006482       -0.82608698505254        4.81810339449496
H          -36.51805846047535       -0.36471074970798        5.58963546002214
C          -32.48989707631309       -4.19577182605269        4.70422366051551
H          -31.98365437459950       -4.79506661231320        5.44535244303262
C          -32.51288485615164       -2.84377908598081       -2.97802236860716
H          -32.70321260531790       -3.91167184482594       -3.08918224903914
H          -31.44015974377074       -2.70379381342842       -2.84390374577237
H          -32.81028211046858       -2.34567236221306       -3.89755441650225
C          -34.75419211983237       -0.49157823908013       -2.88720544671706
H          -34.56278151498457        0.56701217951940       -2.71144518209852
H          -35.83268768047804       -0.63073768842792       -2.96921653594165
H          -34.30075396412736       -0.76836338056193       -3.83578928024739
C          -30.27045574715131       -6.02083679271403        0.61502321083504
H          -29.37127426469835       -5.48002578625797        0.31496190792059
H          -30.84835171893749       -6.23742480037981       -0.28210142561058
H          -29.96877730127123       -6.96153578114232        1.07130633066499
C          -30.41045820006137       -6.23613408255739        3.81528727543353
H          -30.95036625373005       -6.57627124553469        4.69166830561902
C          -29.16237277338240       -6.65336583232541        3.62854641480252
H          -28.56133465251790       -6.31233573566702        2.80386123876495
H          -28.68797581671322       -7.33526759714102        4.31467200324857
C          -33.29304977803135       -3.99134733116293        7.66106480639451
H          -32.33770516573160       -3.59183295122283        8.00595025213281
H          -33.13287912884773       -5.02249726726411        7.34922517530320
H          -33.98959288105186       -3.98537777260413        8.49688708711757
C          -35.56053974233470       -1.71827118061006        7.71009917699267
H          -36.59096903392025       -1.44634103533004        7.51235037760776
C          -35.07651621073376       -1.55880203096464        8.93753616851157
H          -34.04887396061197       -1.76630443258743        9.18017603097239
H          -35.69025828786527       -1.18708066470946        9.74125461489618
C          -37.94254837478064        1.35405481307507        4.12362153498463
H          -37.34852189158877        1.87799349911537        4.87272590358323
H          -38.59139878358140        0.64697082974088        4.64125803253335
H          -38.56809567001631        2.08208050379469        3.61293525260812
C          -37.68684356085829        1.72690336304348        0.90484243880518
H          -36.99087957321052        2.39222838637927        0.39378860333181
H          -38.39331696915503        2.33518249201576        1.46423985430954
H          -38.23885788105734        1.16937676498592        0.14741528960829
O          -32.39351547303325       -0.75982103708350        2.75869234191688
H          -32.60612390262011       -0.49593709204413        3.66036936449520
H          -31.63572538575115       -1.35274189540927        2.80778382877345
C          -37.26566731633437       -6.82842008990607        2.75680196263491
H          -37.32160648653799       -7.49426224954308        1.89569027868299
H          -38.27078533903024       -6.70878640303129        3.16103840821297
H          -36.63914693042604       -7.29007416066447        3.51343435720745
N          -37.27372776286596       -4.70344088247459        1.43157791093184
H          -38.11878196750519       -4.90478900730327        0.92269102780291
C          -36.69256716277522       -5.51419071607955        2.37107575508914
C          -36.50901532231669       -3.59406252367599        1.31768436484988
H          -36.72255981708265       -2.78162811080510        0.65380256394367
N          -35.47977001045383       -3.65340924733289        2.12765011661295
C          -35.58017588747670       -4.84187745094269        2.78912389778110
H          -34.85147432949487       -5.13243865947042        3.51673383490052
