78
 energy: -115.953136019944 gnorm: 0.336769937275 xtb: 6.7.1 (edcfbbe)
Fe         -11.52200000000000       -2.66200000000000       -1.48400000000000
N          -12.09800000000000       -0.96400000000000       -2.43700000000000
N           -9.72300000000000       -2.64700000000000       -2.55000000000000
N          -10.84300000000000       -4.22600000000000       -0.36300000000000
N          -13.19100000000000       -2.55300000000000       -0.23900000000000
C          -13.19200000000000       -0.23000000000000       -2.16300000000000
C          -13.25100000000000        0.85300000000000       -3.01700000000000
C          -12.05100000000000        0.87200000000000       -3.73200000000000
C          -11.43600000000000       -0.32400000000000       -3.41500000000000
C           -9.37900000000000       -1.79300000000000       -3.51100000000000
C           -8.30100000000000       -2.28100000000000       -4.25500000000000
C           -7.86800000000000       -3.40600000000000       -3.56100000000000
C           -8.83800000000000       -3.63900000000000       -2.58500000000000
C           -9.73100000000000       -4.94000000000000       -0.60300000000000
C           -9.53800000000000       -5.94200000000000        0.34400000000000
C          -10.65800000000000       -5.86000000000000        1.18100000000000
C          -11.44400000000000       -4.82900000000000        0.68000000000000
C          -13.58600000000000       -3.50600000000000        0.61300000000000
C          -14.86600000000000       -3.25200000000000        1.09100000000000
C          -15.29900000000000       -2.11200000000000        0.42300000000000
C          -14.24800000000000       -1.74600000000000       -0.42800000000000
C          -14.21200000000000       -0.61000000000000       -1.25300000000000
H          -15.06900000000000        0.05900000000000       -1.18600000000000
C          -10.20700000000000       -0.73700000000000       -3.94800000000000
H           -9.84600000000000       -0.17200000000000       -4.80700000000000
C           -8.84900000000000       -4.69700000000000       -1.67700000000000
H           -8.06600000000000       -5.44100000000000       -1.81700000000000
C          -12.70900000000000       -4.44400000000000        1.14900000000000
H          -13.05000000000000       -4.94600000000000        2.05300000000000
C          -11.63100000000000        1.81200000000000       -4.85200000000000
H          -12.36300000000000        2.64400000000000       -4.93200000000000
H          -11.60600000000000        1.26000000000000       -5.81600000000000
H          -10.62800000000000        2.23500000000000       -4.63100000000000
C          -14.33500000000000        1.94000000000000       -2.98100000000000
H          -14.57500000000000        2.19000000000000       -1.92500000000000
H          -15.25500000000000        1.56900000000000       -3.48100000000000
H          -13.96700000000000        2.85500000000000       -3.49300000000000
C           -7.58900000000000       -1.46500000000000       -5.32700000000000
H           -7.64200000000000       -0.38600000000000       -5.06800000000000
H           -8.08200000000000       -1.62400000000000       -6.31000000000000
H           -6.52200000000000       -1.77000000000000       -5.38400000000000
C           -6.81900000000000       -4.28800000000000       -3.86000000000000
H           -6.43300000000000       -4.91600000000000       -3.04500000000000
C           -6.18200000000000       -4.46500000000000       -5.13700000000000
H           -6.50600000000000       -3.87700000000000       -6.00900000000000
H           -5.36400000000000       -5.19000000000000       -5.25700000000000
C           -8.29500000000000       -6.83900000000000        0.45800000000000
H           -7.38100000000000       -6.20800000000000        0.45300000000000
H           -8.25600000000000       -7.53800000000000       -0.40500000000000
H           -8.33200000000000       -7.41200000000000        1.40900000000000
C          -10.87800000000000       -6.47100000000000        2.43300000000000
H          -11.15100000000000       -5.82500000000000        3.27900000000000
C          -10.77900000000000       -7.88900000000000        2.72400000000000
H          -10.51000000000000       -8.60400000000000        1.93200000000000
H          -10.97100000000000       -8.26500000000000        3.74000000000000
C          -15.62000000000000       -4.05000000000000        2.13400000000000
H          -15.26800000000000       -3.76200000000000        3.14800000000000
H          -15.43500000000000       -5.13500000000000        1.98300000000000
H          -16.70700000000000       -3.83600000000000        2.05600000000000
C          -16.69800000000000       -1.46500000000000        0.50300000000000
H          -17.13900000000000       -1.65800000000000        1.50400000000000
H          -17.36000000000000       -1.90500000000000       -0.27300000000000
H          -16.61300000000000       -0.36800000000000        0.35200000000000
O          -10.63200000000000       -1.13400000000000       -0.10300000000000
H          -10.85400000000000       -0.28100000000000       -0.47500000000000
H          -10.16600000000000       -1.27800000000000        0.64100000000000
C          -14.86500000000000       -6.43600000000000       -4.05400000000000
H          -14.42100000000000       -7.42200000000000       -4.30900000000000
H          -15.43500000000000       -6.06000000000000       -4.93000000000000
H          -15.54500000000000       -6.56100000000000       -3.18400000000000
N          -12.76800000000000       -5.11600000000000       -4.57800000000000
H          -12.67400000000000       -5.47600000000000       -5.50600000000000
C          -13.77000000000000       -5.46800000000000       -3.70700000000000
C          -11.96300000000000       -4.23900000000000       -4.00000000000000
H          -11.08700000000000       -3.79700000000000       -4.47300000000000
N          -12.41100000000000       -4.00800000000000       -2.77600000000000
C          -13.53600000000000       -4.77300000000000       -2.56700000000000
H          -14.06500000000000       -4.75000000000000       -1.62300000000000
78
 energy: -116.027612299710 gnorm: 0.134722593937 xtb: 6.7.1 (edcfbbe)
Fe         -11.51111307304450       -2.65863092881827       -1.46313455297924
N          -12.09786824479587       -0.98769303078062       -2.42963798490080
N           -9.75285745913187       -2.65425708085281       -2.54601344082267
N          -10.85155727208929       -4.22870314720127       -0.38577551187948
N          -13.19071829498040       -2.57099324822267       -0.28225781512714
C          -13.20973263934127       -0.25200771186521       -2.16798476561316
C          -13.24935612410991        0.88685898314426       -3.01066089699038
C          -12.08426034002541        0.87375558016060       -3.75704697360909
C          -11.42017715035029       -0.32565351084316       -3.40119488428753
C           -9.41857998997234       -1.80336790854144       -3.53777193079082
C           -8.27452199495646       -2.26145187114020       -4.24791978304062
C           -7.86533906373286       -3.41732518329564       -3.59417882945930
C           -8.83486844833624       -3.64013851743312       -2.56340318897279
C           -9.72027656058762       -4.93596925912093       -0.61732521323863
C           -9.53511874155716       -5.95617908042222        0.35144136667064
C          -10.63700106503302       -5.87218128500734        1.19586218522739
C          -11.44313476264337       -4.81092723792583        0.68667465607628
C          -13.56388614357098       -3.49309457988453        0.63445458674216
C          -14.88383042865578       -3.24185460691973        1.09583440338603
C          -15.31697430742443       -2.11702636144225        0.42391619433291
C          -14.24176766652306       -1.72979605829003       -0.43247936712988
C          -14.21511322855006       -0.60857644441299       -1.25851358793739
H          -15.06732330546897        0.05687901704502       -1.19422623836481
C          -10.20800386822822       -0.73043591313856       -3.94994043786653
H           -9.84624509016027       -0.16472537912439       -4.79967588464565
C           -8.83630373222272       -4.70208062559462       -1.67195112854917
H           -8.05948450283353       -5.44261379928242       -1.81000914571480
C          -12.70115158713193       -4.44768060716283        1.16301800331641
H          -13.05263919199657       -4.96667894020042        2.04718565726037
C          -11.64267767980745        1.81164494952842       -4.84620893348374
H          -12.35288346768140        2.63871535414145       -4.93675116343952
H          -11.60503863001137        1.27421527139204       -5.80232140581822
H          -10.64723670036087        2.22539804821699       -4.63519997518065
C          -14.32652648737991        1.94172670239943       -2.97997891837942
H          -14.57297496927277        2.19178000213929       -1.94142450322524
H          -15.23707106534168        1.57745611638308       -3.47376973930339
H          -13.97887468602690        2.84615601049603       -3.48770016513424
C           -7.58483448502964       -1.46808220313339       -5.32112555634249
H           -7.63807328069765       -0.40086838858442       -5.07573182554781
H           -8.06859597894217       -1.62275318908591       -6.29551510383390
H           -6.53340788300633       -1.76436747963405       -5.38756140639992
C           -6.79190231914056       -4.29896549403140       -3.89779249515889
H           -6.42929245565907       -4.91697753655373       -3.07474319582950
C           -6.18876068133888       -4.45733099381633       -5.10949890663075
H           -6.50750451448080       -3.89555729735233       -5.98165297912055
H           -5.38403732089924       -5.17244968367183       -5.24298777358824
C           -8.31058659759162       -6.83390844471626        0.46093548333091
H           -7.40123788632492       -6.21787274950790        0.45235430682321
H           -8.25929219503170       -7.52917646534932       -0.38716798740590
H           -8.33613887432033       -7.40494162929509        1.39484063086642
C          -10.87304354307348       -6.51993404669930        2.45149903350283
H          -11.15903701418019       -5.86041522304644        3.27416517359959
C          -10.77368749961791       -7.85332457639243        2.71769496694218
H          -10.51900453340324       -8.57169937393365        1.94374182880820
H          -10.96465282958735       -8.24161031035215        3.71401528807737
C          -15.62043806664686       -4.04389868326361        2.12857780465987
H          -15.27641324450196       -3.76798990476956        3.13487484522212
H          -15.44121258035047       -5.11678468390825        1.98669138360036
H          -16.69451877905355       -3.84557121672724        2.06043453629705
C          -16.68429173701352       -1.47117348655039        0.50648886937765
H          -17.13192324458610       -1.65434175988852        1.48931595239198
H          -17.34625129521213       -1.89443907427819       -0.26071779536133
H          -16.61440270193156       -0.38837083792027        0.35359285865009
O          -10.63668426270914       -1.13869104343732       -0.11953887841216
H          -10.84796586554205       -0.27288947212161       -0.46400244426971
H          -10.14814839701129       -1.26996415693884        0.67042987346145
C          -14.85864290401198       -6.43573351002364       -4.05555420112807
H          -14.43147275044496       -7.41395557909587       -4.30834475790855
H          -15.43113569113329       -6.07034377869094       -4.91715748588510
H          -15.53221855861556       -6.55685322153041       -3.20128111426667
N          -12.77789514556899       -5.12518936205551       -4.58427850476017
H          -12.67938413095848       -5.48580366979516       -5.51661393883493
C          -13.77300088290608       -5.47206936045812       -3.70881376489843
C          -11.97169136228132       -4.23561474330127       -3.98859717961004
H          -11.10383325057412       -3.79981906312401       -4.45735975563156
N          -12.40418123024578       -3.99023474036333       -2.76780517666824
C          -13.52275439591329       -4.76128272084055       -2.57260744788653
H          -14.05096166712562       -4.74329456388451       -1.63613384735973
78
 energy: -116.044337193004 gnorm: 0.044505129652 xtb: 6.7.1 (edcfbbe)
Fe         -11.50894951742817       -2.65903969002948       -1.45239334749748
N          -12.10113191519813       -1.00778450723461       -2.42563510740685
N           -9.79018653388990       -2.67331308077899       -2.55343046792585
N          -10.85237002463825       -4.22072290685688       -0.39969959791472
N          -13.18440568270585       -2.58634750372679       -0.31569779249064
C          -13.22324732851836       -0.27403406477599       -2.17377916722403
C          -13.24705253343995        0.90448601793914       -3.00553263264084
C          -12.11505133839393        0.86687519444773       -3.77132996367732
C          -11.41559614104619       -0.33337365521230       -3.39244352243671
C           -9.46059946337710       -1.82168169756065       -3.55999517899203
C           -8.26252569639200       -2.25285344173852       -4.23432695473783
C           -7.87395128809424       -3.42093645000804       -3.61222943607965
C           -8.84382747595202       -3.64666918098254       -2.55419373980006
C           -9.71373704785471       -4.92860119299566       -0.62944378534266
C           -9.53696325341139       -5.95662315764098        0.36149999791342
C          -10.61643889795825       -5.86245943945254        1.20676752165406
C          -11.43859535119811       -4.78720462196699        0.68956147890606
C          -13.53839746527680       -3.48053443032218        0.64932149634040
C          -14.88436947914564       -3.22754963507770        1.10002427738221
C          -15.31853899406017       -2.12223443971536        0.42305068986341
C          -14.23302550198774       -1.72905664992037       -0.44757059651397
C          -14.22108093320556       -0.61590263969426       -1.27284143259469
H          -15.07054838441499        0.04899963987421       -1.20936981197453
C          -10.21482464290671       -0.72835571821816       -3.95258332992581
H           -9.84298032009463       -0.14752326182241       -4.78393380449102
C           -8.82582219316119       -4.70926133208803       -1.67116515084639
H           -8.03948856131070       -5.43847046153353       -1.79455329689392
C          -12.69356267674323       -4.45056835575122        1.17151750371418
H          -13.05700478282087       -4.99507763714317        2.03345714446711
C          -11.65867170682177        1.80701926142800       -4.83744457382487
H          -12.35060936095456        2.63769539478916       -4.93855253525867
H          -11.60742262061519        1.28575487531879       -5.79407345273628
H          -10.66724278427188        2.20935174733780       -4.62407231056072
C          -14.31757382210709        1.94092656034581       -2.97821221383667
H          -14.57212402442315        2.19681722880258       -1.95131222681688
H          -15.22212350183129        1.57931751710753       -3.46897145869572
H          -13.98860494551305        2.84254789087270       -3.48647362197087
C           -7.58396692266580       -1.47472948126606       -5.30906724558970
H           -7.63399718485217       -0.41055714257642       -5.08277992610552
H           -8.05974139794989       -1.63116191033152       -6.27934690548866
H           -6.53961347245357       -1.76246641699441       -5.38604592954809
C           -6.77600700021401       -4.30169484877057       -3.91678969453692
H           -6.43150559299548       -4.91279102756238       -3.08782954081256
C           -6.19903033411926       -4.45691720035022       -5.09310943315483
H           -6.51046139349127       -3.91235364800223       -5.96773191529564
H           -5.38966562267464       -5.15374230661313       -5.23465270114517
C           -8.33104724198965       -6.82897275124333        0.46552034080007
H           -7.42371182230534       -6.22256280407504        0.45256643485602
H           -8.27379972176680       -7.52435040177107       -0.37300365472714
H           -8.34937801822159       -7.39973732592279        1.38978588938486
C          -10.87416254796462       -6.54525675145478        2.46125279761253
H          -11.17146439125985       -5.87881682477678        3.26826441535175
C          -10.77262100357365       -7.82957059141564        2.70633988958252
H          -10.51459522854551       -8.54829591989860        1.94584867046354
H          -10.95675578753663       -8.23142906873282        3.69056521653097
C          -15.61533873058734       -4.03394747432843        2.12234619375200
H          -15.27881224918153       -3.77043540668229        3.12674714108243
H          -15.44066152503010       -5.09930559367076        1.98102063781434
H          -16.68447588365253       -3.84939132514905        2.06197827185303
C          -16.66413818882781       -1.47734611476491        0.50667881212938
H          -17.11724107569995       -1.65379400302582        1.47973085246093
H          -17.33085517450918       -1.88742230493586       -0.25471887016025
H          -16.60228148247576       -0.40262709939133        0.35204858563111
O          -10.62001662726843       -1.15208326809303       -0.12433942355230
H          -10.82867473288269       -0.26650322350004       -0.42604239129072
H          -10.13904345655970       -1.25291432856990        0.69455633312645
C          -14.85241498480441       -6.43488202040215       -4.05306760588008
H          -14.43545477519052       -7.40872847645318       -4.30646054384206
H          -15.42642697828632       -6.07659398649932       -4.90723050764078
H          -15.52268092729725       -6.55254659685983       -3.20821134801399
N          -12.78455432754013       -5.13092948353088       -4.59093272214102
H          -12.68186321827457       -5.49320779671020       -5.52470950691849
C          -13.77357847329827       -5.47296122096996       -3.70819112877934
C          -11.98161106608593       -4.22974105362383       -3.98575109427662
H          -11.11958902590332       -3.79783021880003       -4.45045859181762
N          -12.40156818203192       -3.97459996932465       -2.76990241668791
C          -13.51264441526399       -4.74754737486939       -2.57941410165357
H          -14.04090362360562       -4.73286741410328       -1.64840288250609
78
 energy: -116.048051645809 gnorm: 0.019350520905 xtb: 6.7.1 (edcfbbe)
Fe         -11.50879821937326       -2.65677189737669       -1.45185927117884
N          -12.11096803338711       -1.01939820174652       -2.43285779226386
N           -9.81800901777396       -2.69512726182222       -2.57110453200133
N          -10.85001669091126       -4.21153822399596       -0.40381486351995
N          -13.17761966052672       -2.59131860759219       -0.32701034462947
C          -13.23321915261521       -0.28660489594523       -2.18296080246724
C          -13.25395102089183        0.90343560476672       -3.00828693385781
C          -12.13338129154752        0.85749708650880       -3.78001406898348
C          -11.42621412564529       -0.34394292801595       -3.39888868022972
C           -9.48477555485078       -1.83801762097907       -3.57333583530839
C           -8.26827141310615       -2.25740796756065       -4.23046180483172
C           -7.88595061530464       -3.42547082633107       -3.61670360853315
C           -8.85965587357461       -3.65904570070386       -2.56129520883667
C           -9.71140052931367       -4.92154264093549       -0.63049253481944
C           -9.53843118650800       -5.94670008904268        0.37093978054477
C          -10.60779744333129       -5.84154286739738        1.21675583667531
C          -11.43342318346943       -4.76905742153642        0.69111163931993
C          -13.52522200542893       -3.47502683646244        0.65080133325617
C          -14.87451579843365       -3.21950547989186        1.10289788595480
C          -15.31123005511633       -2.12558178327449        0.41829310384494
C          -14.22866269688146       -1.73811007405049       -0.46245680414951
C          -14.23139316749245       -0.62816828114485       -1.28928648509342
H          -15.08598874337055        0.03039592997890       -1.23306126341553
C          -10.22442335435285       -0.73196077640269       -3.95712828921311
H           -9.83698350313738       -0.12927544948420       -4.76648309599686
C           -8.82128995441088       -4.71298425638307       -1.66968085133001
H           -8.01635248265170       -5.42680213230366       -1.77167736474857
C          -12.68930884036361       -4.44867972840817        1.17288437124298
H          -13.06140932789678       -5.01799299648234        2.01625086597083
C          -11.67136526357716        1.80464517820516       -4.83423627592190
H          -12.35670243476821        2.64101116463636       -4.93506878587913
H          -11.61309977053147        1.29477438564329       -5.79620437481584
H          -10.68057158378400        2.19699839249117       -4.60544026062603
C          -14.32069396167275        1.94118730809376       -2.97759748917727
H          -14.57447140048535        2.20313244597986       -1.95235684725315
H          -15.22462494892829        1.57761750492111       -3.46618260883092
H          -13.99701737706881        2.84247030370459       -3.49060181462499
C           -7.58407363620967       -1.48177357833824       -5.30121354895208
H           -7.63381901770779       -0.41564796517551       -5.08508208660023
H           -8.05460383342825       -1.64640242079898       -6.27183887156582
H           -6.53911901549327       -1.76838722681462       -5.37417361897999
C           -6.77500670341081       -4.30084623286055       -3.91295829324792
H           -6.42815872448323       -4.90339966667939       -3.08128787335245
C           -6.19145230394912       -4.45327374884597       -5.09619106042290
H           -6.52006027762820       -3.93019012016081       -5.97723126515277
H           -5.37610118030842       -5.14244395221083       -5.23675767872779
C           -8.34482546060937       -6.82936183020965        0.47337059395577
H           -7.43410401098880       -6.22998500988195        0.45586215369350
H           -8.29827463625974       -7.52778856723929       -0.36220984602814
H           -8.36807926765582       -7.39739151138708        1.39857626407886
C          -10.87612371552346       -6.53373945473812        2.46768672457682
H          -11.19771145545186       -5.87764272132555        3.27212245732558
C          -10.75715174616087       -7.83399963271415        2.69888265654089
H          -10.49171438698648       -8.54017972992356        1.93108470241054
H          -10.95694900650386       -8.25173758812522        3.67299517847153
C          -15.60597744848138       -4.02651642545858        2.12183848496518
H          -15.27257550564395       -3.76934896765387        3.12812158564996
H          -15.43156648859284       -5.08999045308800        1.97322165132614
H          -16.67557120223172       -3.84525265314485        2.06116735367254
C          -16.64980194191802       -1.47595944160023        0.50320581352229
H          -17.10135544170177       -1.65132319652941        1.47664065702336
H          -17.31864436794857       -1.88113745286312       -0.25814953775638
H          -16.58125606825471       -0.40260291459354        0.34826344625186
O          -10.55975555602970       -1.16266539688902       -0.12337231573743
H          -10.81275781785065       -0.26257890240683       -0.36246246655937
H          -10.13593117965329       -1.24997316639520        0.73636584226170
C          -14.84712502859207       -6.43457022338371       -4.04685858408769
H          -14.43107362575970       -7.40863666392002       -4.29912520649693
H          -15.42437390983260       -6.08154559043003       -4.90055091987312
H          -15.51587619028469       -6.54980505012236       -3.20155465668001
N          -12.78753398747922       -5.12825041506508       -4.59656111271157
H          -12.68360329446895       -5.49611693254487       -5.52851853310475
C          -13.77210102806225       -5.46816079192746       -3.70745544322494
C          -11.98928799712387       -4.21758651834558       -3.99531807587748
H          -11.13059707605128       -3.78445201143627       -4.46161699088634
N          -12.40464104837183       -3.95698406250347       -2.78065990990597
C          -13.51064951633031       -4.73230752059428       -2.58533500263238
H          -14.03840621809387       -4.71563465133442       -1.65530859143439
78
 energy: -116.048362763665 gnorm: 0.060938440847 xtb: 6.7.1 (edcfbbe)
Fe         -11.50831859729110       -2.66003764370742       -1.46201073606330
N          -12.11646821044364       -1.02584774579478       -2.43496674956876
N           -9.84396645182964       -2.71689345196480       -2.58819782526750
N          -10.84650599102735       -4.20250594682792       -0.40788090684176
N          -13.16257597951372       -2.59131052799903       -0.33206054287474
C          -13.23990508486853       -0.29678261363979       -2.19014673451820
C          -13.26307526199200        0.89775434351120       -3.01396820181005
C          -12.15046899875804        0.84707558238077       -3.78852093206776
C          -11.43695765800563       -0.35477371465149       -3.40501508330118
C           -9.50500997895147       -1.85263929268904       -3.58279579330932
C           -8.28063863471145       -2.26536914605393       -4.22822877430965
C           -7.90188763373820       -3.43261648091082       -3.62204087326370
C           -8.87869950242795       -3.67326701837886       -2.57097410257229
C           -9.70821281130574       -4.91428107055858       -0.62931410724817
C           -9.53950261470288       -5.93604096623497        0.38125533500252
C          -10.60215205706579       -5.82014836505514        1.22670452274681
C          -11.42694417623348       -4.75005315817908        0.69169068413012
C          -13.50882988046435       -3.46821240384696        0.64974216588869
C          -14.85821009387337       -3.20981880321548        1.10660834851228
C          -15.29863898822009       -2.12828424841476        0.41166344159241
C          -14.21912623790399       -1.74782276150057       -0.47689746533195
C          -14.24274356086484       -0.64259575170899       -1.30767518717569
H          -15.10930110080717        0.00143134634041       -1.26666946266327
C          -10.23179234459140       -0.73511785997912       -3.95800493475412
H           -9.83022172539694       -0.11423409258604       -4.74639876058001
C           -8.81526840071436       -4.71510273787119       -1.66608289936608
H           -7.99126995548267       -5.41100711999598       -1.74555063007745
C          -12.68526332409201       -4.44749532056364        1.17162920587400
H          -13.06193473546221       -5.03667492500522        1.99751964811236
C          -11.68187107524507        1.80230825373765       -4.83110938741495
H          -12.36430679696718        2.64281491126252       -4.92764203181817
H          -11.61662279894657        1.30541931359111       -5.79995758919666
H          -10.69256920336532        2.18736155486082       -4.58352741948708
C          -14.33020640512891        1.93634544073175       -2.97922004449775
H          -14.57732794550884        2.20612637441545       -1.95350015362511
H          -15.23723433128186        1.57058137472113       -3.46154438245103
H          -14.00948995438903        2.83657249454119       -3.49911203764193
C           -7.58790233659913       -1.49284578031648       -5.29563487931049
H           -7.63718134230409       -0.42436224504759       -5.08813857115853
H           -8.05090945792226       -1.66666305663740       -6.26873235548818
H           -6.54130848056158       -1.78175511343897       -5.35664044860000
C           -6.78006003593381       -4.30180398669803       -3.90899728790108
H           -6.41479293608901       -4.88337582744165       -3.07248980183100
C           -6.19732947680061       -4.45841502398332       -5.09826471150999
H           -6.53245987772050       -3.94293302483665       -5.98023174652435
H           -5.35871484237974       -5.12321814647260       -5.22857074509183
C           -8.35718854863787       -6.83224734872140        0.48354343971628
H           -7.43831455177106       -6.24552811952767        0.45982645912966
H           -8.32805426469776       -7.53661218616998       -0.34841175445300
H           -8.38902371051678       -7.39451179742943        1.41297785676071
C          -10.88689022330973       -6.52230407205260        2.46877587156849
H          -11.23571483021286       -5.88649829496538        3.27575014611069
C          -10.75118821852911       -7.83009904761433        2.68079571361250
H          -10.44302864414233       -8.51239150377684        1.90661354992069
H          -10.95330259263335       -8.26363866203583        3.64710846671593
C          -15.58953131387058       -4.01810783869395        2.12362916990689
H          -15.25758152636143       -3.76884530463929        3.13253383127680
H          -15.41657110466317       -5.08098764614256        1.96484696799183
H          -16.65991118586294       -3.83549111034356        2.06203188049687
C          -16.63221330490350       -1.47052039399334        0.49656281345935
H          -17.08357033371299       -1.64698122248662        1.47052166384696
H          -17.30369485017761       -1.86774344024198       -0.26725152546137
H          -16.55292495866732       -0.39679665673258        0.34582592081780
O          -10.42800153233886       -1.17930360511315       -0.15858038219221
H          -10.82107108956629       -0.26518086390191       -0.26021882058040
H          -10.17711070296660       -1.24877481614200        0.80796921828393
C          -14.84375447541118       -6.43633277648084       -4.03769165994716