78
 energy: -115.986414528693 gnorm: 0.251003079335 xtb: 6.7.1 (edcfbbe)
Fe         -11.60100000000000        2.49700000000000        1.38400000000000
N          -12.21100000000000        0.83500000000000        2.32300000000000
N           -9.81300000000000        2.56300000000000        2.44900000000000
N          -10.92300000000000        4.02800000000000        0.32800000000000
N          -13.27800000000000        2.36500000000000        0.21600000000000
C          -13.37400000000000        0.08100000000000        2.09700000000000
C          -13.32300000000000       -1.10200000000000        2.91700000000000
C          -12.19200000000000       -1.08700000000000        3.65100000000000
C          -11.45000000000000        0.10700000000000        3.25100000000000
C           -9.53500000000000        1.61500000000000        3.46500000000000
C           -8.34800000000000        2.07200000000000        4.13200000000000
C           -7.95600000000000        3.24800000000000        3.53000000000000
C           -8.87300000000000        3.56400000000000        2.49200000000000
C           -9.77100000000000        4.81900000000000        0.55100000000000
C           -9.62800000000000        5.79900000000000       -0.49200000000000
C          -10.69400000000000        5.69300000000000       -1.32300000000000
C          -11.53100000000000        4.64000000000000       -0.78300000000000
C          -13.58500000000000        3.28500000000000       -0.77300000000000
C          -14.95600000000000        3.04800000000000       -1.21600000000000
C          -15.45000000000000        1.95700000000000       -0.43000000000000
C          -14.36600000000000        1.51700000000000        0.36500000000000
C          -14.36200000000000        0.48700000000000        1.27500000000000
H          -15.28900000000000       -0.08200000000000        1.34100000000000
C          -10.23100000000000        0.48400000000000        3.79800000000000
H           -9.79400000000000       -0.17100000000000        4.55100000000000
C           -8.91200000000000        4.57400000000000        1.59700000000000
H           -8.13100000000000        5.32100000000000        1.72500000000000
C          -12.77700000000000        4.26400000000000       -1.30200000000000
H          -13.13200000000000        4.78600000000000       -2.19100000000000
C          -11.68400000000000       -2.12200000000000        4.67100000000000
H          -12.41200000000000       -2.95800000000000        4.74600000000000
H          -11.57900000000000       -1.64500000000000        5.66900000000000
H          -10.70400000000000       -2.52700000000000        4.33900000000000
C          -14.46200000000000       -2.14000000000000        2.86500000000000
H          -14.79700000000000       -2.27100000000000        1.81400000000000
H          -15.32000000000000       -1.78600000000000        3.47500000000000
H          -14.09800000000000       -3.11600000000000        3.25100000000000
C           -7.68200000000000        1.31100000000000        5.27800000000000
H           -7.70500000000000        0.22100000000000        5.06300000000000
H           -8.23100000000000        1.50300000000000        6.22500000000000
H           -6.62400000000000        1.63600000000000        5.37900000000000
C           -6.81300000000000        4.17500000000000        3.84800000000000
H           -6.38900000000000        4.81500000000000        3.06000000000000
C           -6.28400000000000        4.25300000000000        5.06700000000000
H           -6.67500000000000        3.63200000000000        5.88600000000000
H           -5.44900000000000        4.94000000000000        5.27000000000000
C           -8.41000000000000        6.69000000000000       -0.60600000000000
H           -7.49700000000000        6.10100000000000       -0.37400000000000
H           -8.49100000000000        7.53000000000000        0.11700000000000
H           -8.33000000000000        7.08600000000000       -1.64100000000000
C          -10.98500000000000        6.45400000000000       -2.57600000000000
H          -11.44400000000000        5.91300000000000       -3.41600000000000
C          -10.73800000000000        7.74700000000000       -2.77700000000000
H          -10.28000000000000        8.35800000000000       -1.98500000000000
H          -10.98900000000000        8.22100000000000       -3.73800000000000
C          -15.74100000000000        3.88400000000000       -2.21900000000000
H          -15.31600000000000        3.74000000000000       -3.23500000000000
H          -15.67100000000000        4.95900000000000       -1.94800000000000
H          -16.80400000000000        3.56300000000000       -2.22500000000000
C          -16.82800000000000        1.31200000000000       -0.53000000000000
H          -17.20000000000000        1.39200000000000       -1.57400000000000
H          -17.53700000000000        1.83500000000000        0.14600000000000
H          -16.76100000000000        0.23800000000000       -0.25300000000000
O          -10.63900000000000        1.09700000000000        0.08700000000000
H          -10.97900000000000        0.23600000000000        0.33000000000000
H          -10.04400000000000        1.26700000000000       -0.55100000000000
C          -14.87100000000000        6.27100000000000        3.96800000000000
H          -14.41000000000000        7.22500000000000        4.30100000000000
H          -15.48600000000000        5.85900000000000        4.79600000000000
H          -15.51100000000000        6.47000000000000        3.08200000000000
N          -12.85700000000000        4.88800000000000        4.52600000000000
H          -12.78700000000000        5.23100000000000        5.46300000000000
C          -13.79400000000000        5.29600000000000        3.60500000000000
C          -12.07500000000000        3.97300000000000        3.96000000000000
H          -11.24200000000000        3.48700000000000        4.46600000000000
N          -12.47400000000000        3.76000000000000        2.70600000000000
C          -13.54700000000000        4.58900000000000        2.46600000000000
H          -14.03900000000000        4.60000000000000        1.50200000000000
78
 energy: -116.032020076480 gnorm: 0.106763244853 xtb: 6.7.1 (edcfbbe)
Fe         -11.59781758067569        2.50351201232829        1.37657182702576
N          -12.19212635602769        0.82707768838710        2.32641518371642
N           -9.84875159920356        2.54976934164219        2.46742076057708
N          -10.93897318815047        4.05570423151339        0.32085319579731
N          -13.27441532240275        2.38076064292475        0.21751065109196
C          -13.35288086779145        0.09675010094469        2.11359330568463
C          -13.33251652060572       -1.10224011399911        2.91911952251979
C          -12.18546601601421       -1.09194773796521        3.64346310635974
C          -11.46374893241864        0.11556412247854        3.25830438565367
C           -9.52918122738007        1.63595095208516        3.45831558358548
C           -8.33375676954443        2.07794797586450        4.13188079443303
C           -7.94715869365659        3.25654407562560        3.53871955534950
C           -8.89616970258027        3.53356878778338        2.49362588586175
C           -9.78420248787330        4.79993119922079        0.53975917477348
C           -9.62878289480200        5.79665901289613       -0.48851382797007
C          -10.70165104714419        5.68922931836131       -1.32808191879502
C          -11.52820353219368        4.61938039710648       -0.79534615753057
C          -13.60141121047923        3.27332549702638       -0.76797204152770
C          -14.96733382525209        3.03998370125303       -1.20345427897869
C          -15.44125977853761        1.96780747784098       -0.45780574674884
C          -14.36239616961421        1.55887970661065        0.38518730786346
C          -14.36586448384844        0.50024761274151        1.28143515502786
H          -15.28118986401923       -0.08616858198590        1.32561582609721
C          -10.24028726163605        0.49577733718385        3.78957007228041
H           -9.80779853117401       -0.15613208771461        4.54141280694246
C           -8.91275733614030        4.57195481594326        1.58975780002506
H           -8.12627218531682        5.31434329667928        1.71334132268522
C          -12.77380022187335        4.25224476463519       -1.29777043858651
H          -13.13435501105400        4.78950212278456       -2.16882530638726
C          -11.69152885426426       -2.10757700361834        4.65124592157483
H          -12.40011137232700       -2.93736799884151        4.74044688573307
H          -11.57989404954494       -1.64958330108217        5.64111886511419
H          -10.72145501860596       -2.51469049145035        4.34441025694122
C          -14.44577754797353       -2.12908865626482        2.86958657830915
H          -14.78519361347145       -2.26720295608206        1.83727265236144
H          -15.30083688554661       -1.79439655733818        3.46789430927816
H          -14.10493155649442       -3.09669628063325        3.24978409396062
C           -7.68319365034250        1.31927950136318        5.26121516300503
H           -7.70560515203841        0.24173607393746        5.06380078192597
H           -8.21531508123321        1.50096987140242        6.20432779593186
H           -6.63961184338701        1.62393955049889        5.37608419906873
C           -6.81995557918745        4.15247368354475        3.85727121112463
H           -6.42372283115735        4.78609879254400        3.06362604364916
C           -6.28255206333099        4.24974846100684        5.06905370686131
H           -6.66382090907365        3.66255961520799        5.89314876910755
H           -5.46109022329970        4.92859521282431        5.27097146703513
C           -8.42066174123229        6.68202709300336       -0.60457360588689
H           -7.51179749883044        6.11356522583698       -0.37728623512667
H           -8.48650293507425        7.51844303307205        0.10187470395667
H           -8.33419663638190        7.08156134246655       -1.62018304568574
C          -10.98573501426502        6.44508740077374       -2.56076113825199
H          -11.44447032390820        5.89684728338174       -3.38390017356637
C          -10.73263457020062        7.73499393722817       -2.76543366548624
H          -10.29259305979381        8.35570644037476       -1.99409900818605
H          -10.97690029704281        8.21087387601071       -3.71084033340474
C          -15.72893911971097        3.86818334586066       -2.20470565836356
H          -15.31900982688816        3.74072986391930       -3.21475348321208
H          -15.67242887008002        4.93366702996542       -1.95094873395819
H          -16.78150242100897        3.57036837791464       -2.22304411024378
C          -16.80446584539354        1.32511804660548       -0.53822259005091
H          -17.19561511926446        1.38957535281301       -1.55877514075670
H          -17.51625885758918        1.82523443706841        0.13144424423592
H          -16.75814525845820        0.26695395600153       -0.25799249134593
O          -10.65047681207352        1.09098845524513        0.08370063520732
H          -10.96406584978672        0.21674368544814        0.31215933663496
H          -10.01330732766187        1.25210077578770       -0.58768885000180
C          -14.86674710137184        6.27334988433721        3.96694226163755
H          -14.42344746987353        7.21908909911368        4.29835159387851
H          -15.48322034741154        5.87423361136443        4.78049416767422
H          -15.50131456115347        6.46652658868183        3.09905196400308
N          -12.86507795082521        4.89223898648056        4.52705663288123
H          -12.79023232250738        5.23696930041180        5.46840040097673
C          -13.80173999799908        5.29532544506899        3.61066467604178
C          -12.08209903738599        3.96878145590722        3.94801728262594
H          -11.25700841110401        3.48707299240199        4.44474009809762
N          -12.46857313312085        3.75642233217095        2.70388325577037
C          -13.53968349342975        4.58103333073628        2.47783656309472
H          -14.02702394048388        4.59546282733228        1.52022823900240
78
 energy: -116.045477123717 gnorm: 0.029314487910 xtb: 6.7.1 (edcfbbe)
Fe         -11.59310987105223        2.50381260125474        1.37707457079538
N          -12.19058304150601        0.82875982325299        2.34246594522873
N           -9.87826573311230        2.53720231696125        2.47933150961678
N          -10.93858256735133        4.06002015412403        0.30722594130056
N          -13.27566147620220        2.40883541426865        0.23539767343004
C          -13.33762427505624        0.11769349287156        2.12447594227158
C          -13.34162654062809       -1.09305692296587        2.91896091276927
C          -12.18361472586818       -1.08773651065080        3.63773270521159
C          -11.47534747934380        0.12365012703493        3.25989726601678
C           -9.53607932325493        1.65380978832160        3.45345118120595
C           -8.33366342590171        2.08187126152751        4.12881054767856
C           -7.95491298289821        3.26543736154294        3.54024179186714
C           -8.92818562795138        3.51293302800385        2.49043652875845
C           -9.79900406626072        4.77827346092745        0.53561061501425
C           -9.62901544928256        5.78873612033187       -0.48145144276897
C          -10.70395010154505        5.67995105633079       -1.32740091265451
C          -11.52488743281148        4.60314587694113       -0.79329581067171
C          -13.61235024598055        3.27497386092516       -0.75475831132723
C          -14.97112993953241        3.03387894387397       -1.19392309811906
C          -15.42983796594085        1.97806281711264       -0.47078479332619
C          -14.35110120585541        1.59211029178295        0.40969054173275
C          -14.36559062758705        0.51080456080195        1.28355653717526
H          -15.26827298590199       -0.08876661864278        1.30799669301325
C          -10.25172102545384        0.50637564263154        3.78288817933054
H           -9.82288054342770       -0.14020082474808        4.53614854904709
C           -8.91672093613929        4.56840386920384        1.58707423401267
H           -8.11895698926764        5.29528453533971        1.69778646635371
C          -12.77278590162786        4.25069816611890       -1.28336916972582
H          -13.13746754642861        4.79771386713304       -2.14230845965415
C          -11.69717040010318       -2.09104430227016        4.63107945522988
H          -12.39909186906806       -2.91527136170596        4.72405145269064
H          -11.58234829873689       -1.63841815356620        5.61540924417301
H          -10.73073557800311       -2.49826668451584        4.33715818500490
C          -14.43095127805929       -2.11390025812738        2.87437864251187
H          -14.77065814090902       -2.26113057066908        1.85134363993616
H          -15.28588784944354       -1.79118852673222        3.46770926089401
H          -14.09402822650652       -3.07239800377053        3.25833526920197
C           -7.68584466862553        1.32531291815265        5.24073460259670
H           -7.71381407920229        0.25444128916272        5.05040749136698
H           -8.20502011782655        1.50577493191045        6.18387173909033
H           -6.64831113015173        1.62024840500633        5.35845963061600
C           -6.84500261598413        4.13745723802255        3.86279755028749
H           -6.46097482405322        4.75169803457986        3.05684844413641
C           -6.29219303182066        4.25152109116026        5.06830390068844
H           -6.65783017736504        3.69109041293660        5.90740832981443
H           -5.46748827920530        4.91572597957155        5.25857332014622
C           -8.43291340196788        6.67389229823103       -0.60128972066376
H           -7.52575836412664        6.11630385223587       -0.37693488208987
H           -8.49308559992170        7.51015596087866        0.09497082753343
H           -8.35058884820725        7.07274983517060       -1.60870272356219
C          -10.98756465761781        6.42956501945816       -2.53970526384099
H          -11.45491871283113        5.87235893276739       -3.34446522006685
C          -10.72948685639395        7.71788932019648       -2.74739299338400
H          -10.29958730374021        8.34883287177835       -1.99115030874874
H          -10.96228859560099        8.19337997568121       -3.68604637623185
C          -15.71513558361924        3.85360057314543       -2.19626097226107
H          -15.30568903724613        3.73085043467138       -3.19907036532017
H          -15.66165935289522        4.91248953195416       -1.94527118758063
H          -16.76267484356379        3.56649908958165       -2.21936771081155
C          -16.77966244246482        1.33617495217421       -0.54161074210433
H          -17.18051785411142        1.39573039032462       -1.55069437623843
H          -17.48643979378414        1.82911456099939        0.12825154233266
H          -16.73663019837114        0.28718061499028       -0.25960812294116
O          -10.66660256038932        1.09086607541089        0.04783867523797
H          -10.91910045808087        0.19183340056670        0.27200273459786
H           -9.98426190217657        1.22543507282390       -0.61201043213113
C          -14.86486517217714        6.27568735580465        3.96367613871280
H          -14.42770722470610        7.21597148744850        4.29313153466069
H          -15.48496495669594        5.88733923286049        4.77025648813946
H          -15.49366570641609        6.46458594258376        3.10248693209293
N          -12.87166336373655        4.89216011802738        4.53081339849259
H          -12.79125450223020        5.23756310923570        5.47380199220965
C          -13.80816618993390        5.29266150017908        3.61596810761435
C          -12.08839042973542        3.96366446084481        3.94065779708679
H          -11.26874953794736        3.48302366557942        4.43070730257357
N          -12.46826445980101        3.75100124716565        2.70472175057986
C          -13.53555865611092        4.57413795882143        2.48686026172633
H          -14.02290283516538        4.59297115765176        1.53460342241764
78
 energy: -116.049174458329 gnorm: 0.029474616918 xtb: 6.7.1 (edcfbbe)
Fe         -11.59288481364221        2.49912109980171        1.37538668898761
N          -12.19249350275579        0.83412641845803        2.34554671261914
N           -9.89840538140773        2.53449415207251        2.48270777128044
N          -10.94160379023831        4.06038175434746        0.31415391762011
N          -13.27689667748744        2.42891153069099        0.25278380995005
C          -13.33752891541142        0.13500832362935        2.13093811805678
C          -13.34591609094819       -1.07994813944622        2.91864549255869
C          -12.18650905473940       -1.07904187999595        3.63453664079312
C          -11.48227894026794        0.13130079090238        3.26382663230499
C           -9.55053141290056        1.65742096818665        3.45578264965554
C           -8.34864947999441        2.08313847198782        4.12914503782911
C           -7.97506373039284        3.26744900621033        3.54125530833061
C           -8.94965367336032        3.50698028989141        2.48717014134805
C           -9.80039477052522        4.76392607631270        0.53572640605596
C           -9.62876464008040        5.78061258572950       -0.47484216297824
C          -10.70442379247341        5.67284071708194       -1.31883436602552
C          -11.52318872954068        4.59589403116361       -0.78588542227697
C          -13.61315285340689        3.28812511373228       -0.74081660392598
C          -14.96680585610648        3.04022825502239       -1.18680557674118
C          -15.42245866343794        1.98370255553991       -0.46537211892242
C          -14.34456593033355        1.60809718829911        0.42779069126494
C          -14.36796108439659        0.52173055290953        1.28845869235999
H          -15.26061249792407       -0.08969405901008        1.29438772563158
C          -10.26211936480447        0.51074822826000        3.78947821380744
H           -9.83560109321279       -0.13204444126992        4.54521016922124
C           -8.91411802216948        4.55987199293491        1.58342730412332
H           -8.10637450374230        5.27293219192069        1.68373699006636
C          -12.77413217893209        4.25805249635656       -1.27166535716095
H          -13.14471271610867        4.81576393678840       -2.12031646907730
C          -11.69854453874387       -2.08160963840401        4.62063335461567
H          -12.40107901338521       -2.90520526649815        4.71143578400297
H          -11.58277267178536       -1.62666638943350        5.60383707500170
H          -10.73113306348674       -2.48545340893297        4.32467012680078
C          -14.42723858989386       -2.10266312512791        2.88063609172328
H          -14.76499189537473       -2.26094123006779        1.85845442636381
H          -15.28457161833918       -1.78257450744323        3.47279968253400
H          -14.08101380328279       -3.05446586235860        3.27418370618032
C           -7.68811842891767        1.32391865733628        5.22636676692115
H           -7.72486086592350        0.25396886626192        5.03251519364163
H           -8.19283292853946        1.50711063760190        6.17700958433837
H           -6.64747025470523        1.61606829989972        5.32858989432411
C           -6.86239019718428        4.12797504269037        3.85940864037450
H           -6.48503971988228        4.73160052540549        3.04306841515708
C           -6.29863401286856        4.25439104830919        5.05957847482701
H           -6.67028349830318        3.72909208761107        5.92252811705108
H           -5.46787903158999        4.91578902354986        5.23269758455424
C           -8.43972510492903        6.66905517142506       -0.59735115903065
H           -7.52848565699558        6.11692909359916       -0.37541564310624
H           -8.50245740555579        7.50708939574730        0.09670388029170
H           -8.36748959353786        7.06605622680237       -1.60632781334469
C          -10.99311067462071        6.41692667314261       -2.52432463958736
H          -11.47246327695578        5.85342974764014       -3.31719433753819
C          -10.72659729167136        7.70263005132270       -2.73406592338299
H          -10.30013252522449        8.33670758188510       -1.97811801314598
H          -10.95625260204875        8.17838845365514       -3.67232631803466
C          -15.70164023203870        3.85056843347035       -2.19867336572183
H          -15.28128989047957        3.72094041016844       -3.19523161759739
H          -15.64814074899048        4.90899010337758       -1.94783422224260
H          -16.74874546802186        3.56206500546753       -2.22672955625275
C          -16.76528236344018        1.33885438883980       -0.53840862588510
H          -17.16729462648605        1.40162903465777       -1.54690932707387
H          -17.46672005808939        1.83254499134237        0.13564614427589
H          -16.71560530717285        0.29067550761776       -0.25804188991672
O          -10.70517434458620        1.09178756441833       -0.02916265272125
H          -10.84316670464649        0.16495847349414        0.24455934860292
H           -9.94127055524043        1.20601331443321       -0.62000122128940
C          -14.86312708144157        6.27740340395477        3.95903564619885
H          -14.42370299826241        7.21787158540404        4.28563051135691
H          -15.49161020910685        5.89891910901788        4.76447414309469
H          -15.48691677838697        6.46477687323247        3.09327451529535
N          -12.87562374982490        4.88467980879067        4.53655970624826
H          -12.79291824190000        5.22976032692874        5.47938169219929
C          -13.81046556709677        5.28691020055677        3.62003869494431
C          -12.09231617079614        3.95570133550240        3.94290457025780
H          -11.27475389631475        3.47179363295338        4.43199809588649
N          -12.46886926426908        3.74632553122990        2.70641657637589
C          -13.53652353225190        4.56820612776657        2.49135272248370
H          -14.02647178666952        4.59094747324806        1.54117012319145
78
 energy: -116.051028766892 gnorm: 0.034366042047 xtb: 6.7.1 (edcfbbe)
Fe         -11.59465760024513        2.49495718706576        1.37379658617398
N          -12.19393654803901        0.84177182222312        2.34260772665844
N           -9.91140385128329        2.52709286688516        2.47456541940194
N          -10.94142499676640        4.05327663418027        0.32169388241353
N          -13.27575088428354        2.44784286619517        0.27310731681906
C          -13.33945095498857        0.14893990773152        2.13221651689665
C          -13.35082539916280       -1.06538898065975        2.91899745174864
C          -12.19202020938383       -1.06880432835110        3.63232050860602
C          -11.48650317498930        0.13676517368670        3.26441889864246
C           -9.56478662119832        1.65474352291041        3.45711549879859
C           -8.36760490215404        2.08427780968422        4.12967247189152
C           -7.99839096092923        3.26764378559433        3.54059971185500
C           -8.96718275501807        3.50187960643698        2.48107558465746
C           -9.79791977878579        4.75175263071252        0.53679157514229
C           -9.62750285997631        5.77153234187998       -0.46931156817287
C          -10.70564391686013        5.66689192824820       -1.30753276495997
C          -11.52417776540040        4.59373519123302       -0.77396332167712
C          -13.61164260356568        3.30468853527694       -0.72325673630273
C          -14.95972277403862        3.04895884923238       -1.17830969363224
C          -15.41448288565172        1.99005845170156       -0.45519670226703
C          -14.33749254558719        1.62024227124344        0.44235412210526
C          -14.36950233877636        0.53089240343049        1.29051939815183
H          -15.25486898306043       -0.08700356529732        1.28334516847720
C          -10.27114715354268        0.51173682466424        3.79801713302978
H           -9.85026119719718       -0.12455532984770        4.56128033626187
C           -8.90899066278414        4.54913841964213        1.57922702686652
H           -8.09200217438676        5.24882363102353        1.67145300995155
C          -12.77957835655368        4.27218513161045       -1.25556663061516
H          -13.15390531661446        4.83780710812474       -2.09645331810966
C          -11.69881637159310       -2.07349492890737        4.61370076653183
H          -12.40050686401805       -2.89895960939868        4.70316359347386
H          -11.58109537357369       -1.61763812328139        5.59726082039748
H          -10.73047194068708       -2.47304765492794        4.31119185445481
C          -14.42893328446857       -2.09178730413714        2.88908794152142
H          -14.76298166488064       -2.26566160277443        1.86698889814563
H          -15.28947981957348       -1.76981128182362        3.47746054433935
H          -14.07316025876912       -3.03618446514202        3.29657366742315
C           -7.68977728417774        1.32355866048544        5.21442593513202
H           -7.73425026212704        0.25340023745477        5.01707425932988
H           -8.17412825682520        1.50806235586527        6.17654094536380
H           -6.64510448038752        1.61659559283477        5.29278047846456
C           -6.88389334346163        4.12701653684098        3.85469874154519
H           -6.49740043181798        4.70779826099947        3.02512258842794
C           -6.31825149936160        4.27060906653198        5.05155571778195
H           -6.67932529573054        3.75953861217860        5.92860107208697
H           -5.46864499734860        4.91741889943801        5.20156244968745
C           -8.44443361333812        6.66531188808434       -0.59349270126593
H           -7.52729313034001        6.12011874668729       -0.37316206267198
H           -8.51248899474328        7.50519735316992        0.09964604619295
H           -8.38120681741086        7.06053026869754       -1.60517381500513
C          -11.00361719402941        6.40711697349543       -2.51002805243054
H          -11.49248377024273        5.83800423574450       -3.29348707164836
C          -10.72780018064809        7.69003834137413       -2.72111057991029
H          -10.29149513043579        8.31994709244537       -1.96563126701037
H          -10.95502042174754        8.16693182160060       -3.66008442853225
C          -15.68504206473402        3.84898102681889       -2.20485286017782
H          -15.24890362875558        3.70915684698455       -3.19400149357578
H          -15.63415284448209        4.90957471419928       -1.95962907621506
H          -16.73202526245004        3.55722953512800       -2.24339460520284
C          -16.75254579047532        1.34012223308927       -0.53289783556741
H          -17.15502545807049        1.40877564388030       -1.54185815868419
H          -17.45232669665401        1.82964679232524        0.14686872872207
H          -16.69508411450651        0.29008084622606       -0.25932364996335
O          -10.72228136748750        1.08727889259594       -0.09768763875589
H          -10.79336060143152        0.15988690589411        0.19589646418601
H           -9.88995052656014        1.17777336841121       -0.61526187444338
C          -14.86169547503005        6.27923557395050        3.95264317825285