72
 energy: -105.924118134454 gnorm: 0.210352079766 xtb: 6.7.1 (edcfbbe)
Fe          49.30300000000000       17.44400000000000       70.45000000000000
N           48.71100000000000       18.62000000000000       72.02399999999999
N           51.18700000000000       17.55500000000000       71.06000000000000
N           49.94900000000000       16.51100000000000       68.75100000000000
N           47.47300000000000       17.56900000000000       69.70599999999999
C           47.43000000000000       19.11100000000000       72.27899999999998
C           47.42700000000000       19.87100000000000       73.48000000000000
C           48.72300000000000       19.95600000000000       73.88200000000001
C           49.50700000000000       19.19500000000000       72.98300000000000
C           51.64500000000000       18.19200000000000       72.23399999999999
C           53.04199999999999       17.86400000000000       72.43099999999998
C           53.44300000000000       17.09900000000000       71.38200000000001
C           52.29700000000000       16.99900000000000       70.51100000000000
C           51.22900000000000       16.11800000000000       68.45600000000000
C           51.26500000000000       15.45000000000000       67.19100000000000
C           49.97199999999999       15.48500000000000       66.69799999999999
C           49.18000000000000       16.17300000000000       67.66500000000001
C           47.08000000000000       17.16200000000000       68.44300000000000
C           45.67500000000000       17.48900000000000       68.19499999999999
C           45.23200000000000       18.16200000000000       69.31800000000000
C           46.36500000000000       18.24500000000000       70.23599999999999
C           46.33799999999999       18.90800000000000       71.45600000000000
H           45.37800000000000       19.30000000000000       71.79200000000000
C           50.86100000000000       18.94900000000000       73.10500000000000
H           51.36599999999999       19.38900000000000       73.96499999999999
C           52.30799999999999       16.29300000000000       69.33900000000000
H           53.24900000000000       15.81800000000000       69.06200000000000
C           47.83900000000000       16.46900000000000       67.51300000000001
H           47.34500000000000       16.13500000000000       66.60100000000000
C           49.25700000000000       20.73900000000000       75.03800000000000
H           49.58900000000000       20.04200000000000       75.83600000000000
H           48.46100000000000       21.39900000000000       75.44399999999999
H           50.12500000000000       21.35000000000000       74.70900000000000
C           46.21299999999999       20.50600000000000       74.15000000000001
H           45.30900000000000       19.89900000000000       73.93100000000000
H           46.06100000000000       21.53300000000000       73.75600000000000
H           46.36600000000000       20.54000000000000       75.24999999999999
C           53.81800000000000       18.33300000000000       73.64600000000000
H           53.73099999999999       17.57700000000000       74.45600000000000
H           53.40199999999999       19.29800000000000       74.00700000000001
H           54.88999999999999       18.45700000000000       73.38200000000001
C           54.75700000000000       16.44800000000000       71.16000000000000
H           55.06900000000000       16.18400000000000       70.13900000000000
C           55.63600000000000       16.14800000000000       72.20900000000000
H           55.37000000000000       16.39200000000000       73.24799999999999
H           56.60300000000000       15.66400000000000       72.00600000000000
C           52.46599999999999       14.84200000000000       66.54100000000000
H           53.17200000000000       14.49000000000000       67.32299999999999
H           52.97600000000000       15.60100000000000       65.91000000000000
H           52.15700000000000       13.97600000000000       65.91800000000001
C           49.52600000000000       14.84400000000000       65.43899999999999
H           50.22100000000000       14.80500000000000       64.58700000000000
C           48.33900000000000       14.30900000000000       65.26300000000001
H           47.59800000000000       14.31500000000000       66.07599999999999
H           48.07100000000000       13.84800000000000       64.30100000000000
C           44.89500000000000       17.18300000000000       66.95200000000000
H           44.72299999999999       16.08800000000000       66.88200000000001
H           45.46600000000000       17.51500000000000       66.05900000000000
H           43.91300000000000       17.70100000000000       66.98800000000000
C           43.85600000000000       18.70800000000000       69.60700000000000
H           43.11200000000000       18.20200000000000       68.95599999999999
H           43.83400000000000       19.79900000000000       69.39900000000000
H           43.59300000000000       18.51900000000000       70.67000000000000
O           49.79799999999999       19.50800000000000       69.37100000000000
H           50.74300000000000       19.63100000000000       69.45799999999998
H           49.23100000000000       20.06000000000000       68.96700000000000
C           48.10300000000000       15.54500000000000       72.95399999999999
H           48.25600000000000       14.71700000000000       73.67900000000000
H           47.01900000000000       15.59800000000000       72.71800000000000
H           48.41500000000000       16.49200000000000       73.44400000000000
S           49.04699999999999       15.28300000000000       71.45999999999998
H           50.22499999999999       15.49200000000000       72.03000000000000
72
 energy: -105.960672767670 gnorm: 0.077410726676 xtb: 6.7.1 (edcfbbe)
Fe          49.31653837759649       17.51912782337920       70.40121129567807
N           48.70385972054051       18.62753581103404       72.01067278525939
N           51.19676740481628       17.56657073208116       71.06985989080944
N           49.95008135073596       16.52853910882330       68.74238042192164
N           47.46536767054247       17.59578030506134       69.68867805028718
C           47.43071500254958       19.08476340168680       72.27875461407267
C           47.42491980023389       19.87495177991294       73.47585050537779
C           48.72272825395167       19.95835315804935       73.88520320864873
C           49.50185971372346       19.17064731120016       72.97903980683051
C           51.64240599255705       18.17191503128372       72.23898922514879
C           53.03951244413473       17.86750898495088       72.44432867093988
C           53.45372537821382       17.09458133596554       71.39310997147065
C           52.29212558353541       16.96440546475950       70.52759102634896
C           51.21896021846509       16.10626226629677       68.46592927171940
C           51.26102972322666       15.44908274568864       67.19078804174039
C           49.97639308738912       15.47653746243905       66.69546653072970
C           49.17853544047053       16.16347304584279       67.67658361465894
C           47.06580522877427       17.15554349700506       68.45558964880207
C           45.67475916541182       17.49750190637385       68.20888349895587
C           45.23674158085169       18.15404343286236       69.32340503756778
C           46.36366000835113       18.22481500762458       70.23449773126885
C           46.33796651283016       18.87692031991684       71.45560308109599
H           45.39152522331548       19.30040226237414       71.77596455454739
C           50.86208806135624       18.93137560148272       73.09776699457650
H           51.36103798742140       19.38102514217599       73.94961028655588
C           52.29939631241717       16.27336818972527       69.33489199774530
H           53.24108177925884       15.82479907416428       69.04198228992030
C           47.83548417678944       16.47017289638242       67.53203321157588
H           47.35133879200863       16.17291481144115       66.61175270349061
C           49.25950728141680       20.73415860446346       75.04071304859497
H           49.59199994840988       20.05741358934704       75.83648470487961
H           48.48539549927315       21.39301715356386       75.44349883402033
H           50.11274321579214       21.34366550598232       74.72503765802004
C           46.22274872141217       20.49738255983161       74.13622438779976
H           45.32286193599717       19.90901896356236       73.93434847997210
H           46.06144648147023       21.51504938783221       73.76301824698885
H           46.36385088179281       20.54141810866882       75.22104584371881
C           53.81372060988157       18.33461690531905       73.63980425961745
H           53.73485012152875       17.59689435475274       74.44816211518267
H           53.41727559607784       19.28570555131938       74.00457553093101
H           54.87033395561534       18.46421602588218       73.38659843039935
C           54.75772803256296       16.46347598581678       71.18772707725543
H           55.04679615141705       16.19451169049562       70.17262642281483
C           55.61421798210228       16.16322907610491       72.18416476277237
H           55.37008396477880       16.36860551917744       73.21701988837229
H           56.56571224542125       15.68051326574142       71.98963077377361
C           52.46269627490206       14.84406606709666       66.54738547201393
H           53.16872217373870       14.49136929483339       67.30543515531419
H           52.97358163662729       15.58308336929899       65.91794505261201
H           52.17008389143506       13.99383525969531       65.92415524674263
C           49.52628703706770       14.85968936945076       65.44567758036690
H           50.23580772035674       14.81923214079314       64.61923365823017
C           48.33451748371931       14.30720232928650       65.26055242364349
H           47.60228391834536       14.27049049246376       66.05707902438864
H           48.06774641466132       13.85044755867489       64.31487164581652
C           44.90526539900274       17.18425461741720       66.96555247963400
H           44.72736170500915       16.10511356534261       66.87996222601727
H           45.45305250162480       17.50952260227249       66.07427973615884
H           43.93536563219175       17.69014470522916       66.98137148216030
C           43.87008629711188       18.70150119484324       69.60457391461743
H           43.12419626820060       18.21399752610593       68.96911855418779
H           43.83379831979203       19.78019937638805       69.40977280426269
H           43.59400673727430       18.52601213740693       70.64913013932706
O           49.80675808028339       19.48213174428614       69.38244217260183
H           50.74553272906738       19.64256421139982       69.45252175759488
H           49.22202989176220       20.08064699346899       68.95349284893160
C           48.09786023833823       15.55113564059974       72.97380211532220
H           48.25593216649822       14.71781826359570       73.66835802409460
H           47.03653071232526       15.60202566611041       72.71577315779103
H           48.39974508000688       16.49019155378602       73.44470930371779
S           49.04211324720194       15.31631242078468       71.45786740032112
H           50.23195582703627       15.47220174152438       72.03483819127293
72
 energy: -105.968862096346 gnorm: 0.027450038618 xtb: 6.7.1 (edcfbbe)
Fe          49.31834138927994       17.55021168271613       70.38488697847005
N           48.70036505430473       18.63370348582053       71.99687134069588
N           51.20296951567525       17.57226907422721       71.07739716672315
N           49.94748777336831       16.54821968199183       68.74117400055806
N           47.46020592837554       17.61847637891320       69.67317486410198
C           47.43869052780551       19.07339966327839       72.26894208988256
C           47.42753415337720       19.87212799444503       73.47106768861116
C           48.72393042256260       19.95291853106050       73.88649768549385
C           49.49952865316190       19.15610858451336       72.96760895270339
C           51.63779820889005       18.16044341671538       72.23494686674285
C           53.03003093542795       17.86547573366909       72.45702160369297
C           53.44705423359596       17.08480856567554       71.40669449263322
C           52.28639550495389       16.94518220143199       70.53728886263136
C           51.20974911099881       16.11020382610518       68.47649401623150
C           51.25579546886310       15.44837400244912       67.19899010525700
C           49.97616619715225       15.46610732935570       66.70446275065949
C           49.17862101467093       16.17070720784293       67.68674170493084
C           47.06097966082717       17.16874687719393       68.45550418737628
C           45.67186725534077       17.49851381255239       68.21837090005326
C           45.23627697050780       18.14292459739590       69.33150177083230
C           46.36896838605534       18.22091338237042       70.22718803467892
C           46.34342879004083       18.86397874280742       71.44984345335800
H           45.40352320902279       19.29265723245020       71.76724206262961
C           50.85989035980953       18.92298775596392       73.08707239922074
H           51.35078268107284       19.37093523218527       73.93899438468560
C           52.29292871187904       16.26937053982952       69.33023094723995
H           53.23289372596311       15.83473218486225       69.02404377854616
C           47.83991210856626       16.49016951400987       67.53833428000316
H           47.36180334513411       16.20632860453495       66.61597605726500
C           49.26494964599071       20.72405512938965       75.04212411687172
H           49.60008569024737       20.05753756708761       75.83602682946128
H           48.50167617189795       21.38234158759447       75.44523859419616
H           50.11061041013127       21.33421252215918       74.73250257875968
C           46.23159205645715       20.48736370490531       74.11928083390248
H           45.33539749654371       19.90637095882965       73.92220689905572
H           46.06701773051157       21.50122335175169       73.75482236940678
H           46.36968900153971       20.53733088918868       75.19688401909585
C           53.80917367785731       18.34041487274737       73.63415142011874
H           53.73993830735401       17.61647588754819       74.44727563178652
H           53.42563213362384       19.28823861922733       73.99906149190396
H           54.85681415862295       18.46989688413622       73.37764709873845
C           54.74002619180192       16.46646731706001       71.20401764592454
H           55.01033410708107       16.22161565513159       70.18345276886676
C           55.59376841340707       16.15951694521433       72.16815704986904
H           55.37736257483155       16.34181354191643       73.20388820561968
H           56.54525110527105       15.69956422391882       71.96461603059801
C           52.45915454581081       14.84575986769070       66.55759231349867
H           53.16630353902369       14.49284783388161       67.30253279857632
H           52.96787471273458       15.57789002237219       65.92913798656849
H           52.17417056914747       14.00484887549871       65.93136697506817
C           49.52695950995965       14.86190452718258       65.46527214488218
H           50.24705305254035       14.84695851578445       64.65479164698691
C           48.33946436040429       14.29363454514922       65.26647936862506
H           47.60212353591911       14.23055189650843       66.04540051908209
H           48.07448537248563       13.85786716815646       64.31945792084711
C           44.91171208485478       17.18209823074873       66.97466688191629
H           44.74063527957010       16.10945557278577       66.88533268623296
H           45.45495086796902       17.50958900043680       66.09041151254941
H           43.94716001684448       17.68148457878410       66.98260099631115
C           43.87824819740133       18.69489517316477       69.60892146032305
H           43.13543629397441       18.21757200555223       68.97566051683907
H           43.84538974073937       19.76796205884930       69.41915558580014
H           43.59753679033915       18.52681782467513       70.64529572397832
O           49.80857466903187       19.44655265697566       69.38017645177553
H           50.73941796103466       19.67112733122924       69.44050359978543
H           49.22688121746705       20.07969643806499       68.95832678315357
C           48.08945747131079       15.56385470424934       72.99100841638268
H           48.25910478874111       14.72224252372767       73.65765859906105
H           47.04170914368629       15.60818706746037       72.71530885946149
H           48.38442480797904       16.49659646118556       73.45598507074709
S           49.03333957647457       15.33490269616802       71.45573086177724
H           50.23619372470229       15.44026692954420       72.03230730968674
72
 energy: -105.971104900624 gnorm: 0.017255541836 xtb: 6.7.1 (edcfbbe)
Fe          49.31884630731341       17.56337821689838       70.37877550879502
N           48.70295481417239       18.63978428173557       71.98410110628677
N           51.20288231719659       17.57064115991232       71.08303001849991
N           49.94405693094008       16.55753139886081       68.74629004139554
N           47.46134467118247       17.63635973021898       69.66286087624255
C           47.44461783640954       19.07024700119150       72.26036948810690
C           47.43132052471071       19.86704160992388       73.46682639193526
C           48.72505957274104       19.94496101480707       73.88601751427976
C           49.50003283488732       19.15043380157156       72.96006333762749
C           51.63284033085548       18.15266455647122       72.23669856987756
C           53.02173806724954       17.86073396355243       72.46782652226477
C           53.43598526235106       17.07762041856139       71.41832672004413
C           52.28142301757529       16.93654107961347       70.54556931242328
C           51.20446749193968       16.11525673227240       68.48688627448735
C           51.25121047156625       15.44596750863313       67.21153386038785
C           49.97309780676273       15.46079976320917       66.71738235084993
C           49.17705608034506       16.17765611750454       67.69547890035028
C           47.06094851204526       17.18215278005276       68.45001365370769
C           45.66944330044932       17.50064987046174       68.21965613502374
C           45.23295007427732       18.13695644691689       69.33724812366466
C           46.37060489259596       18.22023565929270       70.22578599154920
C           46.34455540244398       18.85849575243266       71.44984919048511
H           45.40598866229718       19.28432670948421       71.76898503509211
C           50.85624090675705       18.91836005453216       73.08698719872945
H           51.34282288850559       19.36400812132459       73.94060454502038
C           52.28987201485221       16.26987765805825       69.33303670117975
H           53.22930625814170       15.84332007701668       69.01604416565210
C           47.84380352006750       16.50663378029702       67.53591635497445
H           47.37211486327097       16.23444045955111       66.60672607025660
C           49.27088132236329       20.71052601591592       75.04318079554614
H           49.60954357866039       20.04304759551415       75.83476920728437
H           48.51013679293965       21.36940907210508       75.45099738517048
H           50.11613026114811       21.32163686610135       74.73293015103326
C           46.23384955003822       20.48113290991933       74.10557515162640
H           45.33964925160119       19.89791002611085       73.90657882328767
H           46.06931001013944       21.49358037411634       73.73637647241044
H           46.37015155895391       20.53598272720815       75.18325142406582
C           53.80882219160551       18.34875598356319       73.63243237933598
H           53.75013815218179       17.63494720684656       74.45587678608941
H           53.42941571091553       19.30156761448191       73.99102003725497
H           54.85349653277392       18.47559732162722       73.36151128280446
C           54.72890292484657       16.47523658883301       71.20223631545437
H           54.98083079419900       16.24582648728142       70.17346442914325
C           55.59875504299706       16.15780309665600       72.15500279216259
H           55.38579096831727       16.29463994631140       73.20172317070737
H           56.54612693572528       15.69953245623910       71.93134107464373
C           52.45592271311362       14.84562648367304       66.57021619694338
H           53.16435202752800       14.48965652870764       67.31223458893260
H           52.96312880925891       15.58194508163863       65.94502350501128
H           52.17163158210930       14.00824756278500       65.93868488217441
C           49.52532467702840       14.86724693269015       65.47716577246129
H           50.25471888011530       14.87211128427730       64.67499367358863
C           48.34597365151763       14.28651970739343       65.26645107691409
H           47.61177028861348       14.17401060723429       66.04752097053738
H           48.09207029601288       13.85562092702251       64.31398815745293
C           44.91382245663208       17.17851531241184       66.97665818562506
H           44.75336487765757       16.10466198811217       66.88824537976932
H           45.46030607403331       17.51083709465768       66.09653914761873
H           43.94618053834393       17.67153522145740       66.98161684499985
C           43.87821968375696       18.69004476622543       69.61733458214827
H           43.13575171231059       18.21946343745542       68.97913348977737
H           43.85460520001814       19.76423872786456       69.43229355943582
H           43.59504702396158       18.52024088395365       70.65265186956132
O           49.81641355271317       19.42156013955356       69.33928847943038
H           50.73128910648949       19.71845044568624       69.43754575500317
H           49.23172030417340       20.09575031141287       68.97240990800863
C           48.08049354320017       15.57826585984770       73.00181412450155
H           48.25863542528703       14.72828733773136       73.65341721782754
H           47.03509969861270       15.62024094891019       72.72021175703021
H           48.37390985042425       16.50825180007141       73.47150233082964
S           49.01999308802960       15.35694536978324       71.45316672989736
H           50.23173772574909       15.40851722625358       72.02973417730951
72
 energy: -105.971664510489 gnorm: 0.043447770933 xtb: 6.7.1 (edcfbbe)
Fe          49.32002509382094       17.57203653670548       70.37421879930467
N           48.71023939447726       18.65169727237096       71.96454089751552
N           51.20228488087239       17.57099787639946       71.08753689603438
N           49.93934187672674       16.56261509705524       68.75661799125932
N           47.46436083587719       17.65162638891950       69.65122758694477
C           47.45220080096497       19.07273932920060       72.24642771376438
C           47.43577767366460       19.86116564373207       73.46018879761537
C           48.72610212947998       19.93544586136967       73.88402337484685
C           49.50290752155079       19.14884515307888       72.95071656407816
C           51.62958111442732       18.14677489854875       72.24087916277411
C           53.01505059463510       17.85346837514471       72.47994252025028
C           53.42527108117424       17.06853997533143       71.43085462852574
C           52.27788172092122       16.93236747288009       70.55426360159277
C           51.19940085547752       16.12036536487025       68.50094052118274
C           51.24773732797897       15.44346345826974       67.22861271458842
C           49.97129999142864       15.45541099492723       66.73451242361439
C           49.17548804897254       16.18238161459040       67.70653230858859
C           47.06183091307147       17.19398102349081       68.44033167786637
C           45.66667410476355       17.50151953672072       68.21783146969628
C           45.22891853065049       18.12869766191918       69.34155521714470
C           46.37288427491456       18.22113336762130       70.22203020938646
C           46.34597515080900       18.85703500242845       71.44709175348173
H           45.40595354297859       19.27148490783354       71.77291740078427
C           50.85359165146826       18.91533456829028       73.09080290098315
H           51.33527039045612       19.35395915447706       73.94959214875570
C           52.28784673324944       16.27203546357512       69.33946611551744
H           53.22549974436702       15.85095723959223       69.01175972876339
C           47.84803697629028       16.51822164644819       67.52962442827121
H           47.38508392054822       16.24129655669311       66.59684538938285
C           49.27786511571534       20.69061642135858       75.04511009951415
H           49.62123686310938       20.01693812932614       75.83074535978244
H           48.51940107805159       21.34843217867397       75.46241901881345
H           50.12346872551750       21.30348597799165       74.73412430383743
C           46.23348895202522       20.47415423283121       74.08900600076532
H           45.34221141147234       19.88541930034555       73.88792855172881
H           46.06783363823627       21.48384202989563       73.70957434487526
H           46.36511970547495       20.53738790633547       75.16777316175350
C           53.81314592097705       18.35681281379650       73.63023512479485
H           53.76591817803718       17.65781099637392       74.46845237771575
H           53.43907430143529       19.31837579542470       73.97687395107835
H           54.85537904671490       18.47604175582364       73.34037884680573
C           54.71599050751676       16.47328539771502       71.19806865864099
H           54.96229492169390       16.28291591664846       70.15931190325722
C           55.59547230076409       16.13175771985250       72.13871952289342
H           55.40101513297996       16.25934491878126       73.18906437353793
H           56.55428777843087       15.70857717833919       71.88509748536259
C           52.45342367465775       14.84457926587830       66.58814387929088
H           53.16096446987414       14.48202959768893       67.32916877226559
H           52.96135033672724       15.58770212732631       65.96961722236149
H           52.16887385414009       14.01153930913664       65.94910393199601
C           49.52660961611480       14.86569381382092       65.49298491076196
H           50.25536255317775       14.90814372854588       64.68951602723831
C           48.35949275663482       14.26618355219939       65.27662103800816
H           47.61697679616751       14.15097235224962       66.04625265034446
H           48.10841760824343       13.85744242220169       64.31115174094248
C           44.91463591952891       17.17228190293285       66.97590105328092
H           44.76809480667625       16.09570330888406       66.88847885558118
H           45.46322366728489       17.51098787641653       66.09846046838325
H           43.94088326136849       17.65511707520516       66.97834634352851
C           43.87631697001989       18.68186914994487       69.62850939117574
H           43.13168846776384       18.22161405992198       68.98392251839697
H           43.86177165897770       19.75914631787806       69.45326887557594
H           43.59074245873310       18.50497610611918       70.66301053401864
O           49.83112987276876       19.38570805211044       69.25483669304580
H           50.71310785299886       19.77958696357260       69.45384001015719
H           49.24162853201199       20.14116231101010       69.01345365149827
C           48.06790034148049       15.59826141930978       73.01290049628065
H           48.25564981944181       14.74108775448806       73.65140528272141
H           47.02193592054056       15.63982234446974       72.73300377508694
H           48.36310699805419       16.52495190824816       73.48954991058294
S           48.99688142422558       15.38557564874014       71.44840601394075
H           50.21510990821634       15.37806551970252       72.02237792586480
72
 energy: -105.972560147956 gnorm: 0.017274906768 xtb: 6.7.1 (edcfbbe)
Fe          49.32082348502226       17.57449040724428       70.37342722387926
N           48.71520236550164       18.65871546073143       71.95572677738119
N           51.20078087990014       17.57108702140834       71.08939276294416
N           49.93637872698525       16.56140248837685       68.76432918401784
N           47.46653535829942       17.65572645353332       69.64759314054770
C           47.45471493476556       19.07735018554409       72.23999032516865
C           47.43700325449457       19.85802640155273       73.45775771432356
C           48.72577612777743       19.93030627771737       73.88380148520356
C           49.50493723495066       19.15093002597295       72.94843841281821
C           51.62950420200116       18.14605512254300       72.24515557162384
C           53.01428629746328       17.84980625436760       72.48443522437771
C           53.42248282477855       17.06597560467472       71.43483297672576
C           52.27705539374375       16.93333711295522       70.55836809360386
C           51.19732303695384       16.12172592967452       68.50815494091893
C           51.24629098298451       15.44312856188507       67.23714239247703
C           49.97037338551202       15.45689195834195       66.74217457217242
C           49.17433580136166       16.18487266381314       67.71129436810482
C           47.06290925477107       17.19987813570869       68.43455613922319
C           45.66538438140477       17.50249901332061       68.21510407961073