87
 energy: -124.720494827699 gnorm: 0.000133143802 xtb: 6.7.1 (edcfbbe)
Fe           1.63949525505421       23.54106129401568       14.91813679360792
N            3.29160317360115       22.41307312891314       15.06386123825546
N            0.52918413543142       21.88803482245147       14.70532487070005
N            0.00154340718048       24.67109904216305       14.76582591759937
N            2.77048595792883       25.18882851370196       15.04745201892333
C            4.56628450392263       22.84257675238334       15.25944447138152
C            5.48115220963894       21.72432766738673       15.31618722190587
C            4.73052344431124       20.60782308024205       15.11641937006967
C            3.36610490709488       21.05917215243950       14.95413293502821
C            0.97888196621896       20.60796200265466       14.60923900768246
C           -0.11857173540075       19.69123558584728       14.43816995535729
C           -1.25921486473853       20.45008844186935       14.44969236478769
C           -0.82167492526624       21.82453765589960       14.60167108622678
C           -1.28404736978826       24.23328230498364       14.70005988896975
C           -2.20233498009572       25.34375166821799       14.65605875390423
C           -1.43477358261288       26.47665679562299       14.68408215552158
C           -0.05771378652710       26.02425925306402       14.74812662388323
C            2.34367709306918       26.47465641958152       14.94991797949299
C            3.45693057716213       27.39219900461396       15.05444558924971
C            4.56784358233673       26.62653780532581       15.22648749309928
C            4.11825353231562       25.25293906123359       15.21145570494219
C            4.96330341155363       24.16543395739216       15.33986255656025
H            6.01432881508657       24.36326294739468       15.48643128076191
C            2.30074101679389       20.21282008169043       14.72119752054118
H            2.51421324263111       19.15781376230282       14.64362438470887
C           -1.67766537357152       22.90834611103007       14.64117250352029
H           -2.73711194656540       22.70685314043553       14.60101079254470
C            1.02810856746833       26.87541180494457       14.81676917942893
H            0.83578715394275       27.93688922595758       14.78615004514878
C            5.15613730766821       19.18054210677554       15.06578707914705
H            6.22737071163452       19.08997922109588       15.22884697126093
H            4.91930736937181       18.74467773363865       14.09477603565827
H            4.64186754758632       18.59848615576316       15.83110156120777
C            6.94923593943095       21.84931421511540       15.54179871382904
H            7.15119322410204       22.37077856693402       16.47777677535058
H            7.41655648791494       22.41391387212211       14.73402225869176
H            7.41787396481718       20.86932879194589       15.58813347643021
C            0.01585233056016       18.22304381183378       14.22979249382011
H            0.13213463361087       17.70196066604374       15.18184413500981
H            0.88666071836001       17.99991369715953       13.61505676218694
H           -0.87064760836727       17.83424574999800       13.73269994855166
C           -2.63621056494314       20.03331626347950       14.30614187666950
H           -3.28866285184945       20.73657233406125       13.80154005346277
C           -3.14550303789904       18.88675996708619       14.74520501918158
H           -2.55896303283959       18.17175352218054       15.29514359336962
H           -4.18192759535534       18.63566635558585       14.59161466604346
C           -3.68096808997494       25.23067355705664       14.52457347140050
H           -4.14207951578369       25.03238966803278       15.49334937573831
H           -3.94899362603690       24.41692280664273       13.85211299916446
H           -4.09292101010381       26.15737012253831       14.13019642947485
C           -1.84590107062957       27.86233117763193       14.63636387460321
H           -1.17320940691555       28.53251326341398       14.11320091915487
C           -2.95289431711222       28.35737106189693       15.18025908607016
H           -3.63057587932709       27.74886010790564       15.75304181714561
H           -3.20475219737955       29.40156123965205       15.09464895522517
C            3.33254544327318       28.87566748245059       14.99138912515138
H            2.70474819735996       29.24212756045987       15.80416720819454
H            2.87793985157600       29.18249242388657       14.04922007144080
H            4.30766828365938       29.34994893058850       15.07203076462006
C            5.98762870935950       27.04537184458112       15.40062935675174
H            6.07597698433627       28.12874038211833       15.38034054778963
H            6.61162740908938       26.63563426680504       14.60558482805104
H            6.37826177756898       26.68799537550978       16.35385887292836
C            0.80999025087936       23.47867927535543        9.41115551506067
H            1.24649915880872       22.66305002091010        8.83472881136483
H            0.96740787567319       24.40678848075317        8.86170057909561
H           -0.25763340231625       23.30648473624519        9.50441741950351
N            2.76149766948581       23.76240110801002       10.95506101264962
H            3.44899726143504       23.88025186435746       10.22907163123803
C            1.42043097621615       23.55565243631625       10.76240799263230
C            2.98558842478742       23.77961239310079       12.28821614999948
H            3.94819899967365       23.92415866185250       12.73338281744994
N            1.86962614317711       23.59679943171174       12.94983161970116
C            0.88706706723464       23.45576722485983       12.01525089923274
H           -0.13013783501216       23.29354941854476       12.30480790605620
C            2.44706642541846       25.66962374876765       18.42976166248191
H            3.30569140133354       26.10430226009492       18.93781332798954
H            1.56193733568096       25.81778996590088       19.04367474080926
H            2.30129105580457       26.18739540634049       17.48626925955902
C            2.67909269209637       24.19109155028069       18.18657704770131
H            2.76210978967221       23.65226306364300       19.13080017766651
H            3.57075044440048       24.02389616249267       17.58455673693456
S            1.24766219362081       23.46713923852328       17.28758898627893
C            1.49175106612489       21.73630439675891       17.78935490898695
H            1.38944547344484       21.66182818174731       18.86882379566081
H            2.46882920103316       21.39285480198032       17.46489445044176
H            0.71812585637241       21.15415838577069       17.30119372492129
