87
 energy: -124.630979763066 gnorm: 0.288720108091 xtb: 6.7.1 (edcfbbe)
Fe           1.68700000000000       23.56500000000000       14.85200000000000
N            3.33700000000000       22.41200000000000       14.95600000000000
N            0.55800000000000       21.91700000000000       14.68800000000000
N            0.04600000000000       24.69800000000000       14.76000000000000
N            2.82600000000000       25.22300000000000       15.00600000000000
C            4.63300000000000       22.88700000000000       15.13300000000000
C            5.52000000000000       21.74500000000000       15.07500000000000
C            4.77900000000000       20.63400000000000       14.94500000000000
C            3.41800000000000       21.04900000000000       14.84900000000000
C            1.00700000000000       20.62700000000000       14.51800000000000
C           -0.09600000000000       19.71700000000000       14.42800000000000
C           -1.22300000000000       20.48400000000000       14.52500000000000
C           -0.83200000000000       21.83800000000000       14.65600000000000
C           -1.25400000000000       24.24600000000000       14.65600000000000
C           -2.17700000000000       25.38200000000000       14.50200000000000
C           -1.38500000000000       26.48400000000000       14.49300000000000
C            0.00400000000000       26.07200000000000       14.65800000000000
C            2.35900000000000       26.52400000000000       14.93700000000000
C            3.46300000000000       27.39099999999999       15.26600000000000
C            4.54500000000000       26.65100000000000       15.41900000000000
C            4.18500000000000       25.26300000000000       15.27300000000000
C            5.03600000000000       24.18600000000000       15.28500000000000
H            6.10000000000000       24.37700000000000       15.42400000000000
C            2.32500000000000       20.20900000000000       14.60700000000000
H            2.52600000000000       19.14500000000000       14.47900000000000
C           -1.65800000000000       22.94600000000000       14.71100000000000
H           -2.72800000000000       22.76300000000000       14.80700000000000
C            1.06500000000000       26.92100000000000       14.78100000000000
H            0.86300000000000       27.99200000000000       14.75200000000000
C            5.20600000000000       19.19500000000000       14.90500000000000
H            6.31100000000000       19.13300000000000       15.00400000000000
H            4.90500000000000       18.74100000000000       13.93700000000000
H            4.73700000000000       18.64099999999999       15.74600000000000
C            7.05900000000000       21.88800000000000       15.19100000000000
H            7.32700000000000       22.17700000000000       16.23000000000000
H            7.41600000000000       22.67599999999999       14.49400000000000
H            7.54500000000000       20.91900000000000       14.95000000000000
C            0.01900000000000       18.23500000000000       14.20400000000000
H            0.44400000000000       17.75500000000000       15.11100000000000
H            0.69200000000000       18.03700000000000       13.34300000000000
H           -0.98700000000000       17.80600000000000       14.00600000000000
C           -2.69800000000000       20.02400000000000       14.50800000000000
H           -3.42200000000000       20.32000000000000       13.73800000000000
C           -3.07100000000000       19.14000000000000       15.62600000000000
H           -2.32800000000000       18.85800000000000       16.38600000000000
H           -4.09700000000000       18.75200000000000       15.71300000000000
C           -3.66900000000000       25.26100000000000       14.31500000000000
H           -4.15300000000000       25.08200000000000       15.29900000000000
H           -3.89500000000000       24.40600000000000       13.64200000000000
H           -4.07000000000000       26.20200000000000       13.88200000000000
C           -1.81100000000000       27.92700000000000       14.25300000000000
H           -1.35400000000000       28.54800000000000       13.47000000000000
C           -2.85100000000000       28.47300000000000       15.09500000000000
H           -3.31300000000000       27.85800000000000       15.88100000000000
H           -3.19200000000000       29.51000000000000       14.96000000000000
C            3.31500000000000       28.91500000000000       15.36500000000000
H            2.56900000000000       29.16500000000000       16.15000000000000
H            2.96500000000000       29.32200000000000       14.39200000000000
H            4.29100000000000       29.37000000000000       15.63800000000000
C            5.94200000000000       27.11900000000000       15.84600000000000
H            5.84900000000000       28.00400000000000       16.51200000000000
H            6.53300000000000       27.40300000000000       14.94900000000000
H            6.45800000000000       26.30500000000000       16.39800000000000
C            0.86400000000000       22.95000000000000        9.36800000000000
H            1.56700000000000       22.25500000000000        8.86200000000000
H            0.72700000000000       23.85000000000000        8.73200000000000
H           -0.11000000000000       22.43500000000000        9.51200000000000
N            2.62300000000000       23.99400000000000       10.83000000000000
H            3.21600000000000       24.28800000000000       10.08000000000000
C            1.42300000000000       23.34800000000000       10.69000000000000
C            2.85300000000000       24.15900000000000       12.19600000000000
H            3.74300000000000       24.63300000000000       12.60900000000000
N            1.85600000000000       23.66600000000000       12.87200000000000
C            0.92900000000000       23.15600000000000       11.94500000000000
H            0.00300000000000       22.70400000000000       12.27900000000000
C            2.62600000000000       25.52600000000000       18.26800000000000
H            3.08400000000000       25.88200000000000       19.21500000000000
H            1.64900000000000       26.03700000000000       18.13200000000000
H            3.30400000000000       25.78500000000000       17.42700000000000
C            2.42500000000000       24.06500000000000       18.32000000000000
H            2.07500000000000       23.79200000000000       19.33800000000000
H            3.40100000000000       23.56700000000000       18.14200000000000
S            1.20700000000000       23.48600000000000       17.07700000000000
C            1.15300000000000       21.76800000000000       17.63400000000000
H            0.99200000000000       21.70400000000000       18.73100000000000
H            2.11100000000000       21.25800000000000       17.39800000000000
H            0.32100000000000       21.22800000000000       17.13300000000000
87
 energy: -124.696941347005 gnorm: 0.112453497632 xtb: 6.7.1 (edcfbbe)
Fe           1.67620796351325       23.56653045389025       14.85468695452293
N            3.33357782354329       22.42077388324331       14.96015971190969
N            0.54947277019111       21.91379174133693       14.66906355198025
N            0.03576978661967       24.70604931225575       14.73144597634502
N            2.82033099670983       25.21990494855679       15.00407886936734
C            4.62463824052474       22.87407955325122       15.11945536696483
C            5.53501011470767       21.74870851163926       15.08390293497099
C            4.78230944626845       20.63098844066353       14.94258516897932
C            3.41222363501620       21.06291127206154       14.84009451687969
C            0.99999148326833       20.63028409942066       14.53081153560585
C           -0.10893663291614       19.71618233610316       14.42214043162490
C           -1.24660215723505       20.47242115741634       14.52568227047168
C           -0.82735380135942       21.83731962842388       14.65408046352801
C           -1.25558354484214       24.26142688796579       14.66205651432432
C           -2.17306158109738       25.38799280627656       14.50085403679281
C           -1.39577039087766       26.50641609337410       14.48304951620854
C           -0.01483997153537       26.06933280158463       14.64578598621381
C            2.36710625154197       26.51426515003900       14.96089530022947
C            3.46154770350443       27.41124086348398       15.25724171728943
C            4.56225797590777       26.65510333927879       15.43379893967717
C            4.17028613326977       25.27287421541998       15.25885150998971
C            5.02175179715502       24.18524834674758       15.27960237596251
H            6.08144612086206       24.37445034453367       15.42429618070163
C            2.32528313228900       20.22389202170474       14.60784710046418
H            2.52697132192266       19.16381995370422       14.48592823921901
C           -1.65903490176972       22.94590470155898       14.71666586388626
H           -2.72505079846974       22.75760829671940       14.79117778330190
C            1.06164508318621       26.91679556588522       14.77836157103175
H            0.86398742953515       27.98333216791019       14.75100453048232
C            5.20940933906187       19.19905533226607       14.90281751906429
H            6.29730807123553       19.12509204530848       15.00261763187035
H            4.91088522896663       18.73961405301064       13.95297724065846
H            4.74516468566027       18.64437629385484       15.72783115057810
C            7.04286272023133       21.88490047858884       15.19418850475323
H            7.32262087929669       22.17249783617971       16.21514961795605
H            7.40704363243095       22.65698707199865       14.50605561784870
H            7.53567834338385       20.93738524987298       14.95352724753212
C            0.01534958218361       18.24160038185730       14.20689880678978
H            0.43758107645910       17.75729476363179       15.09705226482004
H            0.67831768607740       18.03578932394408       13.35713994108101
H           -0.97157083141826       17.80950597569217       14.00918701785370
C           -2.67201142367920       19.99219317557720       14.56697622284259
H           -3.38051666609339       20.30329913579729       13.79462363979369
C           -3.05700730577974       19.16768505705340       15.58283159700286
H           -2.34342641740684       18.87841339739207       16.34827396685933
H           -4.06842261442890       18.78031799384407       15.68404941524585
C           -3.65537569892144       25.26243487692046       14.31866365232284
H           -4.14711132131804       25.08333929801478       15.28389823359574
H           -3.89228949775359       24.42302532496412       13.65328931084218
H           -4.06217551759203       26.18608973578188       13.89059050448691
C           -1.83985736359994       27.91768523821463       14.29752224283223
H           -1.37180689922253       28.52099722753137       13.51611274031789
C           -2.82252804886954       28.45227811703394       15.06705070888974
H           -3.28794736067061       27.86686699825167       15.85319317831897
H           -3.16673007139075       29.47693439464225       14.94554417914385
C            3.31611290972253       28.90844407487605       15.36281026474258
H            2.58017175162500       29.16099671009137       16.13602490216110
H            2.97281135014278       29.32013790232038       14.40719362541045
H            4.27397577161147       29.36626455418862       15.62893594026058
C            5.93854447602810       27.11661642315268       15.84514520561392
H            5.85562056895216       27.99033285526745       16.50102227535701
H            6.52937889393639       27.39660095904982       14.96445549430519
H            6.45590798804487       26.32085160346527       16.38908921103818
C            0.86826932471272       22.95370162693624        9.37151188144197
H            1.55525228349715       22.26526842281462        8.86327948333476
H            0.72519407746875       23.83476205701649        8.73454079664921
H           -0.09249675709186       22.44782994585843        9.50781124338855
N            2.62408576180762       23.99036231224232       10.83802765522701
H            3.22091447500228       24.28684151868353       10.08562904579633
C            1.42231724723974       23.34912853938358       10.69521148600589
C            2.84319898849272       24.15275312307244       12.18505827698889
H            3.72354935272248       24.62244857475581       12.59498625795700
N            1.84891634052785       23.66025190402194       12.86979438360057
C            0.93878109216444       23.15836647056377       11.95324302831571
H            0.01953139040186       22.70989993452602       12.28080285740940
C            2.62762714539712       25.53960496460687       18.26969707764611
H            3.08191827336705       25.89223660798341       19.20230721037289
H            1.66441004971133       26.04334349467354       18.13381388644157
H            3.28853834522207       25.80217551916131       17.44139500528390
C            2.43955057007576       24.05454920542658       18.32962863752582
H            2.06822806749877       23.77246617930384       19.32454189454231
H            3.39499383299281       23.54823231389843       18.14392922071013
S            1.20097071263846       23.47898007061134       17.10524582949795
C            1.15857155754983       21.75287068004810       17.64346174896277
H            0.99155398433810       21.70910030570039       18.72485041591725
H            2.10325264016748       21.25825450314348       17.39599427618817
H            0.33432189775584       21.24201897148160       17.13689440968095
87
 energy: -124.708780380636 gnorm: 0.048616798334 xtb: 6.7.1 (edcfbbe)
Fe           1.66760742814202       23.57088247235608       14.85354600693865
N            3.33057197437185       22.43184025070221       14.95668226652927
N            0.54331122671270       21.91325532881010       14.66133349434302
N            0.02588899130935       24.71061402991096       14.71131712041096
N            2.81035464985501       25.22044502424451       15.00832988601909
C            4.61237972546299       22.86877681621786       15.11022926451574
C            5.53705688444179       21.75389256808882       15.08825820454010
C            4.77863591060678       20.63350885072628       14.93541097212919
C            3.40435317251436       21.07833504880392       14.83016716152524
C            0.99598096638276       20.63732147168360       14.53543149712008
C           -0.11446643874012       19.71896405449445       14.42969340971675
C           -1.25473074119170       20.46872741181449       14.53646028161019
C           -0.81913669357525       21.84253456464688       14.65182892709240
C           -1.25707181686790       24.26888591690834       14.65388245848984
C           -2.16999748417087       25.38573133417239       14.50647532495988
C           -1.40067525830044       26.51360755554773       14.47899559668020
C           -0.02577938262359       26.06444722674643       14.62974478318934
C            2.36827469482405       26.50613282388250       14.97833984160265
C            3.45551757320315       27.41961412309400       15.25461171387030
C            4.56584358744251       26.65500100113082       15.44424556903976
C            4.15103399320417       25.27969376945069       15.25294265388068
C            5.00204855087037       24.18667783485098       15.27902358800508
H            6.05734719959942       24.37472648324048       15.42580291888444
C            2.32417617415911       20.24001280625059       14.60431999826566
H            2.52692374049103       19.18304686215577       14.49540310394564
C           -1.65949791758567       22.94435787020130       14.70593187730556
H           -2.72230130577235       22.74947910561791       14.76085044129811
C            1.05904734446466       26.91065754173360       14.76861115387964
H            0.86392407272069       27.97366740550398       14.74615204605311
C            5.20823119477135       19.20547316247425       14.89797095590436
H            6.28729310469181       19.12455664464173       14.99949784976651
H            4.91275304619119       18.73852817067236       13.95914599292620
H            4.74686184741258       18.64840713077727       15.71379565174956
C            7.02157956503520       21.88303636141686       15.19964129519343
H            7.31230560306482       22.17059630272787       16.21061918164627
H            7.39151004683594       22.64491547436902       14.51417376135972
H            7.51493150911182       20.94457128773513       14.95882554892496
C            0.01021562723261       18.24881232328402       14.21447725986573
H            0.43333014721980       17.76137593363896       15.09360249048609
H            0.66555307013435       18.04022551517756       13.36845203838954
H           -0.96661525242606       17.81412504184026       14.01671064612288
C           -2.63982341406484       19.98381654723372       14.60168339405673
H           -3.33136129049238       20.31543052122058       13.82891111336399
C           -3.03593431767237       19.19095729459530       15.55859895749084
H           -2.34936648016535       18.87745666078397       16.33152023693006
H           -4.04066068252865       18.80640601684703       15.64964690434697
C           -3.64542117636860       25.26443928503993       14.32584521459605
H           -4.13968740171695       25.08180913506165       15.28089105724405
H           -3.88518677985917       24.43629775673202       13.66008088563325
H           -4.05038600681133       26.18176579820011       13.90230306716328
C           -1.85012243281480       27.89712203589528       14.32298240925802
H           -1.35812205612260       28.48740425802599       13.55281044299073
C           -2.79905678901070       28.43116814660479       15.05593116690934
H           -3.28159995264009       27.86845036992039       15.83935174472256
H           -3.14459308632948       29.44626406452074       14.92928176754110
C            3.31580577194879       28.89987216239337       15.35877957203666
H            2.58547894133985       29.15749747631086       16.12544153093718
H            2.97636453067222       29.32014083911364       14.41341124613514
H            4.26544074063492       29.35929903459424       15.61916499141625
C            5.93167358029798       27.11078122381888       15.84010432327906
H            5.86031050466331       27.98149767450212       16.48906848764393
H            6.52550648175959       27.38725107504244       14.96853341131380
H            6.45671002640512       26.32801715902406       16.38053030509715
C            0.87112401502898       22.95835854157379        9.37125892492851
H            1.55049671925746       22.27391165272687        8.86308381142660
H            0.72506524022766       23.83060474885653        8.73573442063512
H           -0.08283838347389       22.45954022857882        9.50769389267874
N            2.62620992714147       23.98407102648390       10.84344987270995
H            3.22651725992250       24.28195117223987       10.09190873125932
C            1.42148620615151       23.34852249674087       10.69582743451985
C            2.83873662357749       24.14493353805203       12.17316635577816
H            3.71081127041427       24.61266176979030       12.58293528158143
N            1.84539680529090       23.65339437923730       12.86587753062437
C            0.94860892388511       23.15869935434946       11.95962259583742
H            0.03265606872737       22.71168044717573       12.28224582991306
C            2.63089691201952       25.54872181931822       18.27820302399450
H            3.08435962141893       25.90281356641451       19.20123133396671
H            1.67203122571054       26.04224287089723       18.14447300440446
H            3.27531319320229       25.81874826949471       17.45199231189652
C            2.44988901692149       24.04683497727477       18.33883315017436
H            2.06923858477503       23.75341250641675       19.31873634668192
H            3.38982931128627       23.53260253159288       18.14068341806545
S            1.18987584849628       23.47999384556756       17.12870557578854
C            1.16515648508706       21.74372518306026       17.65535059234725
H            0.99519186126638       21.70630507887770       18.72767029384427
H            2.10114463167566       21.25899520867686       17.39517122829986
H            0.34526358963928       21.25566934937875       17.14033857436148
87
 energy: -124.711194584288 gnorm: 0.011354358944 xtb: 6.7.1 (edcfbbe)
Fe           1.66594700465446       23.57423092700094       14.85420927336880
N            3.32636648596417       22.43782930301385       14.95234070028061
N            0.54857474260577       21.91733399572614       14.65448423880448
N            0.02522003252958       24.70602118877713       14.69295897497286
N            2.80254423251069       25.22209977668157       15.01050584416787
C            4.60467517532128       22.87222260540135       15.10658450385066
C            5.52997341803127       21.75850933005961       15.08915520084185
C            4.77366955049230       20.63853921805941       14.92877674621357
C            3.40091773593336       21.08603079073850       14.82291850128294
C            1.00028588158827       20.64166512289978       14.53565282939378
C           -0.10757902497016       19.72180000359754       14.43822822220220
C           -1.24252655002924       20.47359835732100       14.54289988800640
C           -0.80931987721761       21.84822809144589       14.64740687514482
C           -1.25722644773043       24.26548410138624       14.64028885233514
C           -2.16891465456996       25.37896667178486       14.50480106083024
C           -1.39810531351028       26.50473049904373       14.47806107318132
C           -0.02582992320796       26.05805331786476       14.61831430015097
C            2.36270834684888       26.50566834383642       14.98272391108872
C            3.44945950155274       27.42006822244916       15.25398348755508
C            4.56030151453903       26.65422354338733       15.44418838858518
C            4.14097491118481       25.28151965444677       15.25256275788895
C            4.99135037587423       24.18967196503015       15.27888442025844
H            6.04417945279674       24.37815323244447       15.43003186919849
C            2.32573910745249       20.24583564274170       14.60231518640380
H            2.52982001214207       19.18985197043411       14.50239765088807
C           -1.65802974364973       22.94117248544005       14.68971943708533
H           -2.72080843616183       22.74012661961928       14.72181202498467
C            1.05525772426671       26.90734980649317       14.76293335479540
H            0.85834378353247       27.96913702937283       14.73891965445905
C            5.20404232480264       19.21112276708742       14.88986899381914
H            6.28263519077890       19.12848777082185       14.99375126481994
H            4.91094743798085       18.74127123339197       13.95192851412226
H            4.74176636606654       18.65208128397729       15.70342364668155
C            7.01042605482751       21.88438606725833       15.20671890177655
H            7.30013549991340       22.17321255632527       16.21736060791026
H            7.38333240115479       22.64267200558099       14.51947479775506
H            7.49927779841417       20.94335533493116       14.96847866611196
C            0.00931707397619       18.25174011743403       14.22636726585319
H            0.43360804441849       17.76267178276502       15.10332509354103
H            0.65903670118928       18.04028744351446       13.37741772394564
H           -0.96965064549956       17.82064759577596       14.03233144579916
C           -2.62034107046954       20.00197776411583       14.60576293989033
H           -3.30136713678350       20.35834767427664       13.83814342837014
C           -3.04069819537519       19.17161197575783       15.55258197688743
H           -2.37039187300535       18.84439257634580       16.33455090929849
H           -4.05394235426604       18.81132052751361       15.62217027478169
C           -3.64378701779966       25.26527241058690       14.33319269793494
H           -4.13434766967421       25.07612292683894       15.28819539675844
H           -3.88816448724214       24.44442576524791       13.66095525883982
H           -4.04487728237825       26.18789676613523       13.91935222827312
C           -1.83465419591573       27.88442477082597       14.33304812336623
H           -1.32073539276740       28.47218537185331       13.57800917956200
C           -2.81053095336163       28.42509955387936       15.04831334695873
H           -3.30122543459679       27.87094621268615       15.83217412745354
H           -3.13401563857230       29.44472161247622       14.91761671560405
C            3.31287733346349       28.89933593243670       15.35305057029717
H            2.58391922859459       29.16135809820775       16.11932080817456
H            2.97415976046258       29.32089857586377       14.40788083792540
H            4.26412027608951       29.35717982840783       15.60972959294042
C            5.92889635733494       27.10613998356459       15.83106056579941
H            5.86587620599917       27.98075557444514       16.47586385903129
H            6.52125279415905       27.37559280850667       14.95629005760309
H            6.45727143180576       26.32607757056289       16.37264897586400
C            0.87249686909102       22.96390551148890        9.36935456086214
H            1.54846825883247       22.27966105052156        8.85729214783790
H            0.72697438104202       23.83725837171910        8.73581368288224
H           -0.08279190335607       22.46871502827441        9.50561946273955
N            2.63093497747119       23.97634133139882       10.84448341581206
H            3.23405039424571       24.27257394151953       10.09468895557375
C            1.42350460605280       23.34626417123281       10.69483730110026
C            2.84281705705317       24.13750999399588       12.17115394500209
H            3.71338393795638       24.60445577342329       12.58156271543074
N            1.84809949255915       23.64862624248081       12.86605414311126
C            0.95369547881870       23.15581688311393       11.96090108369154
H            0.03764248317679       22.70859996838811       12.28186127646728
C            2.63247039921917       25.55113319038610       18.29684521397708
H            3.09198531185986       25.90715381133503       19.21583597054823
H            1.66954590728354       26.03958224949538       18.17402296373048
H            3.26466836911492       25.83632751649862       17.46569868837719
C            2.45846801339254       24.04444718396231       18.34802353002100
H            2.08221675331057       23.73580100884212       19.32451206687002
H            3.39287129249147       23.52574952429376       18.13457259490324
S            1.18782024666689       23.48262986190656       17.14545333822415
C            1.17118891529603       21.74141417874253       17.66489072105420
H            1.00382515552961       21.69881005052855       18.73711810212692
H            2.10656413310114       21.26080147242517       17.39531391725018
H            0.34996151729285       21.26127962812982       17.14567218043630
87
 energy: -124.712452967152 gnorm: 0.014262194267 xtb: 6.7.1 (edcfbbe)
Fe           1.66488688089616       23.57449967775397       14.84773843984069
N            3.32180614672744       22.44272980358075       14.95122161101064
N            0.55368882511631       21.91929470320778       14.65218526360268
N            0.02558971448886       24.69833446003797       14.68036207678341
N            2.79325468393873       25.22188332801279       15.01406582648884
C            4.59739611904983       22.87583995288573       15.10936911578407
C            5.52274678434581       21.76340141729635       15.09117557047687
C            4.76871153644061       20.64403179882311       14.92177466647801
C            3.39736961084008       21.09217069993647       14.81698232288918
C            1.00374077962959       20.64298858550431       14.53996767281209
C           -0.10210511772463       19.72180337993022       14.45518722617842
C           -1.23452727051786       20.47559316294679       14.55386250035514
C           -0.80103246556614       21.85223652981171       14.64063846513938
C           -1.25771966682336       24.26020847775394       14.62478241777900
C           -2.16876519718549       25.37181783650320       14.50527155019318
C           -1.39589656355026       26.49669164128022       14.48048004156687
C           -0.02537832118294       26.04975640318094       14.60917451790214
C            2.35559921344808       26.50486563998003       14.98483788945029
C            3.44170709087280       27.41930742500983       15.25306757164829
C            4.55260401152619       26.65277504290457       15.44243862076913
C            4.13015349118591       25.28172795830312       15.25640502469617
C            4.98157755895447       24.19249805856990       15.28517023849303
H            6.03282820103808       24.38275730367126       15.43839766613231
C            2.32710572297171       20.24793447788368       14.60181396796144
H            2.53339252537279       19.19288759771204       14.50707983427887
C           -1.65819723700736       22.93638680868383       14.66527258852129
H           -2.71971189464216       22.72970841200765       14.67719427220300
C            1.05073417942479       26.90354001603403       14.75576284746440
H            0.85087959918830       27.96436632586696       14.72917310319463
C            5.19853198383676       19.21732725134925       14.87841407969849
H            6.27763211183222       19.13514082668034       14.98380421853971