87
 energy: -124.652729328947 gnorm: 0.258243226371 xtb: 6.7.1 (edcfbbe)
Fe          -2.98400000000000       10.50000000000000      -12.49400000000000
N           -2.85500000000000        8.67700000000000      -11.70200000000000
N           -1.18600000000000       10.23800000000000      -13.28400000000000
N           -3.13400000000000       12.30700000000000      -13.34300000000000
N           -4.82700000000000       10.71400000000000      -11.74900000000000
C           -3.84500000000000        8.00500000000000      -10.96900000000000
C           -3.43500000000000        6.71500000000000      -10.58100000000000
C           -2.19000000000000        6.57800000000000      -11.06500000000000
C           -1.81800000000000        7.79000000000000      -11.76900000000000
C           -0.35800000000000        9.19300000000000      -13.16900000000000
C            0.87200000000000        9.35400000000000      -13.89500000000000
C            0.71700000000000       10.64100000000000      -14.53500000000000
C           -0.50200000000000       11.14000000000000      -14.12000000000000
C           -2.18800000000000       12.90500000000000      -14.14500000000000
C           -2.63800000000000       14.22500000000000      -14.59900000000000
C           -3.92200000000000       14.42800000000000      -14.04900000000000
C           -4.16100000000000       13.16300000000000      -13.26400000000000
C           -5.61200000000000       11.79800000000000      -11.89300000000000
C           -6.92200000000000       11.61400000000000      -11.21500000000000
C           -6.86800000000000       10.34900000000000      -10.68800000000000
C           -5.53500000000000        9.79800000000000      -11.01900000000000
C           -5.08200000000000        8.55000000000000      -10.66800000000000
H           -5.76600000000000        7.92500000000000      -10.09400000000000
C           -0.69000000000000        8.05000000000000      -12.42200000000000
H            0.07600000000000        7.27700000000000      -12.37200000000000
C           -0.98600000000000       12.37900000000000      -14.51200000000000
H           -0.35400000000000       12.98000000000000      -15.16600000000000
C           -5.29700000000000       12.94400000000000      -12.59200000000000
H           -6.03900000000000       13.74200000000000      -12.59800000000000
C           -1.27300000000000        5.35100000000000      -10.93900000000000
H           -1.85300000000000        4.49500000000000      -10.53300000000000
H           -0.43400000000000        5.57900000000000      -10.24700000000000
H           -0.87600000000000        5.07500000000000      -11.93900000000000
C           -4.21300000000000        5.68000000000000       -9.79700000000000
H           -4.78500000000000        5.03600000000000      -10.49900000000000
H           -4.92500000000000        6.18600000000000       -9.11000000000000
H           -3.51200000000000        5.04400000000000       -9.21600000000000
C            2.00000000000000        8.38100000000000      -13.97400000000000
H            1.68800000000000        7.49900000000000      -14.57300000000000
H            2.27600000000000        8.04300000000000      -12.95200000000000
H            2.87400000000000        8.85900000000000      -14.46500000000000
C            1.65000000000000       11.23400000000000      -15.42000000000000
H            2.11400000000000       12.19500000000000      -15.15200000000000
C            2.00600000000000       10.68200000000000      -16.58500000000000
H            1.57400000000000        9.72200000000000      -16.90300000000000
H            2.73600000000000       11.18100000000000      -17.23900000000000
C           -1.84400000000000       15.17100000000000      -15.50900000000000
H           -1.80000000000000       14.74800000000000      -16.53500000000000
H           -0.80900000000000       15.28400000000000      -15.12100000000000
H           -2.34500000000000       16.16200000000000      -15.54900000000000
C           -4.76000000000000       15.50200000000000      -14.19700000000000
H           -5.29600000000000       15.70000000000000      -13.27400000000000
C           -5.13000000000000       16.37200000000000      -15.08800000000000
H           -4.70400000000000       16.34800000000000      -16.10200000000000
H           -5.87400000000000       17.14300000000000      -14.84000000000000
C           -8.03400000000000       12.66100000000000      -11.19800000000000
H           -8.34900000000000       12.88400000000000      -12.24000000000000
H           -7.66200000000000       13.59600000000000      -10.72600000000000
H           -8.90800000000000       12.27200000000000      -10.63300000000000
C           -7.98900000000000        9.67000000000000       -9.94200000000000
H           -8.95700000000000        9.90200000000000      -10.43500000000000
H           -8.02100000000000       10.03900000000000       -8.89500000000000
H           -7.83400000000000        8.57000000000000       -9.95200000000000
C            0.50000000000000       12.78400000000000       -8.71600000000000
H            1.09000000000000       12.00900000000000       -8.18100000000000
H            0.16500000000000       13.55000000000000       -7.98500000000000
H            1.14200000000000       13.25400000000000       -9.49100000000000
N           -1.65600000000000       11.48000000000000       -8.64700000000000
H           -1.68500000000000       11.41600000000000       -7.65000000000000
C           -0.68600000000000       12.15000000000000       -9.36100000000000
C           -2.52400000000000       10.94700000000000       -9.48600000000000
H           -3.39000000000000       10.35700000000000       -9.18800000000000
N           -2.15500000000000       11.25500000000000      -10.71500000000000
C           -1.01100000000000       12.01000000000000      -10.66500000000000
H           -0.53600000000000       12.37700000000000      -11.56600000000000
C           -6.69400000000000       10.18300000000000      -14.55100000000000
H           -7.42100000000000       10.92500000000000      -14.94600000000000
H           -6.70300000000000       10.23400000000000      -13.44100000000000
H           -7.00700000000000        9.17000000000000      -14.88200000000000
C           -5.28800000000000       10.49200000000000      -15.07600000000000
H           -5.07800000000000       11.56700000000000      -14.89600000000000
H           -5.27900000000000       10.31300000000000      -16.17200000000000
S           -3.98900000000000        9.49300000000000      -14.29800000000000
C           -2.89300000000000        9.21000000000000      -15.71500000000000
H           -2.51400000000000       10.16800000000000      -16.13000000000000
H           -3.44000000000000        8.67800000000000      -16.52300000000000
H           -2.01700000000000        8.60000000000000      -15.40700000000000
87
 energy: -124.699232278639 gnorm: 0.111498800877 xtb: 6.7.1 (edcfbbe)
Fe          -3.00129367564744       10.49142894890028      -12.50944172195106
N           -2.87846115717175        8.67199962325065      -11.68798724954974
N           -1.18217744950184       10.25328094273650      -13.28328211895199
N           -3.11809000279765       12.31939126818333      -13.34764646060413
N           -4.83665922481409       10.72558910008063      -11.73539580909968
C           -3.85775025690828        8.02035652245284      -10.96954533303420
C           -3.42894167931049        6.71214918654132      -10.57996357215691
C           -2.17292044005587        6.56531818693199      -11.06662730884064
C           -1.83251821333493        7.79070580834740      -11.76021366432445
C           -0.35526453068955        9.19473681957401      -13.15918955044808
C            0.85936516751016        9.35984387667188      -13.90225673403033
C            0.73287393905127       10.61192240922409      -14.51853685017854
C           -0.50658451681847       11.13798278232322      -14.10729190331680
C           -2.18362610141679       12.91940613506765      -14.14784621073101
C           -2.64183668793092       14.21661606378701      -14.61045401508457
C           -3.89322995220862       14.40553432335152      -14.05836850301159
C           -4.14639674040585       13.18207843496282      -13.26349012761600
C           -5.62367451366148       11.81254379186116      -11.87602993427377
C           -6.91511340908861       11.61434740758447      -11.21669431726206
C           -6.87018708563157       10.35782588205545      -10.69143090053890
C           -5.55112104193580        9.81236401936547      -11.01654084639341
C           -5.09662779660968        8.55952001356468      -10.66496210264478
H           -5.77108329016033        7.93053068722647      -10.09553976845984
C           -0.67062931564307        8.04763420794400      -12.42143537367615
H            0.08859399179214        7.27394402350889      -12.38327766617728
C           -0.97901293707534       12.37926458611355      -14.51119113551149
H           -0.34674989820065       12.96812010749242      -15.16497430368775
C           -5.30969497634931       12.96156608316041      -12.57763184365360
H           -6.05354763219980       13.74625951267371      -12.59637983968368
C           -1.27495847515769        5.35925456305681      -10.94237009812784
H           -1.83779262883803        4.50990636705910      -10.54361275044228
H           -0.44128175528346        5.57446786547010      -10.26447757491566
H           -0.87593062321163        5.08010097908947      -11.92194865148447
C           -4.21057700220669        5.69182636482677       -9.80326920475072
H           -4.77935389805647        5.04843000196676      -10.48598952837465
H           -4.91395302923852        6.17373381054905       -9.11746763516464
H           -3.53174235260438        5.05880570615765       -9.22310215753310
C            1.98847528336995        8.39103019092764      -13.97795433501003
H            1.69821388993118        7.50911764108603      -14.56384537466804
H            2.27433855927775        8.04989795015210      -12.97484921027427
H            2.85836889270301        8.85145482463714      -14.45822070484274
C            1.67027992766226       11.22439203120606      -15.42377953398422
H            2.10168808187015       12.19166136940128      -15.15553257724269
C            2.01888622678423       10.67984879102466      -16.58387640762689
H            1.58824403995157        9.73831709763363      -16.90600684060591
H            2.72961956473524       11.16644433833534      -17.24033488661636
C           -1.85801386650173       15.15426738882385      -15.49539407223460
H           -1.80238472214240       14.75349286721092      -16.51503224811920
H           -0.83372370943636       15.28001191405073      -15.12457252728167
H           -2.33944855702845       16.13646632707458      -15.53855677984119
C           -4.77025061009879       15.50835555200820      -14.16483160969252
H           -5.31664471725055       15.68338404864236      -13.23659390942154
C           -5.12299163364884       16.38219262231546      -15.09933318928484
H           -4.71313487294397       16.35260333159032      -16.10418636431590
H           -5.85610084697352       17.14599375447094      -14.87399330705410
C           -8.01747549775923       12.64132917691861      -11.19914604914607
H           -8.33959788738662       12.87652041512490      -12.22115425986392
H           -7.66870349858131       13.57067653302096      -10.73291775208679
H           -8.88528365653958       12.27557176141517      -10.64122399539106
C           -7.97664193709287        9.67130868239740       -9.94783902329021
H           -8.93869768093781        9.89446886490979      -10.42304046446608
H           -8.02086662460540       10.02488231980665       -8.91030059440738
H           -7.83890902462847        8.58601047825616       -9.94637649731119
C            0.49728104457847       12.78407338560162       -8.71115337650841
H            1.08862365285194       12.02710102057151       -8.18244968726608
H            0.18006449599283       13.54554876386127       -7.99042419305156
H            1.12822420150675       13.24865477534921       -9.47285272754214
N           -1.64474457139076       11.48285575540808       -8.64341411534813
H           -1.67696961439139       11.41688052914539       -7.64054303615045
C           -0.67993992862672       12.14660460308686       -9.35796637822198
C           -2.52102099361924       10.95246095363691       -9.50765436175921
H           -3.37763410358588       10.36904385404479       -9.21361700080657
N           -2.16957653825200       11.24937588032393      -10.74035813255020
C           -1.02533798540174       11.99657044329147      -10.66682075432212
H           -0.55150196678333       12.36430214470944      -11.55761057014071
C           -6.68690917255737       10.17743313429033      -14.55569227290563
H           -7.40537300390018       10.90925940571441      -14.94135318747849
H           -6.70733392745875       10.22494244216671      -13.46485463147087
H           -7.00357927209742        9.17933500705139      -14.87155532777646
C           -5.29413384113810       10.50009257846663      -15.08908171699435
H           -5.06780973019959       11.55687420172525      -14.90227437750135
H           -5.26717541741417       10.31631812525336      -16.16953243876231
S           -4.01031056925730        9.45806723957573      -14.31332511976732
C           -2.89515557286551        9.21818172888344      -15.72802065745955
H           -2.51898861000513       10.16926695821965      -16.11856644550333
H           -3.43489992937193        8.68164641290475      -16.51541092779983
H           -2.04409457753137        8.61362397116347      -15.39871328314764
87
 energy: -124.710914766604 gnorm: 0.029673871307 xtb: 6.7.1 (edcfbbe)
Fe          -3.00666685143674       10.49332809009732      -12.50745995317199
N           -2.89581547240753        8.66751209163392      -11.68066342434639
N           -1.17994212905254       10.26303488128948      -13.28581657219888
N           -3.11324707517435       12.32986925846575      -13.35548173747496
N           -4.84131389072857       10.73516288931692      -11.72851865632393
C           -3.86584730699632        8.03424571202100      -10.97239202204563
C           -3.42533499093290        6.71462592570355      -10.57869459802891
C           -2.16417325794649        6.56368554264905      -11.06920188801584
C           -1.84654717752274        7.79603054039315      -11.75668974280192
C           -0.36000092222917        9.18882195861573      -13.14939697551007
C            0.84957473150204        9.36296077574873      -13.90592547812211
C            0.74485544609994       10.58457884904796      -14.50547153657027
C           -0.51309960804633       11.13466909842498      -14.09502094701537
C           -2.18607929491362       12.92722938214792      -14.15631683221507
C           -2.64916833145593       14.21397895669259      -14.61551717630213
C           -3.88370730679911       14.39388195315807      -14.06077278361639
C           -4.14294844280757       13.20080849672547      -13.26400344334130
C           -5.62947422870062       11.82852555121367      -11.86451494721854
C           -6.90570400994110       11.61962473455272      -11.21646781817272
C           -6.86915850440162       10.36462670044597      -10.69321003741095
C           -5.56092649267342        9.82515966556845      -11.01583346170275
C           -5.10711417403680        8.56756182929168      -10.66260880039090
H           -5.77736579025143        7.93679344422527      -10.09717083197338
C           -0.66233691424714        8.04435182774147      -12.41961344374090
H            0.09041970932458        7.26958294668679      -12.38958585586385
C           -0.97378396702477       12.37432104126879      -14.51103081628110
H           -0.33603768128752       12.95047394683680      -15.16495967993001
C           -5.31754862598545       12.97894032854953      -12.56657712993642
H           -6.06476654163504       13.75416224446643      -12.59434424716629
C           -1.27526490009880        5.37384788199810      -10.94845155192449
H           -1.82772421317240        4.52673058526261      -10.55231311541610
H           -0.44021016083907        5.58039885299991      -10.28014008193374
H           -0.87280308922739        5.09155559797681      -11.91772762709811
C           -4.21058253383212        5.70541367158758       -9.80693075579410
H           -4.77917975302789        5.06525087044010      -10.48207185805366
H           -4.90814584319546        6.17904429854070       -9.12303066257738
H           -3.54408478029784        5.07197391753513       -9.22658550174611
C            1.97973183746268        8.39607687819638      -13.98078573377836
H            1.69807772063913        7.51565145250148      -14.55995386262121
H            2.26995318465757        8.05994767086956      -12.98580656124209
H            2.84119026607268        8.85566587255095      -14.45843618397680
C            1.67789200454709       11.21837227818898      -15.42759728417162
H            2.08524247556400       12.18512154115589      -15.14570817126875
C            2.02913188162167       10.67753903940337      -16.58432701559708
H            1.61711258110522        9.73660704287891      -16.90452157724736
H            2.72741813824308       11.15679316882155      -17.24625029121317
C           -1.87278671942187       15.14024053362025      -15.48647371001440
H           -1.81019092861960       14.75138393802466      -16.50361840802973
H           -0.85599985470568       15.26628387956486      -15.11656738504086
H           -2.34872502975481       16.11607567057715      -15.52200245367350
C           -4.79116184418575       15.51204374964888      -14.12707713908454
H           -5.33289657255128       15.67472627932383      -13.19612198839532
C           -5.10759546462255       16.37112460812417      -15.09897810198758
H           -4.69238055677690       16.33396924267781      -16.09109261969786
H           -5.83058678050604       17.14359688656382      -14.90665685993626
C           -8.00552669356830       12.62641977857606      -11.19651772336295
H           -8.32836281654000       12.86299627199693      -12.21052713485492
H           -7.66708554350024       13.55183056674096      -10.73172453539278
H           -8.86467773151694       12.26172218496877      -10.64112385287041
C           -7.96548800981055        9.67217486893774       -9.95205307558884
H           -8.92525241024503        9.89121579187885      -10.41691872999508
H           -8.01081362281458       10.01559302904435       -8.91805775701064
H           -7.82959901061643        8.59564666798703       -9.94851226478393
C            0.49524784123671       12.78517044073357       -8.71110569362513
H            1.08788792094696       12.04011177159307       -8.18214343876628
H            0.18246550736333       13.54308556787259       -7.99605448176599
H            1.11949171706250       13.25028318464266       -9.46507805922507
N           -1.63820188825299       11.48025837755166       -8.64533767609176
H           -1.67454608591844       11.40971858949930       -7.64058350367750
C           -0.67468820116850       12.14126703007281       -9.35970914528150
C           -2.51999820390885       10.95841238376836       -9.52722773040882
H           -3.37332712141714       10.38038357807802       -9.23989952253212
N           -2.17607640607292       11.24995760803647      -10.75729747018050
C           -1.03270042723757       11.98820173905891      -10.66979659865713
H           -0.55553233541077       12.35732419875308      -11.55288436934439
C           -6.68450785936757       10.17347238672556      -14.56799415950396
H           -7.40133876440398       10.89750227119216      -14.94852327230721
H           -6.69936848778176       10.21825781949758      -13.48649500878756
H           -6.99195834639222        9.17865568035772      -14.87357778164759
C           -5.30036948713711       10.50131027616646      -15.10395396108972
H           -5.05319780318907       11.54212723126466      -14.90285948879214
H           -5.25662232260130       10.31625365132074      -16.17545139084665
S           -4.02757568253029        9.43237351015111      -14.31860352841489
C           -2.90012446314772        9.22432388217166      -15.73529028290977
H           -2.53320632954588       10.17987805113218      -16.09587521026734
H           -3.42942673307002        8.69050140224130      -16.51877303986834
H           -2.06469216281249        8.62658613597524      -15.38556277373967
87
 energy: -124.713160304102 gnorm: 0.016618698071 xtb: 6.7.1 (edcfbbe)
Fe          -3.01125658477925       10.49319949047927      -12.51000985875271
N           -2.89856162027946        8.67132480357043      -11.67464078379629
N           -1.18041622205229       10.26444369631914      -13.28442837281998
N           -3.11410291388292       12.33400167349939      -13.35077221359575
N           -4.83673994290035       10.74199955258010      -11.71835170090775
C           -3.86824075689119        8.04161915236466      -10.96818253964884
C           -3.42662600930109        6.72018460804014      -10.57377437652011
C           -2.16605523785252        6.57081800829891      -11.06729981883203
C           -1.85218370003226        7.80304836835804      -11.75284833390390
C           -0.36515907239391        9.18428849836523      -13.14359741316029
C            0.84540395797049        9.35808569758078      -13.90562305091514
C            0.74767700590427       10.57763624439259      -14.50414611719172
C           -0.51816083279529       11.13315596801296      -14.09209769196626
C           -2.19069353558113       12.92666009190504      -14.15701690159139
C           -2.65580603492425       14.21297869104019      -14.61229486234935
C           -3.88569824445349       14.39812220864112      -14.04426735910691
C           -4.14311038862136       13.20960456557679      -13.25157282463380
C           -5.62598041592604       11.83776214072994      -11.85067048700308
C           -6.90042934782153       11.62356689528725      -11.20794758255237
C           -6.86519895416732       10.36674268408443      -10.68827085563112
C           -5.55918206262497        9.83155443003647      -11.01048062326891
C           -5.11000433486534        8.57183776728328      -10.65822105578398
H           -5.78334266676729        7.94158390796969      -10.09676736889075
C           -0.66378814807861        8.04340715887772      -12.41707781354968
H            0.08495588006040        7.26516973495089      -12.39270024453081
C           -0.97601144938619       12.36973821837977      -14.51172172308053
H           -0.33487573198243       12.93914281559276      -15.16825736100726
C           -5.31653080262349       12.98827760358651      -12.55070850829988
H           -6.06801011913910       13.76050913293437      -12.58223910552526
C           -1.27073626274300        5.38616661371894      -10.95448583692640
H           -1.81684357426566        4.53479692307020      -10.55717203817273
H           -0.43045043711583        5.59479245709598      -10.29161179292737
H           -0.86960427912641        5.10761197802854      -11.92671016731042
C           -4.21654729603640        5.71601318341830       -9.80387159950184
H           -4.78973320901234        5.08128753611356      -10.48083071951648
H           -4.91107466360342        6.19489390977579       -9.11977092612095
H           -3.55417354010382        5.07774953040461       -9.22323001024648
C            1.97494058651002        8.39082916773372      -13.98223865484839
H            1.69244848577331        7.50912117923006      -14.55816792698059
H            2.27004304131244        8.06171173868709      -12.98689931992145
H            2.83032253367512        8.85592118457006      -14.46593521020800
C            1.68009362094397       11.21711442372208      -15.42706339502358
H            2.06421936024865       12.19157864627172      -15.14175623177357
C            2.04657193147889       10.67264883461426      -16.57774536304959
H            1.65081213183213        9.72331817335643      -16.89646511578033
H            2.73075454615081       11.16073063755179      -17.25021476841041
C           -1.88276345123047       15.13759757416940      -15.48331127255557
H           -1.82292924663957       14.75220257240105      -16.50190977483999
H           -0.86577612842199       15.25673807743217      -15.11170674169311
H           -2.35844891361507       16.11401901785976      -15.51000497985740
C           -4.79770223915513       15.52029534080835      -14.09782776615907
H           -5.34309385200018       15.68000276576066      -13.17068227940272
C           -5.08510471942889       16.36068936712465      -15.09351512856694
H           -4.65724539494164       16.29498348194335      -16.07936964481344
H           -5.80511696404257       17.14871668026962      -14.93861278372039
C           -8.00569433879175       12.62071809941015      -11.18727009678904
H           -8.32815932318699       12.85460246989769      -12.20208180948390
H           -7.67337978968455       13.54728104860926      -10.72004171826258
H           -8.85951934879293       12.24406894898811      -10.63193807504017
C           -7.95754071156197        9.66912873174444       -9.94948782075444
H           -8.91953648345143        9.88754807925226      -10.41016710144776
H           -7.99881332254771       10.00600404871807       -8.91285770214310
H           -7.81605481384580        8.59309544138876       -9.95308920687422
C            0.48960095660387       12.78599490227608       -8.71716245920896
H            1.08725345378677       12.04778435434549       -8.18298522487527
H            0.16953654410278       13.54341127856090       -8.00372990641712
H            1.11377054808176       13.25663134440572       -9.46856235028829
N           -1.64015329611287       11.47262921454366       -8.66024394919779
H           -1.67980542732807       11.39775675390092       -7.65601550899485
C           -0.67383103365803       12.13428481192277       -9.37144723299021
C           -2.52269238290449       10.95830368025932       -9.54842863773373
H           -3.38077326582217       10.38468521831945       -9.26725149019705
N           -2.17477771879506       11.25042219109505      -10.77598697630857
C           -1.03003971879045       11.98420560160332      -10.68252333544285
H           -0.54731388704025       12.35579921471277      -11.56162987521009
C           -6.68574577657501       10.16594700525455      -14.58892761372899
H           -7.40634606653896       10.88527768078255      -14.97081972362389
H           -6.69846012781381       10.21143437625218      -13.50653735016721
H           -6.98581484993288        9.16726109166872      -14.89161695967433
C           -5.30183415568333       10.49548478015758      -15.11858218876317
H           -5.03982795406944       11.52991955907553      -14.90413453878491
H           -5.24454996327264       10.31497401938443      -16.19038971765944
S           -4.04615123362433        9.40838954556429      -14.32249037637141
C           -2.90266246113896        9.23022685247263      -15.73273246546467
H           -2.54489875912673       10.20041510080708      -16.06534195427708
H           -3.41854858668480        8.70533533705282      -16.53123934602626
H           -2.06897048605419        8.63598441370424      -15.37519089065504
87
 energy: -124.714824791896 gnorm: 0.012951236112 xtb: 6.7.1 (edcfbbe)
Fe          -3.01484508278984       10.49547744502206      -12.50253922329944
N           -2.90029949022855        8.67656113108780      -11.66901958361528
N           -1.18800652975616       10.26147722745299      -13.28806183232274
N           -3.12163466183543       12.33162773531103      -13.34760326018782
N           -4.83282224539498       10.74587517879936      -11.70961254515169
C           -3.86959272045590        8.04740707159065      -10.96082546503857
C           -3.42763390034338        6.72602715982286      -10.56568284433568
C           -2.16910452289068        6.57979980109465      -11.06348004772491
C           -1.85827810937669        7.81091129210263      -11.74982231146839
C           -0.37514157970190        9.17879902498903      -13.14386706762291
C            0.83824654222378        9.35282057452457      -13.90873402165751
C            0.74406650039355       10.57250430373018      -14.50847733184503
C           -0.52900560157733       11.13064314289717      -14.09305583957794
C           -2.20318967710609       12.92177778873303      -14.15961436370391
C           -2.66622137713862       14.21166345043403      -14.60583722660109
C           -3.89032338851743       14.40438215226230      -14.02071908801447
C           -4.14543472066830       13.21578388855698      -13.23352961026720
C           -5.62391289311319       11.84347124981165      -11.83604390573218
C           -6.89650395460950       11.62623782869509      -11.19378156393817
C           -6.86081562203240       10.36637258130570      -10.67991783378436
C           -5.55606744618911        9.83517602877132      -11.00443299598569
C           -5.11128480103035        8.57418481529579      -10.65150848841408
H           -5.78851681314407        7.94580072347614      -10.09333010689382
C           -0.66861782922033        8.04178549949268      -12.41754027587464
H            0.07707277418151        7.26122145793258      -12.39613303048131
C           -0.98626614958536       12.36336663969868      -14.51575456143554
H           -0.34279800534479       12.92708515707452      -15.17532597759540
C           -5.31526110539698       12.99602034198927      -12.52949447633450
H           -6.06740170564062       13.76902744532916      -12.55644587188911
C           -1.26340747369974        5.40096005230190      -10.96050735077849
H           -1.79843179000391        4.54335388482723      -10.55891543591640