87
 energy: -128.468046770332 gnorm: 0.000049588970 xtb: 6.7.1 (edcfbbe)
Fe          17.75766963408462       56.23780007758088       35.98007106945795
N           17.42361647245236       58.20601259315697       35.82787078021966
N           15.88326570443330       55.86835397075973       35.36830357781294
N           18.09982019341065       54.26526170857148       36.13348797069042
N           19.62987339544262       56.60709615339050       36.59168555027031
C           18.28559662539659       59.20813764146128       36.13459215654282
C           17.67688974712916       60.49917255334700       35.89434176647836
C           16.42465641510833       60.24904475611508       35.42859900961906
C           16.28445108085859       58.80854323065657       35.39716060376019
C           14.95072216278055       56.78560488531262       34.99666564344083
C           13.71696125710740       56.14204399534362       34.62573121675337
C           13.91915710851287       54.79677424021374       34.79202082341701
C           15.29018266605105       54.65387422625866       35.24565981733821
C           17.20507779643713       53.26396204011841       35.91148379401223
C           17.81018863897877       51.97696789938708       36.13595487158814
C           19.10910572714554       52.22106746781366       36.50053512021320
C           19.26264825369875       53.66275414244814       36.48594628517426
C           20.58642710099180       55.69019814516528       36.88993290872195
C           21.81142022313651       56.34316329819315       37.29827588047565
C           21.56682119721375       57.67965343400755       37.24350718328477
C           20.19832928924462       57.82325925219565       36.79677567172115
C           19.57886875382652       59.04304502729119       36.59607518294759
H           20.15292642605741       59.93407536423945       36.80194725171601
C           15.13287207879831       58.15924242592180       34.99861330811640
H           14.30105860269654       58.77243413352427       34.68563747891336
C           15.88916760406128       53.43843991268255       35.51598024784615
H           15.28499858411835       52.55042649416578       35.40573029666112
C           20.42908791262047       54.31783130829525       36.83963976446516
H           21.27949668776318       53.71171181820510       37.11403202030450
C           15.35990318164950       61.20818568396482       35.01770075576686
H           15.70269785775268       62.23496005065973       35.12088409534664
H           14.46901417158466       61.08106466349446       35.63362979196888
H           15.07707441511444       61.04428516404635       33.97747332715942
C           18.35355578027768       61.80618261437693       36.13157718970903
H           19.24787829553073       61.89390634571928       35.51372539900640
H           18.65455710489983       61.89774029395349       37.17549517432948
H           17.69092590432163       62.63462564480524       35.89274563874002
C           12.50893530684623       56.83817311916653       34.10173582505397
H           12.79237561779220       57.67389720651286       33.46354684632946
H           11.89832328101654       57.22882800992868       34.91778526273205
H           11.90170133277410       56.14666760421313       33.52075146288728
C           13.01137388031988       53.69904202237011       34.54763167922029
H           13.47100113471084       52.77655816119638       34.21067999172085
C           11.69213096035704       53.73268765389037       34.71020243393490
H           11.18287897382299       54.60148119560998       35.08870267308492
H           11.07603670523408       52.87543261615241       34.49386437606700
C           17.14208419230964       50.66263916370431       35.92352490725524
H           16.48078222357629       50.69986488000987       35.05890944412432
H           16.54304374134962       50.38446022125203       36.79243564974296
H           17.88738677642264       49.88708222439437       35.75778735919996
C           20.16197147816899       51.28325589046545       36.81905360369682
H           21.16285419542723       51.59205964748914       36.53902058532417
C           19.99826336510714       50.10908037497950       37.42103145687082
H           19.03671653596463       49.77026266966709       37.76520780683676
H           20.83161844654420       49.45359795761887       37.61374764383103
C           23.05852859613244       55.62601292466512       37.68960310307369
H           23.41730350427003       55.00561504241844       36.86787485800414
H           22.87719912905759       54.97716462404661       38.54722251939418
H           23.84370809733686       56.33033447108744       37.95396955497452
C           22.47364824848018       58.81997027119041       37.55972852353013
H           23.44500512130273       58.46192410407110       37.89249287593314
H           22.04815691005784       59.44090364284483       38.34853378654920
H           22.62295249207170       59.44744627246406       36.68042037150730
C           20.25605171924671       57.27133932082502       31.08477843980577
H           19.63158666263925       57.55494385192446       30.23747289312907
H           21.00112314963190       56.55677471037414       30.73469775903924
H           20.76765001293265       58.15578028573320       31.45136360630341
N           18.67575160132752       55.55724882627501       31.99948949880873
H           18.59846061947597       55.02565536645292       31.14805365958073
C           19.43401004242845       56.68573910547258       32.17411502022447
C           18.05846800706247       55.29399133665270       33.17355850319591
H           17.39860019364454       54.46616534611128       33.33192576207671
N           18.37895249937969       56.18518164456611       34.07865111430277
C           19.23351435543741       57.05752949018644       33.47241696554092
H           19.64388389487079       57.88787161136984       34.00842268872333
C           14.92252579963212       57.09657045292943       40.72363246227732
H           15.39892595427651       57.67177770899575       41.51765135617180
H           14.42818249098385       56.23646921022529       41.17546365658112
H           14.17131296356448       57.71794565752316       40.24623433489297
N           16.99446725294045       55.87033010593341       40.03360773051359
H           17.21109561244914       55.51307666881022       40.94954189143751
C           15.92117465418643       56.66101266975045       39.71454313773165
C           17.69814877558116       55.65856071939323       38.89842603945691
H           18.59190633344322       55.07161727560001       38.84713913964541
N           17.13685245346228       56.26581694926015       37.88238343287171
C           16.03111149030839       56.89403482949523       38.37383587409708
H           15.39329916399109       57.46722222786430       37.73364180869822
