72
 energy: -105.876912994279 gnorm: 0.272197307011 xtb: 6.7.1 (edcfbbe)
Fe         -22.57800000000000      -26.23600000000000      -11.42200000000000
N          -22.58800000000000      -27.92299999999999      -12.56000000000000
N          -21.98200000000000      -25.17400000000000      -13.09500000000000
N          -22.27300000000000      -24.59100000000000      -10.25300000000000
N          -22.90500000000000      -27.39700000000000       -9.75600000000000
C          -22.86900000000000      -29.22300000000000      -12.13100000000000
C          -22.88400000000000      -30.09400000000000      -13.27400000000000
C          -22.61100000000000      -29.35100000000000      -14.35700000000000
C          -22.42600000000000      -27.98000000000000      -13.93900000000000
C          -21.90700000000000      -25.63900000000000      -14.38100000000000
C          -21.58400000000000      -24.51100000000000      -15.24300000000000
C          -21.44700000000000      -23.42600000000000      -14.46600000000000
C          -21.71800000000000      -23.82900000000000      -13.10300000000000
C          -22.07400000000000      -23.31600000000000      -10.73800000000000
C          -22.26300000000000      -22.38700000000000       -9.65100000000000
C          -22.56600000000000      -23.08600000000000       -8.55000000000000
C          -22.58100000000000      -24.49100000000000       -8.92500000000000
C          -22.93900000000000      -26.87900000000000       -8.46800000000000
C          -23.15500000000000      -27.96500000000000       -7.54100000000000
C          -23.24700000000000      -29.22100000000000       -8.38900000000000
C          -23.10000000000000      -28.77800000000000       -9.75100000000000
C          -23.11400000000000      -29.61499999999999      -10.84000000000000
H          -23.33600000000000      -30.66800000000000      -10.66500000000000
C          -22.11600000000000      -26.93500000000000      -14.78100000000000
H          -22.03000000000000      -27.15400000000000      -15.84500000000000
C          -21.72600000000000      -22.98400000000000      -12.02000000000000
H          -21.42700000000000      -21.95100000000000      -12.19800000000000
C          -22.82500000000000      -25.56500000000000       -8.10100000000000
H          -22.94000000000000      -25.34600000000000       -7.04000000000000
C          -22.52900000000000      -29.85100000000000      -15.82000000000000
H          -22.90700000000000      -30.89399999999999      -15.87700000000000
H          -21.47300000000000      -29.83100000000000      -16.16500000000000
H          -23.15400000000000      -29.20500000000000      -16.47300000000000
C          -23.16600000000000      -31.61900000000000      -13.26300000000000
H          -24.21800000000000      -31.80400000000000      -13.56900000000000
H          -23.01200000000000      -32.02200000000000      -12.23900000000000
H          -22.48800000000000      -32.13100000000000      -13.97800000000000
C          -21.38900000000000      -24.64099999999999      -16.76600000000000
H          -22.36300000000000      -24.49200000000000      -17.27900000000000
H          -21.00500000000000      -25.65500000000000      -17.01000000000000
H          -20.67300000000000      -23.86900000000000      -17.12000000000000
C          -21.11400000000000      -21.95700000000000      -14.85200000000000
H          -20.68100000000000      -21.28000000000000      -14.10100000000000
C          -21.33300000000000      -21.47000000000000      -16.07400000000000
H          -21.76500000000000      -22.10700000000000      -16.86000000000000
H          -21.08500000000000      -20.42500000000000      -16.31100000000000
C          -22.13400000000000      -20.84400000000000       -9.76100000000000
H          -22.41400000000000      -20.52100000000000      -10.78600000000000
H          -21.08400000000000      -20.54000000000000       -9.56100000000000
H          -22.81600000000000      -20.35700000000000       -9.03100000000000
C          -22.85900000000000      -22.48400000000000       -7.15400000000000
H          -22.75000000000000      -21.39900000000000       -7.00800000000000
C          -23.24100000000000      -23.20200000000000       -6.09600000000000
H          -23.12200000000000      -22.80300000000000       -5.07800000000000
H          -23.68000000000000      -24.20200000000000       -6.22900000000000
C          -23.25300000000000      -27.90800000000000       -6.00200000000000
H          -24.19900000000000      -27.40400000000000       -5.70900000000000
H          -22.39600000000000      -27.33200000000000       -5.59200000000000
H          -23.25100000000000      -28.93900000000000       -5.58700000000000
C          -23.49600000000000      -30.66300000000000       -7.87300000000000
H          -24.11100000000000      -30.62500000000000       -6.94800000000000
H          -22.52600000000000      -31.15100000000000       -7.64100000000000
H          -24.04100000000000      -31.24900000000000       -8.64400000000000
O          -20.06000000000000      -26.44100000000000      -11.29000000000000
H          -19.71600000000000      -25.95000000000000      -12.03600000000000
H          -19.58100000000000      -26.87600000000000      -10.68100000000000
C          -25.64399999999999      -27.11600000000000      -12.56700000000000
H          -26.70700000000000      -26.90600000000000      -12.81400000000000
H          -25.61700000000000      -27.98800000000000      -11.87900000000000
H          -25.11800000000000      -27.38100000000000      -13.50900000000000
S          -24.86400000000000      -25.70200000000000      -11.80200000000000
H          -24.85800000000000      -24.96400000000000      -12.90200000000000
72
 energy: -105.940108184156 gnorm: 0.115504727253 xtb: 6.7.1 (edcfbbe)
Fe         -22.49632670534471      -26.25287557931829      -11.42330484628130
N          -22.59609050401936      -27.92827997982106      -12.56544502149777
N          -21.99669434432763      -25.16239199049629      -13.09219855716642
N          -22.31316888906845      -24.58484756374816      -10.25927118002210
N          -22.90231451713357      -27.39315644721124       -9.76812937626658
C          -22.87516924616111      -29.21334366971607      -12.13910726972412
C          -22.88584113392129      -30.10677323451829      -13.27683566920329
C          -22.61424367954494      -29.35740904826235      -14.37295427064411
C          -22.42764763274308      -27.99052184712311      -13.93003988803355
C          -21.91220579295988      -25.61871969769075      -14.37691223230473
C          -21.57383513346696      -24.50772265694746      -15.25619232460868
C          -21.43971522321257      -23.40155499370325      -14.47240943569519
C          -21.71214280222999      -23.82709077177863      -13.10933495857205
C          -22.07776973610679      -23.31603011502654      -10.72055572458435
C          -22.26384058737594      -22.37079169732160       -9.64100660773951
C          -22.59550163353812      -23.08178471597645       -8.52757393867371
C          -22.59491979243781      -24.49030381885004       -8.92689186706948
C          -22.94191315645973      -26.91867118907541       -8.48125066844718
C          -23.15623255121778      -28.01056036623250       -7.55862836576468
C          -23.25656797583334      -29.18810738822232       -8.35661363876477
C          -23.09575347331158      -28.75541839818561       -9.72274393124792
C          -23.11302366756522      -29.59543166631041      -10.83141874741759
H          -23.32798588298027      -30.64618558858409      -10.65838863274482
C          -22.11898307689179      -26.93108495756191      -14.77037184212702
H          -22.03040088232133      -27.15321257238927      -15.82902063857918
C          -21.72301512735045      -22.98386175327111      -12.01488663127714
H          -21.44116526204109      -21.95333487542772      -12.19563748146619
C          -22.82258545679744      -25.58619897710407       -8.11019023493295
H          -22.92125048516039      -25.38121507095296       -7.05531669269439
C          -22.53022816165342      -29.84349024862423      -15.80664278830668
H          -22.90032942665704      -30.87157167644471      -15.87476057206431
H          -21.49193937762941      -29.82531650710874      -16.15903116129765
H          -23.14043642163925      -29.21300406357840      -16.46258959783616
C          -23.16327580501778      -31.60012178794888      -13.25821712577271
H          -24.19978119506596      -31.79661925044105      -13.56140371142896
H          -23.01161000603155      -32.01545376498046      -12.25771075976273
H          -22.49903762504165      -32.11787510824171      -13.95875888825182
C          -21.38918765516352      -24.64217712981398      -16.75154309136310
H          -22.34648050080804      -24.49654802586958      -17.26930325145661
H          -21.00964822122232      -25.63745620619179      -17.00496128143994
H          -20.68000213826494      -23.89018726030645      -17.11235226893650
C          -21.11923640789258      -21.98649716224029      -14.85848400062894
H          -20.69419262184546      -21.32644398402351      -14.10116782114313
C          -21.33386105512355      -21.48195351005056      -16.06923584029040
H          -21.76971860060498      -22.08330170468250      -16.85570161205566
H          -21.08956595861066      -20.44918602929030      -16.30426600552779
C          -22.13608714803928      -20.86211071459473       -9.76368076254970
H          -22.40991628741998      -20.52892242086162      -10.77004010788369
H          -21.10381805169249      -20.54926505777197       -9.56275857894661
H          -22.80010904010022      -20.36884871056188       -9.04652531756878
C          -22.85462013063834      -22.50566561817060       -7.17055775978272
H          -22.69370293549802      -21.43302589161097       -7.03757113726657
C          -23.24805647808191      -23.19344899893035       -6.09900285400731
H          -23.16678124229618      -22.78221487404860       -5.09731094410466
H          -23.66243568071843      -24.18663304967476       -6.19262582308108
C          -23.25217224857122      -27.91645848950267       -6.04285023487154
H          -24.17969953667730      -27.41490680178655       -5.72908333963162
H          -22.41319756331277      -27.34911809007506       -5.61610648282713
H          -23.24824175238938      -28.91850114937221       -5.60093523168595
C          -23.49192726620927      -30.61777913574095       -7.87755949341642
H          -24.09896160992543      -30.61800823512617       -6.96498122197802
H          -22.54488910338334      -31.12773121391567       -7.65059084100344
H          -24.02371649690745      -31.21789186795283       -8.62855908281226
O          -20.10476713188280      -26.43786646852015      -11.30302454903750
H          -19.72163940156042      -25.95188982892866      -12.03092256364072
H          -19.57457524027513      -26.88422921310073      -10.66775577712509
C          -25.64944876139175      -27.12500757349897      -12.57766992483339
H          -26.69838474615085      -26.90192140243013      -12.80821926787444
H          -25.61121545913246      -27.97285045998409      -11.88635930581814
H          -25.12110145139884      -27.38799602573944      -13.49916562214623
S          -24.84989983635627      -25.71310475192022      -11.79156301771006
H          -24.84979987019566      -24.96551990551572      -12.89582030728298
72
 energy: -105.960578070454 gnorm: 0.042001325777 xtb: 6.7.1 (edcfbbe)
Fe         -22.46745029249937      -26.25577282075414      -11.43026035369076
N          -22.58510299943556      -27.92945432697757      -12.56515979373929
N          -21.99573824762307      -25.15657062401540      -13.08224727963366
N          -22.33301071756901      -24.58618738246687      -10.26521475930184
N          -22.87500009688170      -27.39242568018874       -9.77930646559329
C          -22.87122390195979      -29.19802201432476      -12.14311417496865
C          -22.88763515488249      -30.10792107830257      -13.27477465095030
C          -22.61693038285346      -29.35547234651052      -14.37945982369269
C          -22.42498562198718      -27.99350813286225      -13.91765280550907
C          -21.91193376886279      -25.60559980750696      -14.36640658968502
C          -21.57111133238438      -24.51190143973857      -15.25818221068373
C          -21.43817950581563      -23.38954540347536      -14.47263890039776
C          -21.70795645635863      -23.82743227703574      -13.10870793612664
C          -22.08887258219391      -23.32215097565378      -10.70821972888364
C          -22.26672426333100      -22.36982307253128       -9.63367546203452
C          -22.61295930843312      -23.09183411638356       -8.51303682283942
C          -22.61411738126188      -24.49745576555711       -8.93601425695598
C          -22.93139061058761      -26.94316856718993       -8.49875425737527
C          -23.15688262827214      -28.04498199438261       -7.58113115497411
C          -23.25805022091583      -29.15773646327126       -8.33630818569084
C          -23.08150304353824      -28.73644605448631       -9.71224961453047
C          -23.10632190119634      -29.57405099681407      -10.82757569822244
H          -23.31765381844386      -30.62145136541211      -10.65424260839560
C          -22.12119244575617      -26.92580247630831      -14.75510066379482
H          -22.03229311974020      -27.15043556164820      -15.80937157221653
C          -21.73160809874070      -22.98437883579101      -12.00878448446059
H          -21.46324295750068      -21.95415476351815      -12.18867525966436
C          -22.82084519626619      -25.60531760249518       -8.12317659912273
H          -22.89941140375436      -25.41847423157106       -7.06854762669744
C          -22.53175475644030      -29.83146200400495      -15.79120329892972
H          -22.89650678370843      -30.85225930168364      -15.86760107811273
H          -21.50288856658942      -29.81285944783906      -16.14977807273231
H          -23.13162890041567      -29.20920184531622      -16.45195104892873
C          -23.16124077048171      -31.57706936112177      -13.25057892984061
H          -24.18972476739889      -31.78259059046999      -13.55169127419333
H          -23.00949243743829      -31.99978599281009      -12.26282904940248
H          -22.50445640183007      -32.09941563231251      -13.94393198496234
C          -21.38807382931210      -24.64596083913628      -16.73224237846325
H          -22.33506855311902      -24.50041640080849      -17.25506084458996
H          -21.01298722289554      -25.63212895027537      -16.99249098345669
H          -20.68177266379204      -23.90511537008389      -17.09864273802453
C          -21.12809323538293      -22.02714072606190      -14.85922178105460
H          -20.70538341463192      -21.38464334561361      -14.09387631870396
C          -21.33802461875212      -21.49857115640867      -16.06244424746913
H          -21.78292488073782      -22.06371315328378      -16.85859301849943
H          -21.08873068984753      -20.47433724051921      -16.28934553528602
C          -22.13868170474435      -20.88684835527499       -9.76160335297088
H          -22.40894604068175      -20.54930414795821      -10.75876901477476
H          -21.11467526365546      -20.56611146930982       -9.56499872405875
H          -22.78978175922087      -20.38310380623579       -9.05196545598153
C          -22.83914153382974      -22.53810951311154       -7.19499300703978
H          -22.61657862761860      -21.47684121790244       -7.08131499675112
C          -23.25817826267113      -23.18322788223068       -6.10402683096576
H          -23.23143682360178      -22.73548089677926       -5.12139394169250
H          -23.64625578376091      -24.18106240605640       -6.14867551608567
C          -23.25193458818993      -27.92655856000552       -6.08608806525628
H          -24.16951386474935      -27.42103297160240       -5.77419050603966
H          -22.41869987959878      -27.36098067849345       -5.66499357302585
H          -23.24652786904045      -28.91182580580628       -5.62522564013424
C          -23.49001334696744      -30.57156008135153       -7.88184035855781
H          -24.09078648073736      -30.59317403124632       -6.97426414556295
H          -22.54960154372655      -31.08493202157707       -7.66456985847513
H          -24.01184419754011      -31.16695960540520       -8.63139064555771
O          -20.16753094976689      -26.46037482681382      -11.31302246469284
H          -19.73168057353477      -25.95960486435516      -12.00687157408539
H          -19.59044686000365      -26.87491546156680      -10.66657062306307
C          -25.65582671404207      -27.13884661464029      -12.58624639603627
H          -26.69191726338123      -26.89694703752921      -12.80582579684023
H          -25.60898251013854      -27.96745509980509      -11.88815785594539
H          -25.11989118411938      -27.39494835165665      -13.49243479105701
S          -24.85827434421317      -25.71784716079507      -11.77744491720533
H          -24.82877207864636      -24.96279959756792      -12.88364962566272
72
 energy: -105.966824044331 gnorm: 0.025153906884 xtb: 6.7.1 (edcfbbe)
Fe         -22.45270601797415      -26.26102757894896      -11.43255725518525
N          -22.58148482854330      -27.92577669112428      -12.56577526280509
N          -22.00373018534187      -25.15769143919839      -13.07427753576021
N          -22.35288065702106      -24.59273970910933      -10.27502544488127
N          -22.85649901530756      -27.39382914330285       -9.79010434723080
C          -22.86477098732288      -29.19043374286731      -12.14718219734765
C          -22.88762826524462      -30.09951263326021      -13.27526075213689
C          -22.61860472819300      -29.34761327914554      -14.37931192577128
C          -22.42373246834997      -27.98975318534930      -13.91491794961258
C          -21.91599820560943      -25.60722978484488      -14.35734790680061
C          -21.57719960089133      -24.52308723852198      -15.25007195090581
C          -21.44692712743687      -23.39900594062036      -14.46751025143139
C          -21.71673747133308      -23.83011670355770      -13.10372202147310
C          -22.10755536262041      -23.32914125008704      -10.71065334524246
C          -22.27355104923032      -22.38425351046463       -9.63388088737233
C          -22.61158418665800      -23.11225460951913       -8.51426405060276
C          -22.62420162699612      -24.50922675973781       -8.94605282260058
C          -22.91202707564034      -26.94199251330121       -8.51306882303559
C          -23.14435569439275      -28.03828892355923       -7.59190627418731
C          -23.25887281025619      -29.15838201483605       -8.35476211302734
C          -23.06856125010277      -28.73456129417869       -9.72888384334252
C          -23.09585447166121      -29.56972828386531      -10.83533859938304
H          -23.30632555182729      -30.61464444076427      -10.65858939930402
C          -22.12201326237889      -26.92407608985035      -14.74846657752108
H          -22.03296259869792      -27.14724420064692      -15.80146446167039
C          -21.74956436612629      -22.98470761611388      -12.00762088142214
H          -21.49488216127633      -21.95055055261549      -12.18542341482959
C          -22.80931418958323      -25.61440251052982       -8.13092971491710
H          -22.87094134530175      -25.44187309486912       -7.07229782685480
C          -22.53176609674803      -29.81703243670938      -15.78996917879567
H          -22.89509719756211      -30.83853793042751      -15.86772510108593
H          -21.50148139127603      -29.79345289657059      -16.14570065224740
H          -23.13065428285544      -29.19202555777281      -16.44993057523147
C          -23.16108264787321      -31.56493974626641      -13.24221850470984
H          -24.19098669827886      -31.77013182730457      -13.53959260070088
H          -23.00546160309721      -31.98270958303575      -12.25238060193198
H          -22.50403496261841      -32.08763248979979      -13.93532643833861
C          -21.38452276926557      -24.65727632711405      -16.71995215796490
H          -22.32857253154194      -24.50655018185590      -17.24727979400363
H          -21.01175917928657      -25.64545499652757      -16.97814773194104
H          -20.67258262704197      -23.91809233991800      -17.08043441532671
C          -21.13237556057666      -22.04685668004493      -14.85678019490650
H          -20.70305691190341      -21.41955241643649      -14.08391341565155
C          -21.34023713669762      -21.50571313540208      -16.05582098837061
H          -21.81078414058151      -22.04730223285275      -16.85742854182989
H          -21.07745498709647      -20.48362062828079      -16.27078863415868
C          -22.13952058354635      -20.90471527925340       -9.75879391108587
H          -22.41316895886429      -20.56923463226574      -10.75623394328091
H          -21.11242708512857      -20.58874913964228       -9.56740952838171
H          -22.78510776376399      -20.39702249146863       -9.04609584072831
C          -22.81132173445861      -22.55713132007293       -7.19888729453070
H          -22.52997037471295      -21.50459571927006       -7.10855520934935
C          -23.27071685820813      -23.15832786594891       -6.09530482604847
H          -23.31123238877304      -22.65108470197391       -5.13346882914972
H          -23.64809947708928      -24.16519981656008       -6.09887876917949
C          -23.24700238110151      -27.92038165221881       -6.10689613829945
H          -24.16713402259843      -27.41120888014070       -5.81551861748067
H          -22.40879887492918      -27.35574868064211       -5.70018790003138
H          -23.24520873278864      -28.90601337526282       -5.64748368612910
C          -23.49294962934200      -30.55873174211369       -7.89465942343398
H          -24.08848340776030      -30.56979761239807       -6.98430488927089
H          -22.54548273500486      -31.05811169551807       -7.68308652864881
H          -24.01686990822236      -31.14065123129566       -8.64930181079290
O          -20.21694943851340      -26.52311715702534      -11.33275614932355
H          -19.75190668436700      -25.95555804845272      -11.96622045700066
H          -19.62444443897517      -26.86000288757343      -10.64496146513697
C          -25.65477321705184      -27.14580163885812      -12.58621127866487
H          -26.68758245991275      -26.89139847262453      -12.80647128802165
H          -25.61236930103778      -27.97266895717559      -11.88645974604076
H          -25.11357620390166      -27.40280635764043      -13.48910010703360
S          -24.85022980385548      -25.73056238598176      -11.76137934556368
H          -24.79529625047182      -24.96635211751209      -12.86131565354199
72
 energy: -105.969616816501 gnorm: 0.036540496911 xtb: 6.7.1 (edcfbbe)
Fe         -22.47390406995199      -26.26019062757825      -11.44021561180933
N          -22.58265640096542      -27.91855263926937      -12.56542672341694
N          -22.01458215788652      -25.16278316925448      -13.06406597799342
N          -22.36001081957064      -24.60580955428880      -10.28447708204524
N          -22.83206194647539      -27.38895897680508       -9.80582034485407
C          -22.85826701640573      -29.18231244265792      -12.15038232103763
C          -22.88576439495316      -30.09026264595836      -13.27530720894827
C          -22.61994891612123      -29.33931518933869      -14.37842038303217
C          -22.42402432124182      -27.98520790091033      -13.91281186763070
C          -21.92104295147116      -25.61213694439497      -14.34683058610717
C          -21.58517281671981      -24.53620199782948      -15.23961540608170
C          -21.46053926908704      -23.41082768596726      -14.46110636778094
C          -21.73215731274390      -23.83470765373679      -13.09866000224024
C          -22.12527235383481      -23.33916309001389      -10.71493146984821
C          -22.27079956032512      -22.40264355799268       -9.63335960309040
C          -22.58768169102244      -23.13638706967895       -8.51285187877488
C          -22.61395705712478      -24.52347718194881       -8.95277501862066
C          -22.88642146659025      -26.93797132844320       -8.52947287917534
C          -23.13008868374822      -28.03040020135204       -7.61114264499212
C          -23.25044209709214      -29.15163083963157       -8.37626783725021
C          -23.05215560052580      -28.72731909979372       -9.74713129176437
C          -23.08401742036958      -29.56540436947371      -10.84201594871969
H          -23.29149173377856      -30.60869767601174      -10.65974084543648
C          -22.12393851978788      -26.92368644312154      -14.74366251349635
H          -22.03351960305563      -27.14400072972315      -15.79615096265549
C          -21.77685156517356      -22.98494124251576      -12.00924097440089
H          -21.53938980044228      -21.94630715902139      -12.18550871241842
C          -22.78632468357946      -25.62143496779899       -8.13314234407229
H          -22.84460566523091      -25.45628845350312       -7.07277374977325
C          -22.53129964757106      -29.79940621800744      -15.79186713936569
H          -22.89135479112990      -30.82203429948597      -15.87564353719864
H          -21.49939739193265      -29.76789394328521      -16.14451881580986
H          -23.13093803831092      -29.17031417085771      -16.44846885307672
C          -23.16044844156598      -31.55446019886508      -13.23275211956763
H          -24.19293302624921      -31.75937370196685      -13.52249703834958
H          -22.99924146516909      -31.96368808158979      -12.23949276862227
H          -22.50588450650328      -32.08081867837446      -13.92593181825621
C          -21.37927901776292      -24.67055292666386      -16.70695225319873
H          -22.31828544920035      -24.51535282518467      -17.24273189830378
H          -21.00727907182295      -25.66088031100509      -16.96126329500949
H          -20.66114772119040      -23.93139282047949      -17.05720262285177
C          -21.13826094950394      -22.06121713376031      -14.85114599478870
H          -20.68756639645395      -21.45104903521468      -14.07659824130136
C          -21.35119582240956      -21.50939412443523      -16.04384756163741
H          -21.83192432175334      -22.03419405389426      -16.85135384424919
H          -21.06215407713939      -20.49243620089442      -16.25068124758482
C          -22.13806027359516      -20.92351471980435       -9.75597297986555
H          -22.42070344432115      -20.58918850393315      -10.75197890378021
H          -21.10729252378306      -20.61183731692507       -9.57348059959400
H          -22.77701768005186      -20.41552818637485       -9.03676303012661
C          -22.78752852519978      -22.57156078954424       -7.20152585797855
H          -22.46611050298976      -21.53234984362933       -7.13178157708991
C          -23.29797588649739      -23.12749706097119       -6.09738685467915
H          -23.33625867301545      -22.59541038826347       -5.16238443752782
H          -23.68452152943678      -24.13065736401945       -6.06313151002738
C          -23.24048987193320      -27.91058089052249       -6.13205158711924
H          -24.16134429451741      -27.39647679985500       -5.85490861755414
H          -22.40072344467224      -27.34740490171865       -5.72929159633101
H          -23.24505224773316      -28.89459658139202       -5.66926968960189
C          -23.49379473728296      -30.54502872870547       -7.91379672270073
H          -24.08434255635587      -30.54837789963943       -7.00021733557054
H          -22.54602963378190      -31.04444778211880       -7.70617875730541
H          -24.02481954138815      -31.12030295390746       -8.66652442412717
O          -20.26672467134758      -26.59841892764242      -11.34652710928676
H          -19.78548828906381      -25.95874593845470      -11.91114440376152
H          -19.66195667361134      -26.83172486777283      -10.60690212313476
C          -25.65598338662702      -27.15358416245159      -12.58516634545935
H          -26.68382525781329      -26.89036525135646      -12.81567029336990
H          -25.62356065576873      -27.98137788526333      -11.88541134040181
H          -25.10292983597457      -27.40923724687408      -13.48209315239533
S          -24.85756372912721      -25.74153884189009      -11.73943127066798
H          -24.75822210316578      -24.97376660499020      -12.83475187390407
72
 energy: -105.969236480451 gnorm: 0.047449980698 xtb: 6.7.1 (edcfbbe)
Fe         -22.48361734989392      -26.26420505822876      -11.44304297701736
N          -22.58947084540738      -27.91036423459611      -12.56532019126211
N          -22.03251003559157      -25.16912736588784      -13.05392538466783
N          -22.36555892052199      -24.61995535305059      -10.29366357816965
N          -22.81383594000665      -27.38113498548237       -9.82233631983516
C          -22.85461014262749      -29.17552496527754      -12.15358156970689
C          -22.88248471755338      -30.08175869473402      -13.27577577704357
C          -22.62069640811814      -29.33183144806099      -14.37733767022578
C          -22.42828675317707      -27.98028148043207      -13.91251954209615
C          -21.93020048245168      -25.61863177135295      -14.33666181771090
C          -21.59458936300808      -24.54944014652737      -15.22828809376975
C          -21.47811070097014      -23.42372505174518      -14.45470627595110
C          -21.75632401605436      -23.83888719656268      -13.09477419009484
C          -22.14768956284129      -23.34833432907097      -10.72202304122722
C          -22.27132644062416      -22.42080827540596       -9.63489328991286
C          -22.55953418826525      -23.16051061789145       -8.51341000664397
C          -22.60051586511193      -24.53720481665894       -8.95840525900619
C          -22.86370819318815      -26.93096358096833       -8.54490067221693
C          -23.11527792127513      -28.02077122785255       -7.63126474429159