72
 energy: -105.800292777228 gnorm: 0.342409741099 xtb: 6.7.1 (edcfbbe)
Fe           6.20500000000000       -0.10900000000000       18.38300000000000
N            6.38600000000000        1.32700000000000       17.03700000000000
N            4.86000000000000       -0.95600000000000       17.02800000000000
N            6.40100000000000       -1.78700000000000       19.29800000000000
N            7.67700000000000        0.88300000000000       19.50300000000000
C            6.94800000000000        2.65500000000000       17.25400000000000
C            6.49000000000000        3.70500000000000       16.28600000000000
C            5.50700000000000        3.05800000000000       15.44900000000000
C            5.43400000000000        1.70700000000000       16.00100000000000
C            4.26900000000000       -0.48500000000000       15.88900000000000
C            3.40700000000000       -1.38900000000000       15.13200000000000
C            3.43600000000000       -2.53900000000000       15.99500000000000
C            4.29900000000000       -2.18900000000000       17.11700000000000
C            5.58800000000000       -2.95400000000000       19.18400000000000
C            5.77200000000000       -3.87900000000000       20.30300000000000
C            6.73900000000000       -3.18500000000000       21.18000000000000
C            7.06000000000000       -1.90900000000000       20.57300000000000
C            8.21400000000000        0.40800000000000       20.66400000000000
C            9.24100000000000        1.24600000000000       21.27700000000000
C            9.25300000000000        2.44300000000000       20.41500000000000
C            8.27500000000000        2.09200000000000       19.37200000000000
C            7.95400000000000        2.95300000000000       18.24900000000000
H            8.50800000000000        3.88600000000000       18.14900000000000
C            4.53700000000000        0.83600000000000       15.32600000000000
H            4.05600000000000        1.14900000000000       14.40100000000000
C            4.63600000000000       -3.19800000000000       18.12200000000000
H            4.15100000000000       -4.17200000000000       18.06800000000000
C            7.95800000000000       -0.94200000000000       21.18300000000000
H            8.48000000000000       -1.24100000000000       22.09200000000000
C            4.71400000000000        3.67600000000000       14.27400000000000
H            5.01000000000000        4.73900000000000       14.14500000000000
H            3.62500000000000        3.62900000000000       14.49000000000000
H            4.94000000000000        3.12300000000000       13.33700000000000
C            6.90300000000000        5.16500000000000       16.06000000000000
H            7.70000000000000        5.44100000000000       16.78400000000000
H            6.02800000000000        5.83100000000000       16.21600000000000
H            7.29500000000000        5.28900000000000       15.02800000000000
C            2.62600000000000       -1.21100000000000       13.86000000000000
H            3.26100000000000       -1.49200000000000       12.99300000000000
H            2.32000000000000       -0.14800000000000       13.75300000000000
H            1.72800000000000       -1.86500000000000       13.87600000000000
C            2.68800000000000       -3.78800000000000       15.69600000000000
H            2.68800000000000       -4.22700000000000       14.68800000000000
C            2.01600000000000       -4.37700000000000       16.65300000000000
H            2.00300000000000       -3.95400000000000       17.66800000000000
H            1.45500000000000       -5.30200000000000       16.45400000000000
C            5.08600000000000       -5.20900000000000       20.45000000000000
H            5.70400000000000       -6.00000000000000       19.97400000000000
H            4.09500000000000       -5.17700000000000       19.95000000000000
H            4.96000000000000       -5.44900000000000       21.52700000000000
C            7.29900000000000       -3.61700000000000       22.50300000000000
H            7.83700000000000       -2.89100000000000       23.13100000000000
C            7.17500000000000       -4.84400000000000       22.95600000000000
H            6.64600000000000       -5.60600000000000       22.36600000000000
H            7.59900000000000       -5.12500000000000       23.93100000000000
C           10.01600000000000        0.96800000000000       22.54500000000000
H           10.58500000000000        0.02100000000000       22.43200000000000
H            9.31300000000000        0.86600000000000       23.40000000000000
H           10.73100000000000        1.79700000000000       22.73700000000000
C           10.07200000000000        3.69300000000000       20.56800000000000
H           11.03400000000000        3.57500000000000       20.02400000000000
H           10.28600000000000        3.87200000000000       21.64300000000000
H            9.52000000000000        4.55800000000000       20.14100000000000
O            4.09300000000000        0.69200000000000       19.40200000000000
H            3.39200000000000        0.40500000000000       18.81700000000000
H            3.99300000000000        1.15200000000000       20.15600000000000
C            8.58700000000000       -0.40100000000000       15.74900000000000
H            9.06800000000000       -1.10800000000000       15.04000000000000
H            9.36000000000000        0.31900000000000       16.09200000000000
H            7.79500000000000        0.15100000000000       15.19900000000000
S            7.85500000000000       -1.29500000000000       17.20000000000000
H            6.87700000000000       -1.86000000000000       16.50700000000000
72
 energy: -105.904446840823 gnorm: 0.161721077930 xtb: 6.7.1 (edcfbbe)
Fe           6.23339509176503       -0.10714669944517       18.32043564281231
N            6.31258259982897        1.43988902647343       17.04722023549012
N            4.82341704156064       -0.96817876965865       17.01340434959838
N            6.34919370889852       -1.77188364905583       19.35640955558159
N            7.67196159110736        0.88649269988738       19.52777251088769
C            6.96615019965257        2.67953242471129       17.24903992042939
C            6.49118934636313        3.68668247292349       16.27620490109085
C            5.53192479668645        3.06288142568753       15.47042991841583
C            5.43299071664264        1.70876327678810       15.97136805404033
C            4.27824293106409       -0.47018076236552       15.86253233201267
C            3.41936694172297       -1.40200706060654       15.16433516154305
C            3.44443452933467       -2.54040093750639       15.98804655115771
C            4.31043984172462       -2.22712284532875       17.11621026287520
C            5.58429733063522       -2.93735193260381       19.19559758525262
C            5.79747445634835       -3.84573409270027       20.31053486312070
C            6.72895744580097       -3.18515202839365       21.17407016127882
C            7.05353960848697       -1.90726766830710       20.57014323072604
C            8.22622284735772        0.36791813663073       20.65985703950120
C            9.21435459056151        1.25956974693096       21.25475159953767
C            9.23210990655657        2.40546396576836       20.41398018314148
C            8.26847480545162        2.09762638138924       19.35341499892602
C            7.94420809063425        2.93751037504208       18.24442363609315
H            8.49032586207622        3.87361738531828       18.15766653541989
C            4.55481158119300        0.82155663977961       15.34415260672950
H            4.06249389801609        1.13739273218334       14.43006175935308
C            4.66408907136221       -3.17174201188707       18.13107836806745
H            4.17445749849889       -4.14216687122187       18.07494091821192
C            7.93734372608438       -0.94725490572408       21.14947672358419
H            8.45703104648413       -1.23487749858083       22.06272564090558
C            4.73719343760256        3.66218891048973       14.30604814317042
H            5.01066621180381        4.71529052102242       14.15483196411736
H            3.65200326889212        3.62390895801909       14.49140086778484
H            4.94013083832214        3.12907625372845       13.36321365499024
C            6.90535968143237        5.13634567106037       16.07455806265595
H            7.69150814651862        5.43668403371095       16.77737534951119
H            6.04600670841609        5.81055988241728       16.21488170847896
H            7.28696248282373        5.28112481549782       15.05183921994885
C            2.64481350416629       -1.21359799554316       13.88563141724087
H            3.25507741850483       -1.48751343380950       13.00998819851264
H            2.32734452236298       -0.16835143476869       13.75716899606295
H            1.74939018877292       -1.85215590951476       13.88020855861044
C            2.70772161518717       -3.78226920901473       15.70864236424534
H            2.69086781498411       -4.19848151652384       14.69861741199561
C            2.01474698625711       -4.38436278374751       16.66150257171591
H            1.98926535495670       -3.96816806184631       17.66271437071012
H            1.45583301342909       -5.29454918111705       16.46394797474490
C            5.10271001801342       -5.17926583799648       20.44994372565566
H            5.69589912839248       -5.98301841718835       19.98322553016853
H            4.11741400573010       -5.17150130316307       19.96061468855182
H            4.95275186237585       -5.43970029019969       21.50624384564577
C            7.28104276608377       -3.61549042665044       22.47855250471209
H            7.81770770508000       -2.88992762636270       23.09739569398713
C            7.17170200643707       -4.84974899623225       22.95400831459031
H            6.66413907598456       -5.61447322940631       22.38418068003721
H            7.59041898477695       -5.12442636656154       23.91904191592624
C            9.99908940473947        0.97764023684773       22.51728739953918
H           10.57188425957262        0.04070232258024       22.42916068939432
H            9.32428254421188        0.87080052497799       23.38191247718119
H           10.71307348203302        1.78528700528158       22.73050934668671
C           10.05454536255029        3.66273700582399       20.56337599002254
H           11.01666572535755        3.57417575087940       20.03253362880435
H           10.27778480959050        3.86466483154200       21.62164982286714
H            9.52794566524296        4.53688449167116       20.15067108167287
O            4.12589556934874        0.67343300049732       19.37593844352389
H            3.39794895986324        0.40590391052713       18.81731590891165
H            3.99169539483687        1.16009727735291       20.16788832057404
C            8.58881600903766       -0.39765510274262       15.73366356710599
H            9.06147077355313       -1.11027756498472       15.04941138751770
H            9.34539477430126        0.30628115510763       16.09587004761378
H            7.79905494710612        0.14913069679933       15.20957648673910
S            7.88167071736058       -1.29192110293474       17.18031119825333
H            6.88762375208754       -1.86249042165422       16.50186122403637
72
 energy: -105.944635846636 gnorm: 0.047558537524 xtb: 6.7.1 (edcfbbe)
Fe           6.23435247976834       -0.08808841636684       18.28372311869358
N            6.27555596267126        1.51510206229661       17.03902868720548
N            4.82211208719793       -0.98641554575856       16.99291327870199
N            6.30931629380105       -1.75048194396968       19.40198565100129
N            7.67167135970326        0.87718984628489       19.52828754526364
C            6.94611369138758        2.69259083535435       17.25498088850306
C            6.49580356369441        3.67550415853121       16.26496195078153
C            5.56106118288456        3.07015509856117       15.48613766439177
C            5.42929073755236        1.71992389819138       15.97852748446453
C            4.29593013291793       -0.46193909617115       15.84659492820347
C            3.43755795527295       -1.41763401477496       15.19284406855432
C            3.45353721489459       -2.53885399363787       15.98695433578103
C            4.32988495043839       -2.25330361717389       17.11976459135236
C            5.57410893186145       -2.90108233587228       19.21391043585266
C            5.81662909919971       -3.81302449954324       20.31711506220434
C            6.71580893704943       -3.18696066221116       21.16191298095478
C            7.02332233011726       -1.88930440965470       20.56669534729840
C            8.22204526292952        0.33376037362039       20.64640588733754
C            9.19017546252938        1.26634632658207       21.22329698793075
C            9.20868609064226        2.36572383396522       20.40743647943408
C            8.25141219988482        2.09520374807475       19.32925125739864
C            7.91224343499763        2.91971786085444       18.24389556148429
H            8.45996459246784        3.85539573783024       18.16607022472432
C            4.57109388889494        0.81238890389659       15.38117773289090
H            4.07660028233549        1.12784842645482       14.46907630453221
C            4.68869656748141       -3.13504938347451       18.14590078872505
H            4.20804303213853       -4.10848719045390       18.08712925862230
C            7.90529259539067       -0.94559993144867       21.11554491093688
H            8.42953582255541       -1.23230948307058       22.02518022238086
C            4.76551756334547        3.65246367847187       14.33744685690696
H            5.02241508754012        4.69813707400230       14.17234743960771
H            3.68622402636780        3.61046344522604       14.51333794064052
H            4.95372778386693        3.12299527926366       13.39805611099075
C            6.91265588463955        5.11166442891222       16.08722584878267
H            7.68768318833944        5.41938341301792       16.78169281981067
H            6.05931802074120        5.78336491024303       16.21952475414361
H            7.28651176930124        5.26917741838050       15.07152004242201
C            2.66501778776236       -1.21883878272024       13.91339859672054
H            3.26269784914775       -1.48631067679823       13.03595388166292
H            2.34389140330732       -0.18485063360998       13.77841149387833
H            1.77206194384550       -1.84604494688770       13.89668060572606
C            2.71205234240871       -3.76617428889998       15.72669273549772
H            2.71678931072671       -4.16939869205738       14.71759549889208
C            2.01237008524874       -4.38899505739686       16.66967769557832
H            1.97483826270095       -3.98536618732946       17.66511156629350
H            1.45964623753612       -5.29007564024336       16.47082320734241
C            5.11950582007644       -5.14730951714487       20.45034810626342
H            5.70074408627597       -5.95392111685610       19.99023699935604
H            4.14211949292759       -5.14677599704650       19.96390229580710
H            4.95293752775406       -5.41610023378552       21.49286153743574
C            7.26148299038420       -3.61982417731003       22.44400243349700
H            7.78876781485147       -2.88668494366800       23.05087789278558
C            7.17014258311216       -4.85316610099718       22.94559774209507
H            6.68235990751390       -5.63257055908699       22.39937351032792
H            7.58346256995665       -5.11424364446030       23.90620400314061
C            9.97853408256439        0.98828042258015       22.48344949524060
H           10.55088964712801        0.05873052076189       22.40698441243502
H            9.32071791142713        0.87990720017241       23.35187483078849
H           10.68924925171465        1.78362336992228       22.70788307526972
C           10.03206462797494        3.62718449366508       20.55779688117179
H           10.99145966137407        3.55381362779120       20.03440322425373
H           10.25963896543653        3.83976514013810       21.60483279097606
H            9.51887571558479        4.50314587178394       20.15509373474403
O            4.17891156965866        0.65859103552455       19.35209879773187
H            3.41472882065587        0.41164977257065       18.82743048244017
H            3.99505959852772        1.15425138429582       20.15475917094354
C            8.58959075963889       -0.39292384630694       15.71898610620089
H            9.05627113696617       -1.11119934284193       15.05365143764265
H            9.33433054647836        0.29793105970979       16.09811225159574
H            7.80153612080614        0.15088514643867       15.21446942066852
S            7.89050572146962       -1.27543202393402       17.16176259555218
H            6.90584838025543       -1.87751887040649       16.48580604113354
72
 energy: -105.958059520431 gnorm: 0.031074258654 xtb: 6.7.1 (edcfbbe)
Fe           6.22021966282670       -0.07643648194935       18.27789992497928
N            6.22907324938539        1.54952628414549       17.07241064447693
N            4.84131311058944       -0.99019708474480       16.99318647094293
N            6.26387333683956       -1.71982946681349       19.43297758298399
N            7.64629497624803        0.86619686578222       19.50776212698752
C            6.93644970403018        2.70289880273569       17.25371675774191
C            6.50862044359739        3.68578882819592       16.26263925017854
C            5.57306829013227        3.08005126445841       15.48505540187010
C            5.42757179445448        1.73431530951927       15.98457542533809
C            4.31808717595547       -0.46588710572098       15.84955632816363
C            3.45745534264344       -1.42702194503372       15.20858697871354
C            3.47058249111796       -2.54363351186571       16.00112377000366
C            4.35091619582168       -2.25352851997741       17.12711467607563
C            5.55406881632507       -2.87038974843360       19.23117370878825
C            5.80609978431997       -3.79515903814829       20.31753907311460
C            6.70021664961466       -3.18133330547288       21.16100988629440
C            6.98907854409465       -1.87312406151166       20.57219149260819
C            8.19684281401683        0.31949358995175       20.62086015336304
C            9.16316270856824        1.25213848602775       21.19717983349614
C            9.18212618602791        2.34510920427602       20.38475892494134
C            8.22206426607463        2.08296544317918       19.31011624535513
C            7.89298472534215        2.91847598815741       18.24503619541430
H            8.43265940093375        3.85760815587152       18.18617140960657
C            4.58283993844780        0.81142204343469       15.39346788550750
H            4.08116412556987        1.12523278554843       14.48808802668736
C            4.69899406845481       -3.11883973271353       18.15684804181537
H            4.23723935186788       -4.09719299739409       18.10255031400846
C            7.88057048948422       -0.94443287483992       21.10338135551806
H            8.40741622064465       -1.23554767637166       22.00505102302023
C            4.78693270844608        3.65252677918520       14.34756283750182
H            5.04456577463393        4.69604671499094       14.18752596482741
H            3.71482271431115        3.59536419729913       14.54359304463621
H            4.98090120154777        3.10890813220355       13.42127285633205
C            6.93286361558560        5.10922402991242       16.09923035624748
H            7.70366178426309        5.40168378373096       16.80240870353748
H            6.07381797696990        5.76882513469576       16.23549169789225
H            7.30595455055794        5.26514364250536       15.08573411785949
C            2.68644360555378       -1.22624770973038       13.93709500795882
H            3.28967851008990       -1.49075151961511       13.06538955306842
H            2.36989770127459       -0.19177790886015       13.81383295126920
H            1.79583031662822       -1.85301756319193       13.92459991108479
C            2.72913241569412       -3.76827950155510       15.75223982657438
H            2.72851991329305       -4.14305399787541       14.73311445857734
C            2.01983339757576       -4.39792819520707       16.68227575823133
H            1.95802853351124       -4.00146381466469       17.68088508519947
H            1.46064475101095       -5.29209850231834       16.47156685020947
C            5.12175585041151       -5.12389955039055       20.44653999888765
H            5.71741945589850       -5.92063125156413       19.99471124183170
H            4.15379389813940       -5.11378660797493       19.94885278068796
H            4.94598550170310       -5.37969833226224       21.48881251454090
C            7.24731926970099       -3.62475265889579       22.42568571905660
H            7.76088726094271       -2.87484761024615       23.01704046440427
C            7.17482968185370       -4.85427338694651       22.93861715657358
H            6.71518759950922       -5.66365815447111       22.40463645363754
H            7.58611021247256       -5.09457712907709       23.90413768253317
C            9.95156443822085        0.99083396767553       22.45089379583164
H           10.52431500663115        0.06558152180590       22.36800316534061
H            9.29278304792126        0.88813043801534       23.31587160296037
H           10.65495106637407        1.79381291520988       22.66315262353775
C           10.00549811970661        3.59577613238636       20.54401542944501
H           10.96150199178688        3.51403879306835       20.02122911078247
H           10.22725999055308        3.79445593299617       21.59265422340366
H            9.48826582349496        4.46787601688440       20.14666416498192
O            4.23995614874597        0.65705586556236       19.32530920535550
H            3.45444045173473        0.40983906328428       18.82963423177902
H            4.03125763402699        1.14036561934294       20.13078433027981
C            8.58722020032427       -0.38693278366665       15.70775960745831
H            9.05145998153362       -1.10978381739658       15.04525819624418
H            9.33191590193581        0.29880534024032       16.09507529978096
H            7.79851294259065        0.16195879728485       15.20880378108540
S            7.89667836494772       -1.26600218528111       17.15344901516571
H            6.94554682446394       -1.90746013738132       16.46156031541194
72
 energy: -105.965827099933 gnorm: 0.019502343923 xtb: 6.7.1 (edcfbbe)
Fe           6.22322889459021       -0.07193153238138       18.25980320186314
N            6.21356896674810        1.55897293116808       17.08784794604145
N            4.86118352069847       -0.98520621362318       17.00731802493076
N            6.22162488698025       -1.68649506492211       19.45395096497666
N            7.60179836098362        0.85484104370782       19.48778346476105
C            6.90835796659111        2.71118710549000       17.27215864959063
C            6.52039946266132        3.68712725509381       16.26647948600327
C            5.58428378841342        3.08086656210995       15.48550624590928
C            5.41871626414150        1.74514542126158       16.00366798964846
C            4.33833362276453       -0.46758462268016       15.86419154764675
C            3.48321837732553       -1.43123280120152       15.22318136498084
C            3.48948713307511       -2.54486319198143       16.02144117308771
C            4.36745038692501       -2.24372259978101       17.13970970513051
C            5.52897978388947       -2.83963533850823       19.24686471734487
C            5.78793101299165       -3.77712707140330       20.31546474182904
C            6.68355729491456       -3.17019364321997       21.16199464111845
C            6.95290864068003       -1.85500877317390       20.58117454645378
C            8.15748402978713        0.31259965849166       20.59755601137140
C            9.12859138669468        1.23289896138476       21.17005223596793
C            9.14657243162981        2.32773243648632       20.35854731235624
C            8.18210319972705        2.06697333456491       19.29663971556211
C            7.86178681950979        2.92625143901793       18.25760080402197
H            8.40300274197281        3.86178550384486       18.20938643317779
C            4.58522210118961        0.81568759476190       15.40946251430111
H            4.08716532802627        1.12186402915836       14.50233621498566
C            4.69734547602291       -3.10769053827113       18.16929006325812
H            4.25852377928541       -4.09306458152628       18.11520604600927
C            7.85245401195352       -0.94009024857684       21.10408062477277
H            8.38956235232478       -1.23481093087028       21.99381551730263
C            4.80848522518755        3.65032260475898       14.35108433323181
H            5.06661476959757        4.69294635275648       14.19207360258878
H            3.73957792902850        3.58779506034503       14.55666716427724
H            5.00503270220510        3.10043708705649       13.43090741888647
C            6.95916632109153        5.10285754588790       16.11391482157678
H            7.72646833570511        5.38030601737388       16.82791828082919
H            6.10314766642829        5.76447751038496       16.25394621218440
H            7.34136548628061        5.26816614011603       15.10624204781663
C            2.71404388397921       -1.23212273971322       13.95918007207361
H            3.32239031937052       -1.49317569490963       13.09115942801531
H            2.39853698625953       -0.19685933899407       13.84656993108523
H            1.82627557336662       -1.86145747878037       13.95016331831198
C            2.73927757829672       -3.76390944153259       15.77948503274712
H            2.75099678183755       -4.12481306492864       14.75617944255771
C            2.02082557431648       -4.39999444013570       16.69590108665607
H            1.95519913090040       -4.02945254125263       17.70582223450061
H            1.46900815446450       -5.29734213290938       16.47271754144239
C            5.11781264435936       -5.10100834083775       20.44329576301883
H            5.73006794578976       -5.89133235302696       20.00591159312224
H            4.15835939126913       -5.09386035944221       19.93144147240011
H            4.93701188826735       -5.34167733092783       21.48803905139875
C            7.23215923828438       -3.62557426423819       22.41484889375051
H            7.72576230668723       -2.85901980741705       22.99950442901861
C            7.18410823064900       -4.85426150348425       22.92825254994155
H            6.74804461024334       -5.68951862349542       22.40796110864209
H            7.59545598287058       -5.07340518581900       23.89971458144044
C            9.91866757907158        0.98599270547976       22.41480038057227
H           10.49562873497157        0.06541780425896       22.32997195886803
H            9.26029294869235        0.88970238092878       23.27917942338939
H           10.61373795855506        1.80022901366914       22.61004659149524
C            9.97179787080453        3.56486639550252       20.52293338603621
H           10.92520143290171        3.47376673909919       19.99956230819659
H           10.18973500332030        3.74743954100873       21.57447644416544
H            9.45423586158422        4.43765134708508       20.13178735795049
O            4.31560300762912        0.66959168179124       19.29191290148177
H            3.51398545718214        0.40222682937762       18.83082641113269
H            4.08275807069465        1.12277091018639       20.10714684241815
C            8.58739420900110       -0.37611397600992       15.69416527113842
H            9.04463770426421       -1.09909815169709       15.02603005088168
H            9.33590226975403        0.30686865400732       16.08007434685273
H            7.79538085292305        0.17693256500393       15.20153484042913
S            7.91075297210602       -1.26417296675229       17.13992628014855
H            6.99325138731163       -1.94787127419479       16.43921188892468
72
 energy: -105.969110883578 gnorm: 0.018707640537 xtb: 6.7.1 (edcfbbe)
Fe           6.21820038560542       -0.07199765973280       18.26159476901901
N            6.19722164965249        1.55530110344353       17.10683470977893
N            4.88069097027963       -0.97693660051397       17.02244961977362
N            6.19896680160944       -1.66994215948688       19.46284787250664
N            7.56449880618456        0.84120579249403       19.46847790122462
C            6.90425738891130        2.70832908175746       17.27114683297237
C            6.51959674810178        3.68557318764728       16.27456381743412
C            5.58877137873628        3.08006311689422       15.48763303435559
C            5.42108609721731        1.74432256904680       16.00449292108766
C            4.35620536254987       -0.46669451030231       15.87665273026572
C            3.50181507748205       -1.43044742032885       15.23772480516050
C            3.50423610919647       -2.54086248876904       16.04135398720540
C            4.37893719087441       -2.23167190388224       17.15291938741728
C            5.51148066099139       -2.82453645406719       19.25773072084942
C            5.76798296742657       -3.76408007931810       20.31960850281820
C            6.66227768726164       -3.15900323570650       21.16795264504252
C            6.92585624066933       -1.84560043856123       20.59074566093745
C            8.12266107118709        0.30719696569984       20.58014434073833
C            9.09444051064103        1.21891151385867       21.14907045587514