78
 energy: -116.057558610967 gnorm: 0.000134546420 xtb: 6.7.1 (edcfbbe)
Fe         138.32250805283434       -3.10991303596530       11.35460033066216
N          137.32897903259493       -3.67191815059360        9.69450114632812
N          136.59079349741700       -2.90530304697015       12.32012672250208
N          139.32367615218331       -2.65503272309783       13.01242768719826
N          140.06026275587081       -3.33494927716396       10.36690486703469
C          137.86148797437627       -3.95769184346985        8.47545878588024
C          136.82234211606175       -4.30652879060981        7.53353757113153
C          135.64559998949758       -4.22092926995991        8.21154265287477
C          135.98090323530769       -3.81263416190114        9.55663345527065
C          135.34376230154763       -3.13127037725989       11.82645384729943
C          134.34014748796497       -2.81881031889635       12.81039085139418
C          135.00955564651460       -2.35973458367857       13.91208677596105
C          136.42051040023159       -2.45347560547805       13.58841359978159
C          138.78699148647189       -2.35020807131046       14.22415594155940
C          139.82171536227122       -2.12888598042775       15.20344707151059
C          141.01249310563503       -2.29465633953613       14.54848079058095
C          140.66982215354204       -2.62778467568541       13.17810859962955
C          141.31029331817484       -3.13293075410394       10.86430353001429
C          142.30539418253014       -3.30417577963724        9.83028685494137
C          141.62526732459978       -3.61205481498388        8.69279336683022
C          140.22421561983509       -3.62687661807422        9.04796646402891
C          139.20766200550261       -3.92680172909637        8.16076494581618
H          139.48587311809536       -4.15450282439242        7.14331813966124
C          135.04901920933358       -3.57529583756904       10.54780180623970
H          134.00903632344455       -3.72642045421159       10.30109507297163
C          137.43671350086026       -2.23105119952141       14.49601956699122
H          137.15041068606885       -1.96481025222368       15.50135851057599
C          141.60595074793520       -2.82389536139482       12.17884534695996
H          142.64773272334699       -2.71677287955919       12.43994261600432
C          134.25759497590229       -4.47625381677653        7.73219288843259
H          134.25976802160136       -4.79738799307677        6.69349630710176
H          133.65123336327483       -3.57322964039964        7.81026378407883
H          133.78231068782773       -5.25368558373563        8.33070575442240
C          137.06715113906571       -4.68026777505860        6.11173633265615
H          137.70701068863633       -5.56100433638409        6.05053612198472
H          137.56245292145181       -3.86635929279928        5.58173670618596
H          136.13200553922647       -4.90086882059975        5.60286359472821
C          132.86958150272480       -2.93404166782188       12.59992620521849
H          132.60349977416038       -3.94723941664006       12.29785638159680
H          132.53608495187885       -2.25099777396786       11.81738126832380
H          132.33268062163876       -2.69097806085243       13.51330611124741
C          134.42472341925088       -1.87527799630963       15.14516640642090
H          133.53504147179046       -2.40131136293945       15.47482047476859
C          134.86098544501021       -0.84014405578123       15.85408933478553
H          135.70767471002594       -0.25162296315962       15.54356497142653
H          134.37013409557093       -0.53179454830566       16.76241913461419
C          139.58822740272990       -1.84825851885305       16.64649569519720
H          138.73473051992889       -2.41523496695706       17.01447799313871
H          139.38514657929386       -0.78841621936302       16.80955984267467
H          140.46673235295086       -2.12265738314047       17.22705081464106
C          142.36165367739571       -2.20604200268152       15.06119273701251
H          143.08096017910717       -2.87545075165078       14.60336508682786
C          142.77079806112556       -1.38171992592827       16.02034308804926
H          142.11284559238342       -0.66386283022909       16.47797855928312
H          143.79186240516378       -1.38049085688166       16.36447067065314
C          143.77290768161859       -3.15786855932376       10.04415142196812
H          144.12744807373068       -3.88152712885835       10.77873566402468
H          144.00900883343476       -2.15961441061129       10.41330644244281
H          144.31728536063366       -3.31798101798605        9.11673677401208
C          142.14920519757464       -3.89282089375707        7.32613766802276
H          143.23276552219730       -3.80724164906553        7.30217234993396
H          141.73300125950291       -3.18946019756152        6.60463498696375
H          141.87828306661481       -4.90066858261478        7.00988215047596
O          138.45203496869078       -5.34752037461372       11.84061502774305
H          137.83742164973987       -5.68906473718329       11.18204516317735
H          139.34174568706089       -5.53197867658286       11.52046176564499
C          139.49059180785400        2.22448512669250       10.24792235859306
H          138.96880143210285        2.99329014272255       10.81765450480959
H          139.51683925695423        2.53356304691210        9.20301151184162
H          140.50945867535376        2.15078548335335       10.61485542509031
N          137.51280022335001        0.70573645884955       10.01628332980187
H          136.89951839105427        1.39779706057316        9.61814056435786
C          138.81429531213379        0.91064757824249       10.39290521938288
C          137.20847530466480       -0.58512770125528       10.27952715873229
H          136.25358019537558       -1.02851556003945       10.08582225013368
N          138.23749557435070       -1.20919005591746       10.79932670227220
C          139.24406857672568       -0.29196125461207       10.87609700247696
H          140.20295834009167       -0.55685078025672       11.27081137503177
