78
 energy: -116.058053205321 gnorm: 0.000044956238 xtb: 6.7.1 (edcfbbe)
Fe          -5.05272708457861        5.70955615039244       -8.46453574552032
N           -5.02116164735278        7.46787140324927       -7.52959685066249
N           -4.54132149969314        4.78217556465921       -6.77590864583108
N           -5.00470589391828        3.95280356827524       -9.44964336114888
N           -5.53833044638780        6.64016427136907      -10.18308757715184
C           -5.25576967225601        8.69260707481951       -8.06898933919876
C           -5.11528199255882        9.72955742213492       -7.06897788806142
C           -4.79797045281266        9.09767889403661       -5.90851373249308
C           -4.74645435138856        7.68421396060592       -6.21686587149629
C           -4.36984624937869        5.35343758520953       -5.55514673462885
C           -4.04032727871831        4.36034665864515       -4.56346287621586
C           -4.00576620441868        3.15908905172416       -5.21886710975677
C           -4.33039403128951        3.45219749687049       -6.60312585829086
C           -4.70263092061094        2.73272999103439       -8.92258064235627
C           -4.78786680665303        1.70536398288399       -9.92677191475349
C           -5.17096863373814        2.32999260072939      -11.08552805272802
C           -5.29641134697425        3.73634768645566      -10.75916604500611
C           -5.80169694599023        6.05596042567308      -11.38400469252580
C           -6.19972895609877        7.04732386284863      -12.35718514648386
C           -6.16979658958788        8.24722820986491      -11.71562959072969
C           -5.75891202660435        7.97170129460750      -10.35836585608167
C           -5.60911465346430        8.94017910113244       -9.38276585263709
H           -5.79012759283930        9.96562145701956       -9.66707895941815
C           -4.45856905428766        6.70774281641936       -5.28596460936947
H           -4.26845689889521        7.02829228253876       -4.27308363126615
C           -4.38292504331233        2.49406576723102       -7.59667545849211
H           -4.17186341266740        1.47352655875550       -7.31601511296171
C           -5.68830971252326        4.70708751286834      -11.66264874718786
H           -5.92954638268431        4.38802074346386      -12.66478226984971
C           -4.53534763815797        9.67422640883998       -4.55980249203564
H           -4.62758384145620       10.75747318562562       -4.57668100505393
H           -3.52916233416419        9.42051769716321       -4.22616528160731
H           -5.24300264888760        9.28079675178564       -3.82954106809517
C           -5.29531194808338       11.18506983262172       -7.33545759983334
H           -6.30662885063438       11.39075124868631       -7.68813631175085
H           -4.59587552371087       11.52335869328133       -8.10012454077909
H           -5.12344445112955       11.76709072410511       -6.43346670685947
C           -3.85222374270808        4.62889556227668       -3.11130036642381
H           -4.55365127784249        5.38688467248763       -2.76588165452760
H           -2.84138518333278        4.98728755904157       -2.91035059506027
H           -4.01344226883877        3.71753036055560       -2.53892163143671
C           -3.74167951768633        1.83717907424106       -4.69533944382989
H           -4.28271520250641        1.02725597799204       -5.17156972655530
C           -2.90149237383994        1.55275006749953       -3.70544125142398
H           -2.30175011509918        2.30798745479179       -3.22863425137154
H           -2.76427962639018        0.54286600507257       -3.35569611628534
C           -4.44533930505460        0.27160075935982       -9.71747719811884
H           -5.28991977645075       -0.27345009861507       -9.29233447933962
H           -3.60223255269176        0.17218739614991       -9.03540217259081
H           -4.18208516718077       -0.19128015135114      -10.66653874247162
C           -5.38482246046924        1.76750179504560      -12.40017380308971
H           -5.13649793369001        2.41600885351842      -13.23262652655912
C           -5.85743710197413        0.55116683468306      -12.65301428922368
H           -6.16586681655931       -0.11863905453465      -11.86961499097058
H           -5.97725466452529        0.19247085396925      -13.66192022018348
C           -6.55564806972428        6.74208857463836      -13.77175982000707
H           -7.38408767450887        6.03475218621653      -13.81415223579381
H           -5.70721335681325        6.29934883759459      -14.29452211165856
H           -6.84863882479784        7.64561210550814      -14.30087743312672
C           -6.48316488545538        9.60706472980243      -12.23942810544281
H           -7.30459656931705       10.05532336441101      -11.67962183121215
H           -6.76820876523672        9.56172767657516      -13.28760175812496
H           -5.61645379311604       10.26218830755976      -12.14808156397167
O           -2.86302886101345        5.95411463835377       -9.10176203325215
H           -2.68504556730390        5.07731582238658       -9.45912464666131
H           -2.98305640410452        6.54702866109284       -9.85154591165111
C          -10.04436857883332        3.64810801802954       -7.08381265950749
H          -10.77726373286681        3.54335095756265       -7.88379380461619
H          -10.55239738380964        4.04747049047864       -6.20615581061821
H           -9.65132559995037        2.66575807318419       -6.84173820835244
N           -9.12884724471404        5.85049354498050       -7.84705912579417
H          -10.01382303656289        6.33040484455015       -7.85569504449129
C           -8.93247217087299        4.53926368119588       -7.50092190399836
C           -7.92536456955827        6.37270413478041       -8.17429526693919
H           -7.77459240978337        7.38540503348910       -8.48672946869081
N           -6.97979638910661        5.47234690243873       -8.05661767619811
C           -7.59067634107442        4.32693082216955       -7.63790777287220
H           -7.02851566674313        3.43282673315398       -7.46521516921364
