78
 energy: -115.971423632182 gnorm: 0.234802048286 xtb: 6.7.1 (edcfbbe)
Fe          44.77700000000000        7.58000000000000      -81.37600000000000
N           46.18900000000000        8.26200000000000      -82.58099999999999
N           44.56900000000000        9.36200000000000      -80.47100000000000
N           43.24999999999999        6.89600000000000      -80.15700000000000
N           44.94000000000000        5.90500000000000      -82.25900000000000
C           46.72500000000000        7.61400000000000      -83.67200000000000
C           47.61800000000000        8.48000000000000      -84.36999999999999
C           47.50000000000000        9.67700000000000      -83.76500000000000
C           46.55799999999999        9.56400000000000      -82.70899999999999
C           45.24800000000000       10.43600000000000      -80.84000000000000
C           44.92000000000000       11.50300000000000      -79.98799999999999
C           43.92499999999999       11.07100000000000      -79.18500000000000
C           43.70800000000000        9.67100000000000      -79.52300000000000
C           42.45199999999999        7.58400000000000      -79.35999999999999
C           41.40400000000000        6.72200000000000      -78.87500000000000
C           41.50900000000000        5.53300000000000      -79.51599999999999
C           42.69000000000000        5.65800000000000      -80.32799999999999
C           44.23300000000000        4.78100000000000      -82.00100000000000
C           44.76600000000000        3.62000000000000      -82.77499999999999
C           45.71800000000000        4.07400000000000      -83.60400000000000
C           45.74700000000000        5.50300000000000      -83.29300000000001
C           46.63800000000000        6.28400000000000      -83.96399999999998
H           47.27799999999999        5.84900000000000      -84.73000000000000
C           46.22000000000000       10.56200000000000      -81.82999999999998
H           46.74499999999999       11.51400000000000      -81.91200000000001
C           42.72300000000000        8.87700000000000      -78.95600000000000
H           42.12800000000000        9.29700000000000      -78.14500000000000
C           43.23200000000000        4.66500000000000      -81.06900000000000
H           42.83100000000000        3.66400000000000      -80.90900000000001
C           48.21899999999999       10.90500000000000      -84.09800000000000
H           48.76499999999999       10.76700000000000      -85.05600000000000
H           48.95199999999999       11.14000000000000      -83.29700000000000
H           47.49799999999999       11.74300000000000      -84.21099999999998
C           48.49799999999999        8.12700000000000      -85.52400000000000
H           48.12000000000000        7.20200000000000      -86.00900000000000
H           49.53399999999999        7.94800000000000      -85.16500000000001
H           48.49100000000000        8.95200000000000      -86.26800000000000
C           45.43900000000000       12.94200000000000      -80.00600000000000
H           44.69199999999999       13.60000000000000      -80.50000000000000
H           46.39300000000000       12.99000000000000      -80.57400000000000
H           45.59900000000000       13.29600000000000      -78.96500000000000
C           43.39200000000000       11.94400000000000      -78.15000000000001
H           43.30300000000000       13.02500000000000      -78.33400000000000
C           43.00200000000000       11.48100000000000      -76.97299999999998
H           43.07200000000000       10.40700000000000      -76.74400000000000
H           42.60300000000000       12.16400000000000      -76.20900000000000
C           40.35399999999999        7.20200000000000      -77.92200000000000
H           40.03999999999999        8.23000000000000      -78.20300000000000
H           40.76400000000000        7.22000000000000      -76.89000000000000
H           39.47000000000000        6.53100000000000      -77.96800000000000
C           40.78400000000000        4.25900000000000      -79.32299999999999
H           40.71900000000000        3.54700000000000      -80.15800000000000
C           40.19900000000000        3.91600000000000      -78.19100000000000
H           40.23000000000000        4.58800000000000      -77.31999999999998
H           39.67300000000000        2.95400000000000      -78.10399999999998
C           44.40300000000000        2.19300000000000      -82.75300000000000
H           43.88700000000000        1.92700000000000      -83.70000000000000
H           43.71800000000000        1.99300000000000      -81.90100000000000
H           45.31999999999999        1.57400000000000      -82.65600000000001
C           46.60000000000000        3.27500000000000      -84.54400000000000
H           46.05499999999999        2.36800000000000      -84.88300000000000
H           47.52600000000000        2.96300000000000      -84.01500000000000
H           46.85900000000000        3.89200000000000      -85.43100000000000
O           43.31300000000000        8.75400000000000      -83.39100000000001
H           43.93899999999999        8.96400000000000      -84.08400000000000
H           42.43800000000000        8.91200000000000      -83.40700000000000
C           47.94400000000000        4.54700000000000      -77.74200000000000
H           47.55600000000000        4.53100000000000      -76.70099999999999
H           49.04500000000000        4.69000000000000      -77.71400000000000
H           47.69899999999999        3.58100000000000      -78.23199999999999
N           47.42700000000000        6.99900000000000      -78.11700000000000
H           47.94500000000000        7.31800000000000      -77.32299999999998
C           47.30700000000000        5.67300000000000      -78.49600000000000
C           46.75800000000000        7.75600000000000      -78.95999999999999
H           46.69200000000000        8.84200000000000      -78.89800000000000
N           46.19799999999999        6.97400000000000      -79.86900000000000
C           46.52000000000000        5.66400000000000      -79.58100000000000
H           46.14999999999999        4.84800000000000      -80.18800000000000
78
 energy: -116.020812013038 gnorm: 0.090718164318 xtb: 6.7.1 (edcfbbe)
Fe          44.75385061379016        7.57649448812397      -81.41426547123483
N           46.15344768231379        8.26507897983684      -82.61907499919651
N           44.55717388258726        9.34989091793902      -80.50170598230810
N           43.23468499643217        6.89654683657239      -80.21894551108717
N           44.92710484125053        5.87524627762565      -82.30116487080524
C           46.75854737558884        7.61973009866025      -83.66281387828336
C           47.62997119035187        8.49513123984407      -84.37873500836592
C           47.51480764988192        9.69771413975655      -83.77087261074928
C           46.58399912185516        9.55596705986652      -82.69512391594466
C           45.27347274245608       10.44158901773199      -80.83383215168517
C           44.91288462064549       11.53297036576242      -79.99274213465262
C           43.92452790202730       11.08384719890410      -79.16826851953680
C           43.70987281814681        9.68106267175619      -79.51122270181563
C           42.46537794694993        7.57694249236128      -79.34985463338607
C           41.39500181601668        6.73236060319784      -78.86876817633423
C           41.52235352620620        5.52489047027663      -79.49458192490243
C           42.69615018986508        5.64827785999320      -80.32764261311890
C           44.24899060666412        4.73755914208761      -81.99263512705006
C           44.75718581709170        3.60223491227577      -82.76980174912777
C           45.71607876489109        4.07375715746030      -83.59469910059453
C           45.78053219129828        5.48800656187702      -83.29598648349608
C           46.66140482675088        6.28692600911589      -83.96023391483160
H           47.27918567898385        5.85996091082200      -84.73424843504348
C           46.23759455348441       10.55789836846101      -81.82022310051848
H           46.73539344183741       11.51304819129624      -81.92234202882113
C           42.72844878451419        8.87953217973420      -78.94941689625141
H           42.11752350854893        9.30317864416116      -78.16382845681834
C           43.23680969181462        4.62939650247439      -81.06826714752926
H           42.81223378448411        3.64564844621702      -80.92228315210349
C           48.23326095424620       10.93482836726419      -84.10673423947283
H           48.77240509047554       10.79687941596161      -85.04819195227738
H           48.95402474547353       11.16564159902792      -83.31446272130702
H           47.52358452479969       11.76170549119822      -84.21035964944568
C           48.49822522618382        8.12841948474657      -85.53022253008771
H           48.13418261289888        7.21755768299841      -86.01415497805044
H           49.52339878995407        7.95277712308344      -85.18299130275210
H           48.50385030391233        8.93671312821507      -86.26800824755519
C           45.44145923146483       12.94080052794798      -80.01071695866101
H           44.70901012132631       13.59741462530629      -80.49406695439149
H           46.38349323231306       13.00021129350469      -80.56137763753107
H           45.60313862285145       13.29243480602481      -78.98696097822436
C           43.36083984313452       11.93193056159880      -78.14010339283580
H           43.30423127485193       13.00204002624096      -78.33839149624595
C           42.98504786424039       11.47906132942491      -76.95291718625532
H           43.07258079979470       10.42715343320603      -76.71304704133560
H           42.60268409197515       12.14997969944336      -76.19496375694079
C           40.34590709513130        7.20638414595373      -77.92274148386278
H           40.03529177356452        8.22166299623867      -78.19070835281551
H           40.74438665500451        7.22335897965732      -76.90076063221233
H           39.47403378406898        6.54693417108169      -77.96008082081154
C           40.77979570608858        4.27655243618803      -79.32062292909033
H           40.73559572576580        3.57921543732065      -80.15800721923262
C           40.18947430258198        3.92110240027831      -78.18736800131060
H           40.22653959942476        4.56241109342975      -77.31599010809751
H           39.67672235036640        2.96997884344238      -78.09625402881808
C           44.37838027794518        2.17518665280757      -82.73700498031911
H           43.88054260645876        1.91032276653106      -83.67817566349707
H           43.71002770931168        1.96304647349149      -81.90099525245434
H           45.28704034596100        1.56815286979409      -82.64803151623768
C           46.58518259503322        3.29060451194981      -84.53634614718889
H           46.06178975918148        2.39039177705849      -84.87688644382172
H           47.50568219476848        2.97543457843163      -84.02792064018455
H           46.85710068438113        3.88134462476593      -85.41662896294422
O           43.35360938080525        8.72052865902003      -83.35460775341086
H           43.94309256322652        8.95927821999640      -84.06740869286402
H           42.43237827162619        8.91011784948865      -83.39544185666472
C           47.94261476602947        4.55290225628252      -77.73723698651226
H           47.56651187053252        4.52380924966329      -76.70833564286565
H           49.03071123110693        4.67925571207701      -77.70892622443841
H           47.70528911348195        3.60262884971378      -78.22267784533109
N           47.43504846977667        6.98775425293231      -78.11161701829340
H           47.95536516452184        7.31239351392757      -77.31459400338625
C           47.30599392497546        5.67161423821785      -78.48718304318774
C           46.74693467268943        7.74292871916914      -78.97618762918175
H           46.68406662953509        8.81720074803338      -78.91398693818799
N           46.17406298464324        6.98255080732569      -79.88829991435807
C           46.51371371065002        5.68429252406451      -79.58962364365335
H           46.15208618473612        4.87022330228099      -80.18909790580362
78
 energy: -116.037487023389 gnorm: 0.030315942387 xtb: 6.7.1 (edcfbbe)
Fe          44.73744927975152        7.58239822984414      -81.44488125499053
N           46.14276070400677        8.26955498329535      -82.64482610197753
N           44.54603990926321        9.34749221468692      -80.53090666537953
N           43.22030499741670        6.89879815089237      -80.28362184120094
N           44.91860377129658        5.84226175318512      -82.32846548180144
C           46.78388487264496        7.62827015408375      -83.65981572748001
C           47.64931801529783        8.51171323250938      -84.38207735977699
C           47.53727704222890        9.71852746734423      -83.77015907923972
C           46.60402594588506        9.55313752302848      -82.68844363514592
C           45.28539580307026       10.45191901005731      -80.83127662854547
C           44.90724700010582       11.55353073426960      -79.99331265773618
C           43.92996597064940       11.08854014846119      -79.15307126894392
C           43.71118980928106        9.69342951881500      -79.51180630330910
C           42.47377678274576        7.57654401148934      -79.36634801864950
C           41.40331383554079        6.74298046062218      -78.86519410733824
C           41.54444000744819        5.52037942265998      -79.47259145160240
C           42.69655350499408        5.64541605379208      -80.34242981499222
C           44.25364692154781        4.69825363157381      -81.99413862278644
C           44.75261884971663        3.57922005502512      -82.76084038318304
C           45.71633709898629        4.06461021280010      -83.58289650556038
C           45.79990415188854        5.46890875553557      -83.29860652793286
C           46.67007506667476        6.29229537870392      -83.96117501390033
H           47.28420974876271        5.86967321653781      -84.73451205603170
C           46.24277123365546       10.55978750697896      -81.82043884876958
H           46.72931139986699       11.51491113228124      -81.93516151452117
C           42.72919846563538        8.88299103591818      -78.96682789750632
H           42.10652796332000        9.30389415713558      -78.19389137922225
C           43.22624669889094        4.60295115880055      -81.08026687508266
H           42.78801590232447        3.62947185263424      -80.93414488521469
C           48.25122846435021       10.97041570941309      -84.11075722551233
H           48.78773877323090       10.83819352699424      -85.04380707420906
H           48.96588217395191       11.20776729813821      -83.32586846446799
H           47.54980042544884       11.79355778605398      -84.21126548785854
C           48.50643462822759        8.13577074696598      -85.53849564056108
H           48.14326717691777        7.23491270884690      -86.02192187746969
H           49.52673366719169        7.95536155917450      -85.20157416444269
H           48.52271656781824        8.93527429363871      -86.27403326165404
C           45.44550107061023       12.94133263515413      -80.01393275389287
H           44.72572838564687       13.60610232393155      -80.49101366182006
H           46.38156829251643       13.00449687771547      -80.55685669001201
H           45.61197591975404       13.29432767567406      -78.99944155018808
C           43.34334993934283       11.91056806034269      -78.12147723907320
H           43.28936941829704       12.97006889565962      -78.34358746947228
C           42.97258277451488       11.47178481942674      -76.92433217145081
H           43.06519799080996       10.43384010069602      -76.66844616104078
H           42.58657098246976       12.13830348175245      -76.17664259000944
C           40.34838628584313        7.21234428303838      -77.92506613711126
H           40.03333717856752        8.22046845243736      -78.18360201398021
H           40.73011873305594        7.22869711719215      -76.90381123767023
H           39.48285659657933        6.55778638561292      -77.96125456987798
C           40.78888575268915        4.29415996934066      -79.30828936088743
H           40.74762349363563        3.62211049815093      -80.15866662083033
C           40.19030687389034        3.92417736803887      -78.17933926094146
H           40.22187211628480        4.54163330968134      -77.30205312796247
H           39.66431722364518        2.98910856798962      -78.09886073340918
C           44.35364899846915        2.15006528043194      -82.71936846743546
H           43.86120336159267        1.88400124662298      -83.65453816844342
H           43.69126231474343        1.93465980458246      -81.89312582751984
H           45.25117906264175        1.54017273333813      -82.62996580629219
C           46.57306765215768        3.29633218283286      -84.53119054123628
H           46.05740334045427        2.40175451162813      -84.87169568762555
H           47.49412233585250        2.98533792669594      -84.03482102912254
H           46.84498859756810        3.88314906404789      -85.40376773960915
O           43.38799736050323        8.63467237799161      -83.30233215712862
H           43.94418281770295        8.95346220933244      -84.01956817657438
H           42.46536672884026        8.90494514103278      -83.35871785138792
C           47.93664091513300        4.55697718812540      -77.73813344877532
H           47.56948392298124        4.52214106725154      -76.71397732363531
H           49.01830362673797        4.67679165707077      -77.70882038408361
H           47.70466211155893        3.61409980189947      -78.22051137960298
N           47.43524013954181        6.98242319050071      -78.11405010459158
H           47.95619216246701        7.31299495244845      -77.31704116304755
C           47.29926969318294        5.67120168648880      -78.48581138505820
C           46.73523062191975        7.73348926713599      -78.99276805646907
H           46.67333241390341        8.80050050613137      -78.93188527628413
N           46.16072825643337        6.98515567918449      -79.90415728204871
C           46.50490215642719        5.69701653262159      -79.59727501454744
H           46.15282975099967        4.88023037857745      -80.19095327585538
78
 energy: -116.043030999993 gnorm: 0.048363353839 xtb: 6.7.1 (edcfbbe)
Fe          44.72764415162078        7.59077998513701      -81.46552495478262
N           46.15130505284161        8.28015015304188      -82.65572401378930
N           44.54526978871820        9.35479513076518      -80.55029664135344
N           43.21277993940306        6.90111694182425      -80.32405790669551
N           44.91111295209353        5.82102131208168      -82.34135518253156
C           46.80217694353925        7.63478815122523      -83.65898062279301
C           47.67072691775040        8.52522725457096      -84.38087371732284
C           47.56048948272908        9.73478426483912      -83.76747479367177
C           46.61774194912962        9.56098385789356      -82.68979505378189
C           45.28585686702285       10.46628813458370      -80.83744392488599
C           44.90593753652244       11.56319226940095      -79.99070137558184
C           43.93513758360471       11.08673583097299      -79.14532047002606
C           43.71314674214613        9.70211688700658      -79.52352465354755
C           42.47413299162051        7.58384807563139      -79.39819338444482
C           41.41711881720959        6.75373485024620      -78.86892252318817
C           41.56082974402607        5.52380747548421      -79.46193093103807
C           42.69618764338568        5.64577488030183      -80.35750332849189
C           44.24864601944790        4.67615034970912      -82.00066324100415
C           44.74953840223596        3.55717862500782      -82.75734189402768
C           45.71723965463161        4.04934292432639      -83.57684318362919
C           45.80678263057902        5.45441966652073      -83.29879485620532
C           46.67574083264220        6.29494266952823      -83.95632001553773
H           47.29202307209781        5.87473552182009      -84.73093885574811
C           46.24319626865598       10.57087221941645      -81.82891482010217
H           46.72663780062491       11.52658276277311      -81.95143236825550
C           42.72556699406066        8.88830789933830      -78.99714816796084
H           42.09293348265560        9.30628613379123      -78.23014590815569
C           43.21282238484668        4.59074092675072      -81.09221981623364
H           42.76215519483407        3.62158213960644      -80.94734452136755
C           48.26832826111296       10.99865632089751      -84.10939620012788
H           48.80779863772008       10.87735848040154      -85.04261681269864
H           48.98261760913475       11.24982992700615      -83.32782105831281
H           47.56706254315512       11.82274280601439      -84.21059390684560
C           48.52087773075793        8.14860873745934      -85.54484823538976
H           48.14864682164273        7.25347162685306      -86.03189903914084
H           49.54259247602167        7.95797020725873      -85.21758504027048
H           48.54393316530127        8.94919664753307      -86.27950133128337
C           45.45257496991023       12.94686674735537      -80.01108928563589
H           44.74043264039942       13.62176184396618      -80.48757872043845
H           46.38885576408197       13.00558605184272      -80.55499489589434
H           45.62428010886181       13.30181963417901      -78.99774532271694
C           43.32959498235839       11.88764857066054      -78.10505484031137
H           43.26589251558511       12.94348836647494      -78.33805941107624
C           42.95481616928013       11.45730348690955      -76.90479329007664
H           43.06893479287304       10.42654877981701      -76.62202940943860
H           42.56213790411162       12.12744791192468      -76.16228950769350
C           40.35908545173076        7.22018300286083      -77.92906841582219
H           40.03887136696076        8.22791560023115      -78.18376379330874
H           40.72866858765705        7.23444645229587      -76.90325919110951
H           39.49530109937983        6.56288618568440      -77.97148177136786
C           40.79301076414211        4.31079153578525      -79.29695245949169
H           40.75296102943918        3.65445874632701      -80.15787277469677
C           40.18223347758344        3.93397159747385      -78.17592564976901
H           40.23215603742039        4.52446915278257      -77.27897416682362
H           39.64435890181448        3.00463800275596      -78.10858239464071
C           44.33285431643058        2.12716283779937      -82.70466615074355
H           43.83378364688393        1.85508214107427      -83.63414041297474
H           43.66723471228321        1.91937371085515      -81.87748556324729
H           45.21847661806006        1.50147314655298      -82.60825617966596
C           46.56790862665754        3.28896467291744      -84.53246154344848
H           46.05180943407381        2.39601434356329      -84.87310602381370
H           47.49444365778248        2.98186104271134      -84.04471983335387
H           46.83025259865560        3.88525567112608      -85.40113606262926
O           43.40699848969034        8.47282948414557      -83.26424819780441
H           43.95886429033188        8.95656156656671      -83.92851901274442
H           42.51241017104888        8.90088463890683      -83.27739426165174
C           47.92719698459833        4.56095595855314      -77.74367440612879
H           47.56364710458880        4.52450589243767      -76.71813595613094
H           49.00890969145412        4.68093662943757      -77.71453453647949
H           47.69721661519803        3.61760278245533      -78.22520120458358
N           47.42632203742566        6.98444140019410      -78.12423086334942
H           47.94855493686748        7.31895631524159      -77.32952599181377
C           47.28795352113895        5.67270071105589      -78.49277886799008
C           46.72299566854213        7.73210297704503      -79.00824536124894
H           46.66144188698838        8.79832043180445      -78.95149778769478
N           46.14753897349547        6.98298307271433      -79.91442267306877
C           46.49337577862950        5.69893473154085      -79.60606209302836
H           46.14790859006175        4.87774212494559      -80.19704896587265
78
 energy: -116.045048144936 gnorm: 0.031837597691 xtb: 6.7.1 (edcfbbe)
Fe          44.72324900077654        7.59744217003388      -81.47924667289205
N           46.16694024898963        8.29453487004404      -82.66315992512779
N           44.54732268477197        9.36774945007364      -80.57015574016080
N           43.20564244204663        6.90356528233936      -80.36217474276468
N           44.90415244684813        5.79906602966315      -82.35022798602549
C           46.82005970380393        7.64165233918592      -83.65876205581628
C           47.69562524643379        8.53915729733322      -84.37779216822085
C           47.58748953391208        9.75127643546693      -83.76397057242080
C           46.63289124256482        9.57351249171752      -82.69269454782854
C           45.28498580438893       10.48473932353369      -80.84597486127515
C           44.90800384144839       11.57141477131740      -79.98538949849548
C           43.94380646281260       11.08300797461594      -79.13722749055640
C           43.71776001622032        9.71107111577936      -79.53852773825113
C           42.47374598887493        7.59428693056024      -79.43640306130415
C           41.43401436620708        6.76647500004324      -78.87530332452982
C           41.57786423406669        5.53048328653797      -79.45297036919153
C           42.69495489982103        5.64735468506401      -80.37516635715885
C           44.23883439176796        4.65666801912763      -82.01077609636226
C           44.74478526971881        3.53349097852711      -82.75809937768278
C           45.71703613195139        4.03110362663421      -83.57369850412546
C           45.80920699582763        5.44011993065094      -83.29917731946392
C           46.67985006103215        6.29765203567868      -83.94871970416099
H           47.30029941227181        5.88007205525195      -84.72556237014651
C           46.24500997441296       10.58647501814366      -81.83934489092590
H           46.72760325922369       11.54261650675926      -81.96929512007547
C           42.72285734991222        8.89487696938476      -79.03237408713908
H           42.08092016797551        9.30996212899340      -78.26954954551259
C           43.19553426242243        4.58191229453802      -81.10697896534309
H           42.73157615399282        3.61623729898733      -80.96389749484274
C           48.28807524350542       11.02704932695065      -84.10570180871429
H           48.83212154404212       10.91984410088109      -85.04124123331066
H           49.00334751996758       11.29457683305352      -83.32668624904568
H           47.58455238480247       11.85310488207897      -84.20821698900232
C           48.53851733363940        8.16448577416504      -85.55102330161566
H           48.15257735761935        7.27583075091884      -86.04421758771332
H           49.56308673856456        7.95970453853017      -85.23511650098069
H           48.56819717033885        8.96992229480077      -86.28348349051595
C           45.46387857774634       12.95424882729450      -80.00349014207579
H           44.75913439397297       13.64038015188011      -80.48073483010334
H           46.40212758611937       13.00539197307544      -80.54987224024133
H           45.64085655187522       13.31013285627007      -78.98927092567202
C           43.32113011112421       11.86048710687379      -78.08414022118156
H           43.23659828853108       12.91392577242026      -78.32569459406740
C           42.94331761303455       11.43717349947508      -76.88178633823949
H           43.07102856050589       10.41171984100924      -76.57193954317438
H           42.53236803779604       12.11126866403824      -76.14746297394731
C           40.37370424756246        7.22973994979404      -77.93386758170483
H           40.04849668740139        8.23925564565339      -78.18397129000782
H           40.73130429401087        7.23958575875574      -76.90218643154857
H           39.51036695810154        6.56824729088508      -77.98545088304046
C           40.79861360385237        4.32855646937933      -79.28275195072969
H           40.75073526455967        3.69108414788039      -80.15749854555175
C           40.17731153495218        3.94457546313169      -78.17038857650972
H           40.23964544378521        4.51018913878623      -77.25377490492339
H           39.61632381880851        3.02462912546756      -78.12234714609995
C           44.30795169740833        2.10412502690557      -82.69162052598078
H           43.79718575361250        1.82409527759778      -83.61408308083868
H           43.63702888411011        1.91004314471506      -81.85968136710939
H           45.17924528667775        1.45679524240522      -82.58567244751846
C           46.56245501970320        3.27812881035344      -84.53832909050114
H           46.04377324442348        2.38598914038663      -84.87879731245476
H           47.49654351873320        2.97497017599445      -84.06069582072945
H           46.81074335568707        3.88791705776026      -85.40404908199334
O           43.44998122008971        8.52616781561725      -83.12631095960941
H           43.95518005789810        8.83460641221281      -83.85991965673837
H           42.54425508003834        8.79133704637487      -83.24366808617661
C           47.91592125137404        4.56214606582421      -77.75232665593293