79
 energy: -119.934595469389 gnorm: 0.313495384663 xtb: 6.7.1 (edcfbbe)
Fe          17.07900000000000      -31.02800000000000       -3.34200000000000
N           16.09500000000000      -32.37300000000000       -2.17700000000000
N           17.06000000000000      -29.72300000000000       -1.78100000000000
N           18.02700000000000      -29.65200000000000       -4.50400000000000
N           17.07600000000000      -32.34600000000000       -4.89200000000000
C           15.71600000000000      -33.64300000000000       -2.55000000000000
C           15.10600000000000      -34.29400000000000       -1.40800000000000
C           15.11000000000000      -33.43000000000000       -0.38700000000000
C           15.73200000000000      -32.21400000000000       -0.85300000000000
C           16.53900000000000      -29.93400000000000       -0.52000000000000
C           16.71600000000000      -28.73900000000000        0.27600000000000
C           17.32100000000000      -27.83300000000000       -0.50300000000000
C           17.55300000000000      -28.43300000000000       -1.79900000000000
C           18.29900000000000      -28.35300000000000       -4.14600000000000
C           18.76700000000000      -27.64200000000000       -5.31900000000000
C           18.76400000000000      -28.51200000000000       -6.34600000000000
C           18.30700000000000      -29.78500000000000       -5.84300000000000
C           17.54600000000000      -32.07700000000000       -6.17700000000000
C           17.24300000000000      -33.17600000000000       -7.05000000000000
C           16.51900000000000      -34.18500000000000       -6.19100000000000
C           16.45600000000000      -33.59800000000000       -4.87500000000000
C           15.87900000000000      -34.20400000000000       -3.79200000000000
H           15.51700000000000      -35.22300000000000       -3.92800000000000
C           15.93600000000000      -31.08700000000000       -0.09500000000000
H           15.58700000000000      -31.11300000000000        0.93700000000000
C           18.14699999999999      -27.82100000000000       -2.88400000000000
H           18.53500000000000      -26.81500000000000       -2.72700000000000
C           18.18500000000000      -30.93700000000000       -6.57700000000000
H           18.63800000000000      -30.94400000000000       -7.56800000000000
C           14.57100000000000      -33.64000000000000        1.04000000000000
H           14.14900000000000      -34.66399999999999        1.13000000000000
H           13.77000000000000      -32.90000000000000        1.25100000000000
H           15.39700000000000      -33.52500000000000        1.77400000000000
C           14.57400000000000      -35.73600000000000       -1.40900000000000
H           15.16300000000000      -36.34800000000000       -2.12500000000000
H           13.50800000000000      -35.74300000000000       -1.72200000000000
H           14.67400000000000      -36.17400000000000       -0.39300000000000
C           16.26500000000000      -28.59400000000000        1.74600000000000
H           16.47700000000000      -29.53700000000000        2.29400000000000
H           15.17300000000000      -28.39200000000000        1.78500000000000
H           16.82300000000000      -27.76400000000000        2.23000000000000
C           17.72500000000000      -26.40600000000000       -0.12800000000000
H           18.73500000000000      -26.02700000000000       -0.34000000000000
C           16.83900000000000      -25.59900000000000        0.46900000000000
H           15.82200000000000      -25.95400000000000        0.69200000000000
H           17.11700000000000      -24.57100000000000        0.74400000000000
C           19.17299999999999      -26.15800000000000       -5.30500000000000
H           19.39900000000000      -25.84500000000000       -4.26300000000000
H           18.33900000000000      -25.53700000000000       -5.69500000000000
H           20.08000000000000      -26.01100000000000       -5.93000000000000
C           19.15500000000000      -28.30600000000000       -7.82100000000000
H           19.30400000000000      -29.17500000000000       -8.47800000000000
C           19.32300000000000      -27.09400000000000       -8.34000000000000
H           19.18500000000000      -26.19700000000000       -7.71900000000000
H           19.60200000000000      -26.97300000000000       -9.39700000000000
C           17.57400000000000      -33.31300000000000       -8.54100000000000
H           18.67000000000000      -33.44300000000000       -8.66700000000000
H           17.25500000000000      -32.39600000000000       -9.08200000000000
H           17.05500000000000      -34.20100000000000       -8.96100000000000
C           15.95400000000000      -35.53000000000000       -6.67800000000000
H           16.57000000000000      -35.90700000000000       -7.52200000000000
H           14.90900000000000      -35.39300000000000       -7.02800000000000
H           15.98300000000000      -36.27100000000000       -5.85100000000000
C           22.55700000000000      -32.22100000000000       -2.61200000000000
H           22.84400000000000      -33.23500000000000       -2.96400000000000
H           23.03500000000000      -32.03300000000000       -1.62700000000000
H           22.90600000000000      -31.47000000000000       -3.35300000000000
N           20.36300000000000      -32.97200000000000       -1.62600000000000
H           20.77600000000000      -33.65700000000000       -1.02600000000000
C           21.06900000000000      -32.14300000000000       -2.47500000000000
C           19.07200000000000      -32.71000000000000       -1.74100000000000
H           18.28900000000000      -33.20700000000000       -1.16900000000000
N           18.91400000000000      -31.76300000000000       -2.65000000000000
C           20.14800000000000      -31.40100000000000       -3.13200000000000
H           20.25400000000000      -30.64600000000000       -3.90100000000000
H           16.13000000000000      -30.17700000000000       -5.40300000000000
O           15.29700000000000      -29.90100000000000       -5.00700000000000
O           15.43400000000000      -30.38700000000000       -3.84900000000000
H           15.54200000000000      -29.57600000000000       -3.34100000000000
79
 energy: -120.004577705947 gnorm: 0.130890382072 xtb: 6.7.1 (edcfbbe)
Fe          17.10472802579078      -31.05193583464284       -3.31651900930599
N           16.09715495332097      -32.37724693990459       -2.17332135307809
N           17.05222587328568      -29.71265461821958       -1.78055850659638
N           18.00159386034469      -29.64843621723989       -4.50921288300784
N           17.06019552437526      -32.34051566254982       -4.89342498567787
C           15.71874053981112      -33.63877142158849       -2.54452268506117
C           15.10404204924077      -34.30914949731535       -1.41091436400752
C           15.10609514417484      -33.43381447116762       -0.37853020119030
C           15.73155316596138      -32.22112003557808       -0.86152371283010
C           16.54334811323266      -29.92249076869217       -0.52454503493193
C           16.71574738818175      -28.73431961776788        0.28545201841397
C           17.33874651334407      -27.81558261777710       -0.49867733293905
C           17.55832166551253      -28.43753666669075       -1.79213731768805
C           18.29909302819625      -28.35847742980175       -4.15722864517402
C           18.77883251849257      -27.63475055796213       -5.32090128014866
C           18.78391319350332      -28.51482513092074       -6.36471683894551
C           18.31545303397962      -29.78399496274907       -5.83887780423423
C           17.53547270873730      -32.10792052698282       -6.16569171018887
C           17.22769953548710      -33.21441982781430       -7.03060705899646
C           16.54157761120610      -34.16316680241223       -6.22125580483348
C           16.46842437344746      -33.58425493723359       -4.90166780108495
C           15.88609379066020      -34.19524601315118       -3.79950318659986
H           15.51797724419139      -35.20769082639061       -3.93497433020071
C           15.93742759106965      -31.08733442798290       -0.09894955100799
H           15.58796332373359      -31.11421530361607        0.92779815531590
C           18.14769851844785      -27.82500131074869       -2.88535895494553
H           18.52165750722058      -26.81912450376829       -2.72820841263176
C           18.18271551055719      -30.94872252453174       -6.57268693858260
H           18.61513379760157      -30.94784892794371       -7.56714481094526
C           14.57672144374764      -33.63840116334826        1.02521260405618
H           14.15577363175574      -34.64450099078317        1.12774632234958
H           13.78690870409421      -32.91092872848538        1.24663840883713
H           15.38219849348132      -33.52252915573333        1.76112168678782
C           14.58023307622041      -35.72671036843140       -1.41327110989250
H           15.15368481825374      -36.34244981905068       -2.11366853430660
H           13.52600436750641      -35.74365511947187       -1.71626484727128
H           14.66901931831786      -36.16630310119519       -0.41334185170763
C           16.27215532110248      -28.59827399162958        1.72889821936201
H           16.47412776980981      -29.52289820498577        2.28236776281019
H           15.19457891347698      -28.39557956593091        1.78190897213538
H           16.81120227446745      -27.77703754754012        2.21496303237666
C           17.71003590161437      -26.41786958095302       -0.13080176472831
H           18.71446744620463      -26.05476047624423       -0.34978646711933
C           16.84260490488257      -25.60752182320720        0.46731819184248
H           15.83468192227037      -25.94049616550958        0.68868661759613
H           17.11059424082786      -24.59036871912743        0.74043020189992
C           19.17193340802438      -26.17383666833531       -5.30001841448342
H           19.39504548018245      -25.84897454154306       -4.27862990073886
H           18.35506650401259      -25.54992325736040       -5.68675790872174
H           20.06690211253122      -26.01392015943066       -5.91234905830301
C           19.15435213850846      -28.29812521011436       -7.79553956192175
H           19.29338116807035      -29.16907711453850       -8.43684138483835
C           19.32128991910462      -27.09556985689053       -8.33525947805157
H           19.18059965712691      -26.19929412450142       -7.74929738981842
H           19.59763326986599      -26.97605232313963       -9.37903908336888
C           17.56509448965689      -33.31773793023473       -8.50591516332990
H           18.64809468633011      -33.44069670112037       -8.65579389370326
H           17.25663857450757      -32.41799716528951       -9.05811286280913
H           17.06224158374395      -34.18304714726906       -8.95071679303140
C           15.97247923182475      -35.49725977797620       -6.67289211758303
H           16.56156077124289      -35.89702088540239       -7.50665964627717
H           14.93360934730838      -35.38849158658589       -7.01646358826481
H           15.98581006749467      -36.24289799752680       -5.86623137913156
C           22.55846290462193      -32.22493805514925       -2.61019570549267
H           22.85123441384725      -33.22252428808590       -2.95902379087600
H           23.03793233691027      -32.03509681921564       -1.64256640588409
H           22.90143849088460      -31.48266369670016       -3.33712907212523
N           20.38015325032103      -32.97157799158949       -1.62278447050336
H           20.79055139320197      -33.65991165203333       -1.01765346309373
C           21.07840975376863      -32.15392208022043       -2.47827862271214
C           19.07532216307031      -32.70165174056923       -1.75149401309396
H           18.29863728203039      -33.19140424569851       -1.18632393941492
N           18.90483497664072      -31.76356695950575       -2.65496478578323
C           20.13932224890415      -31.40978272911319       -3.12339973235635
H           20.24664979060126      -30.65738508383149       -3.88342200849898
H           16.12520541518851      -30.17131413323195       -5.46260109413067
O           15.28244713068560      -29.89773558791128       -5.06756629358202
O           15.41307039874597      -30.37521715252320       -3.80744740539287
H           15.51697698989899      -29.55753243259123       -3.29537867660705
79
 energy: -120.025647984693 gnorm: 0.042803255402 xtb: 6.7.1 (edcfbbe)
Fe          17.11585494716132      -31.06513123138162       -3.30600039588389
N           16.11809364043910      -32.38418654050428       -2.16936106765174
N           17.06663433624935      -29.71473799979490       -1.77405280991270
N           18.00297333873428      -29.65046834495328       -4.50941242223353
N           17.06389522324319      -32.34551473431404       -4.88933941410168
C           15.73162492089640      -33.63418918568721       -2.54182105972612
C           15.10880330341473      -34.31718367560454       -1.41788944729756
C           15.10816604726133      -33.43507947162551       -0.37910257785310
C           15.74157293691670      -32.22724007016785       -0.87129362987638
C           16.55296990454574      -29.91917865349340       -0.52904909212920
C           16.71401115240040      -28.73538461028701        0.28615299625424
C           17.35042648595766      -27.80916616325682       -0.49942933419505
C           17.56897032761250      -28.44809402290583       -1.78735147999190
C           18.30060970611575      -28.36553666795703       -4.16314102130922
C           18.78894743560758      -27.63440493333030       -5.31447238484944
C           18.80175863585869      -28.51966580991807       -6.37054700734290
C           18.32529391069852      -29.78629000399869       -5.83161864783563
C           17.53102752868769      -32.12403503487845       -6.15031598696143
C           17.21929729804707      -33.24451540433068       -7.00873714592631
C           16.56369121856244      -34.14503643114865       -6.24226998149725
C           16.47912671760180      -33.57294623135126       -4.91347603290204
C           15.89361867338443      -34.18435722533832       -3.80550190751929
H           15.51452980487842      -35.18809669374141       -3.94497811398599
C           15.94230143962688      -31.08983129365312       -0.10503083460122
H           15.58653484462898      -31.11608039773007        0.91536485976242
C           18.14526766892586      -27.82959485165281       -2.88737005481736
H           18.50091810637674      -26.82075913717047       -2.73103497840371
C           18.17380962373609      -30.95575499130314       -6.56643221993413
H           18.57777379388257      -30.95079841553741       -7.56912800499879
C           14.58368796394007      -33.63467028610705        1.00604720232198
H           14.16250231057794      -34.63061728385252        1.11735589756702
H           13.80113955571951      -32.91216983570254        1.23404020305757
H           15.37668668918239      -33.51597577950599        1.74496855015893
C           14.58760117461183      -35.71575003085374       -1.42055791129755
H           15.15031843437896      -36.33810771908050       -2.11077487208452
H           13.53908266293080      -35.73841178712455       -1.71793023243255
H           14.66562260913331      -36.15517791669780       -0.42789203407110
C           16.27942021445003      -28.60180555136374        1.70831769826848
H           16.47750555156852      -29.51615157669902        2.26497196808467
H           15.20901737795527      -28.40049626006254        1.77031585402983
H           16.80612121468696      -27.78209604678378        2.19305298914205
C           17.69680632411551      -26.43958391879220       -0.13822139964117
H           18.69622189550109      -26.08995287744825       -0.37525271493563
C           16.84604022393756      -25.61907046682489        0.46540692052563
H           15.84015983224808      -25.92895769851502        0.68906248863235
H           17.11116098260135      -24.61014063170838        0.73671143027061
C           19.17412676393385      -26.19291509392320       -5.29253784883142
H           19.39091780937556      -25.85986767227943       -4.28154795055447
H           18.36603989052385      -25.56949637296971       -5.68058583228435
H           20.06154017134756      -26.02350581176665       -5.89959336721343
C           19.15661439163935      -28.29331408156731       -7.75730715984308
H           19.28554321290848      -29.17065213246804       -8.38171254011760
C           19.31890208617375      -27.09996357134297       -8.32690252221171
H           19.17223533766709      -26.19079525874759       -7.77985899003779
H           19.59000768250964      -26.99261772718815       -9.36421240033770
C           17.55691450344209      -33.32515595518718       -8.46974111869513
H           18.63331002212898      -33.43851123734726       -8.62410430914651
H           17.24768277882992      -32.42886616280158       -9.01115367825429
H           17.06215433429465      -34.17667700321094       -8.93101319314243
C           15.99246148383966      -35.46657894817537       -6.66886416683861
H           16.56467278852285      -35.87954984290430       -7.49826809880331
H           14.95637536342082      -35.36233920001519       -7.00120199181550
H           16.00115036336493      -36.20121118766539       -5.86363806836952
C           22.55777532620539      -32.22612792720376       -2.61048797886100
H           22.86060550455040      -33.21386374724080       -2.95524400995432
H           23.03821508749530      -32.03488441329307       -1.65246761252524
H           22.89787988836845      -31.48803995022401       -3.32821119661995
N           20.38947114841063      -32.97035495324765       -1.62089045596118
H           20.79761587172110      -33.65825331483011       -1.00940400456470
C           21.08057331402208      -32.16223945008331       -2.48350556056683
C           19.07455961331336      -32.69624832524512       -1.76185944253098
H           18.30383489662001      -33.18068669133681       -1.19995484541662
N           18.89009763976973      -31.76719888499635       -2.66607242452636
C           20.12755160459785      -31.41929745302877       -3.12075510875423
H           20.24158114516511      -30.66694298665840       -3.87223823845452
H           16.10129019964318      -30.17631672851790       -5.50659179093695
O           15.25225982517976      -29.89464074184469       -5.11846534739668
O           15.36899582690826      -30.34759960006133       -3.78482295193765
H           15.46644613511488      -29.51989367848902       -3.27676863437168
79
 energy: -120.030966224447 gnorm: 0.026663831169 xtb: 6.7.1 (edcfbbe)
Fe          17.11222039228422      -31.06523081809253       -3.30496154491447
N           16.13565034430610      -32.38804103922297       -2.16979466616118
N           17.07948729422439      -29.72510169276089       -1.77230378834335
N           18.00354445999030      -29.65301288770562       -4.50408341426129
N           17.06557837299050      -32.34297364476397       -4.88196946010683
C           15.74638505779134      -33.63420158760727       -2.54068787433987
C           15.11862914530722      -34.31816783365265       -1.42390846996264
C           15.11713065963542      -33.43569307551481       -0.38577065505508
C           15.75645923146206      -32.23189498045428       -0.87554787299844
C           16.56357977076925      -29.92796743096597       -0.53132290731899
C           16.71361944608778      -28.74416501917216        0.27937803905857
C           17.34913623619646      -27.81710146402514       -0.50597683545699
C           17.57700667503249      -28.46045615040931       -1.78671025867126
C           18.30377474599257      -28.37142784413870       -4.15587222518170
C           18.79766187779594      -27.63880145803866       -5.29673599148126
C           18.81302790010322      -28.52158373209813       -6.35551702394611
C           18.33190499344130      -29.78682566657194       -5.82074652894920
C           17.53779834477008      -32.11722089009200       -6.13688221471783
C           17.23222852721586      -33.24027477588645       -6.99835370128774
C           16.57197001821529      -34.14505570936713       -6.23120192309621
C           16.48643610365659      -33.56953860404306       -4.90278169217057
C           15.90060771780482      -34.18192387361474       -3.80346523627765
H           15.50427998530729      -35.17641578851661       -3.95220860287587
C           15.95154746951700      -31.09699624746885       -0.10755100025266
H           15.58363770773177      -31.12007482115179        0.90740664374265
C           18.14379041397356      -27.83411521076943       -2.88399677253218
H           18.47408588821159      -26.81638999767361       -2.73156275753686
C           18.16936104302852      -30.95132379966487       -6.55951272567570
H           18.53655600981147      -30.94091876919472       -7.57695901211147
C           14.58912504088137      -33.62813031613876        0.99366527338116
H           14.16566680689884      -34.62234092085784        1.10668284224005
H           13.80892875229745      -32.90172787461920        1.21579132063071
H           15.38032638621397      -33.50559815549398        1.73358361070482
C           14.59221890028255      -35.71139784962702       -1.43133584798578
H           15.15358631865433      -36.33941373587575       -2.11764901098187
H           13.54479435449276      -35.72925113168347       -1.73235275249391
H           14.66155200294882      -36.14903812300288       -0.43749943853748
C           16.28116746222087      -28.60629212407432        1.69555150883756
H           16.48588032627684      -29.51717319211997        2.25472007391370
H           15.21028171658186      -28.40978131427418        1.75728648373553
H           16.80384377917072      -27.77892658879413        2.17068388549842
C           17.68972396890793      -26.45267213955656       -0.15404941267350
H           18.68522659646970      -26.11085736186451       -0.41574142658355
C           16.85235365057172      -25.62696863433938        0.46248750998898
H           15.84514161599668      -25.92496116845001        0.69772231178858
H           17.12597712146463      -24.62146725372858        0.73164601449945
C           19.18404416535812      -26.20330782510859       -5.27607644480007
H           19.39350013276669      -25.86670526771289       -4.26502701486038
H           18.37736587272369      -25.58411112594173       -5.67271831577139
H           20.07320878698711      -26.03660514127427       -5.88046070466371
C           19.16456760844372      -28.29409849029248       -7.73231035200685
H           19.29794873404908      -29.18299621648654       -8.33715980059599
C           19.31564756189831      -27.11049683968092       -8.32912868862345
H           19.14934171130229      -26.18063270475733       -7.81749023689317
H           19.58529968294876      -27.02850707264195       -9.36796703688726
C           17.56292077367197      -33.32083967760353       -8.45115299959497
H           18.63834137109572      -33.42955711808345       -8.59848989896480
H           17.24100971229269      -32.42148425240045       -8.97454098349704
H           17.06694042701207      -34.17208578610501       -8.90945115281614
C           16.00236208471840      -35.45711109609365       -6.65579143368596
H           16.57047972876919      -35.86781856634427       -7.48779342027872
H           14.96723990518656      -35.33868158947234       -6.97998258022281
H           16.01769105386720      -36.17981011701383       -5.84388027981974
C           22.55687279973574      -32.22341274795445       -2.61161058240515
H           22.87187531749738      -33.20870413021528       -2.95342950706719
H           23.03539702295109      -32.02760539587790       -1.65365109346145
H           22.89482588001339      -31.48364838353353       -3.32807348690922
N           20.39018123753265      -32.97082533341321       -1.62083162561811
H           20.79852190560661      -33.65190319002297       -1.00107386197490
C           21.07852293339742      -32.16747072806111       -2.48940991760985
C           19.07298384471395      -32.70022529615981       -1.76873147257779
H           18.30324398880714      -33.18175245991869       -1.20552313062874
N           18.88326387117254      -31.77699468384554       -2.67812411821301
C           20.12199358295257      -31.43081168329714       -3.12971037302577
H           20.24054307133097      -30.67698654564382       -3.87768263939522
H           16.04433504252296      -30.17727878551700       -5.54871349271667
O           15.20447345982402      -29.88545376024165       -5.14665833553379
O           15.32964826290755      -30.32186062783134       -3.78572203627216
H           15.40951783295709      -29.48832466431494       -3.28022545568930
79
 energy: -120.034305727786 gnorm: 0.022892922901 xtb: 6.7.1 (edcfbbe)
Fe          17.11405009114290      -31.06534818041835       -3.30191508309362
N           16.14862368218141      -32.38932623493020       -2.17412656884197
N           17.09112516177048      -29.74061681370678       -1.77319879577939
N           17.99668747571316      -29.65564200663282       -4.49759679866625
N           17.06560776450901      -32.33392243645591       -4.86776912579797
C           15.75701470283184      -33.63413307145211       -2.54230558049652
C           15.12890989530382      -34.31857015991054       -1.43060126840178
C           15.12783614297273      -33.43756310002889       -0.39353237674747
C           15.76951569180071      -32.23621035706109       -0.87984778413505
C           16.57248789493309      -29.94050148575418       -0.53377710321730
C           16.71135467264628      -28.75557150541636        0.27126593271414
C           17.34274224740200      -27.82827442216693       -0.51408615211323
C           17.57861064334198      -28.47386425335422       -1.78847838086588
C           18.30277111970006      -28.37659052700357       -4.14604488675999
C           18.80416554285193      -27.64419157213831       -5.27701795843483
C           18.81824357215076      -28.52271418290595       -6.33713939973272
C           18.32613129793258      -29.78483372567751       -5.81047682539199
C           17.53731065901056      -32.10450585024279       -6.12062704548935
C           17.24421240338170      -33.23096904474186       -6.98268759621157
C           16.58619010986808      -34.14162041683196       -6.21376019786945
C           16.49284439214396      -33.56257721872905       -4.88880485226150
C           15.90295244825755      -34.18006127491843       -3.80348457258662
H           15.49486371320789      -35.16725845011082       -3.96158588334954
C           15.95954962044100      -31.10617629343187       -0.10865098725799
H           15.58255099246201      -31.12709263956640        0.90235108992306
C           18.13578792356649      -27.83667630374894       -2.88028993886773
H           18.44287650087135      -26.81199641141927       -2.72998760202445
C           18.15071012941082      -30.94118875181361       -6.55509818988514
H           18.48712786878844      -30.92968835571865       -7.58229532718083
C           14.59466405949153      -33.62080533287765        0.98420340768108
H           14.16803875850364      -34.61368354086392        1.10093019189521
H           13.81540785491051      -32.88913890154159        1.19610216001239
H           15.38433766455209      -33.49347843492041        1.72587800917841
C           14.59575046926085      -35.70925312566147       -1.44473221550509
H           15.15970773614683      -36.34052883932220       -2.12720849001668
H           13.55025162073619      -35.71906798095359       -1.75598325476544
H           14.65345055189580      -36.14740187642877       -0.44946299533723
C           16.28007321817008      -28.61234347168307        1.68640972927930
H           16.49588471638661      -29.51803798613308        2.25100180359731
H           15.20697162376977      -28.42510383340760        1.74818646234567
H           16.79737635594229      -27.77455829170180        2.15069181699300
C           17.68501085340310      -26.46302228994874       -0.17398733917041
H           18.67395929785198      -26.12611195455326       -0.46870589374714
C           16.86474540884772      -25.63332466126737        0.46088816670282
H           15.86128896084869      -25.92512405671024        0.72473627323988
H           17.14907909712586      -24.62721249772929        0.71730499800579
C           19.19940905704015      -26.21196204338061       -5.26190665504766
H           19.40789979797281      -25.87035129088813       -4.25140863758968
H           18.39521173676523      -25.59300745564142       -5.66463653413494
H           20.08863619017970      -26.05428516207723       -5.86951022585082
C           19.17505732966345      -28.29832145538120       -7.71239404013676
H           19.33367006902834      -29.19677986701322       -8.29741833255994
C           19.30645730547603      -27.12489148998610       -8.33189872506168
H           19.13731240502772      -26.17981010493121       -7.84743310393077
H           19.58181453503452      -27.07058906272615       -9.37203576631632
C           17.57267237047967      -33.31142608154497       -8.43167218817752
H           18.64803572840131      -33.41116442001953       -8.57960493793320
H           17.23878829935295      -32.41325289915054       -8.94785965023283
H           17.08103592303532      -34.16639252493154       -8.88813901504655
C           16.01576346011362      -35.44917496842643       -6.63702033883101
H           16.57567305766434      -35.86036372463742       -7.47435126447633
H           14.97857661514148      -35.32388111233492       -6.95145588690160
H           16.03793678061957      -36.16788137608102       -5.82313031316356