79
 energy: -120.044277795548 gnorm: 0.000031634928 xtb: 6.7.1 (edcfbbe)
Fe          16.99458509548126      -30.96730087159660       -3.30748815140029
N           16.08800509129745      -32.33195425056998       -2.18116218922535
N           16.97783686245446      -29.67529664360320       -1.78231007980273
N           17.85005532348447      -29.58095528363877       -4.48471241594019
N           16.97465232813768      -32.25143857704584       -4.87033431181623
C           15.71833173316198      -33.58588613936804       -2.54860134112471
C           15.06750872431518      -34.27102519110661       -1.45114122471283
C           15.05713565250967      -33.39895524835617       -0.40968582260911
C           15.70206615687075      -32.19287681622616       -0.88509796081197
C           16.50308284643332      -29.90093573058556       -0.52721167820357
C           16.68915439531578      -28.74288209028182        0.30740170529428
C           17.28959779498254      -27.79426713110009       -0.47844853527774
C           17.46748956580933      -28.40827919204408       -1.77968946530431
C           18.20892434040747      -28.31852541454733       -4.12090029928294
C           18.80961541850464      -27.61728684637389       -5.22714368445029
C           18.81622310526044      -28.49266743991892       -6.27982725207488
C           18.22184984123252      -29.71916371566588       -5.78450435302083
C           17.49209323716958      -32.04109899612663       -6.11576604063598
C           17.36040120135491      -33.22753972798475       -6.92762280917686
C           16.75984945943978      -34.16423329587292       -6.14261393526237
C           16.53183604209964      -33.53859170863220       -4.86142591594199
C           15.93035775812038      -34.16332275401136       -3.78597172383595
H           15.60107111030162      -35.18153306845930       -3.92405003373140
C           15.89828309794249      -31.07269221034160       -0.10333731983096
H           15.54043575327580      -31.10833806144401        0.91435995869772
C           18.02632976788917      -27.76401054340355       -2.86683018457121
H           18.34605436753225      -26.74283474439742       -2.72770541953815
C           18.05638220381881      -30.85671339834463       -6.55396626422415
H           18.40192179277772      -30.82347080402333       -7.57542136968986
C           14.50847473301333      -33.57302655305406        0.96493557139471
H           14.06530962486843      -34.55873770115647        1.08216693910210
H           13.74109725710134      -32.82575161586867        1.16674495822776
H           15.29518365534818      -33.46011510523290        1.71172063152678
C           14.53380656879352      -35.66013883682231       -1.52581903059272
H           15.32993705334882      -36.36523288780644       -1.76632951044215
H           13.77061206846333      -35.73440106417021       -2.30044097773111
H           14.08958726643597      -35.95539225685415       -0.57848338633801
C           16.34197960651262      -28.66259117378928        1.75307357349211
H           16.54162085064969      -29.60974678303853        2.25217651343875
H           15.28464931109003      -28.42835837647537        1.88618315781997
H           16.92919987050958      -27.88360504657762        2.23520338921339
C           17.71220493751598      -26.45479474182576       -0.13377389018983
H           18.60327727747585      -26.10064090141287       -0.63925135096272
C           17.09792774194541      -25.64971959148506        0.72698335369408
H           16.18368552433590      -25.92897126938351        1.22066687653421
H           17.47747758040142      -24.66562325309356        0.94650152423006
C           19.36575425235394      -26.23793432414649       -5.16728010270084
H           19.86859260288790      -26.06580656044796       -4.21674449936268
H           18.57383841871595      -25.49421644144001       -5.26963043741062
H           20.08253524795321      -26.08959529078970       -5.97230881905883
C           19.32188370371837      -28.30429494282938       -7.62195803653425
H           19.75809710204975      -29.18091547800368       -8.08711977523700
C           19.28167958049741      -27.16591123069649       -8.30614110537528
H           18.81684261701225      -26.27833217113253       -7.91405905690782
H           19.68984621411460      -27.09163063005299       -9.30043046893025
C           17.81366516482095      -33.32915128118262       -8.34320258959684
H           18.88764030932985      -33.15561505021626       -8.41631246382520
H           17.30830391160496      -32.58598106300926       -8.96028381557548
H           17.59804800989678      -34.31449588092498       -8.74844072046194
C           16.38155514512992      -35.56736633649186       -6.47014532470320
H           16.65684701881593      -35.81404936607084       -7.49248496452746
H           15.30609566642755      -35.70807971259271       -6.36076576425453
H           16.88381941490232      -36.26578456113182       -5.80054270446391
C           22.30361116187246      -32.66219539834717       -3.12824223660841
H           22.50117339375204      -33.70216223922245       -2.86851320130652
H           23.01767567179182      -32.03594497256761       -2.59367379266110
H           22.45904166344972      -32.53440791969756       -4.19485627863614
N           20.43110929955816      -32.33652510242702       -1.49748046546194
H           20.95359055582075      -32.62042479710690       -0.68503790202501
C           20.90993160863406      -32.28707759883759       -2.78027732685117
C           19.14084307012637      -31.93446227490116       -1.52545225870841
H           18.51096536067136      -31.87337822194304       -0.66213201252827
N           18.77377950455667      -31.63385938255250       -2.74739980687504
C           19.86295817762917      -31.84843166689587       -3.53917022509738
H           19.82264396864840      -31.67360484407899       -4.59398024117467
H           15.41865375554183      -31.06847960953183       -5.46300652722868
O           14.83043266320456      -30.30729865094615       -5.28348923380737
O           14.97519523834887      -30.14125088788654       -3.87617420689776
H           15.00318953097013      -29.17741305882005       -3.77131386012422
