78
 energy: -116.007730769888 gnorm: 0.213428144850 xtb: 6.7.1 (edcfbbe)
Fe          -0.55900000000000        9.37700000000000       15.51400000000000
N           -1.96100000000000       10.64300000000000       16.22800000000000
N           -2.01600000000000        8.00300000000000       15.11700000000000
N            0.84000000000000        8.02800000000000       14.89600000000000
N            0.89100000000000       10.66200000000000       16.03900000000000
C           -1.73200000000000       11.92100000000000       16.72700000000000
C           -3.01100000000000       12.54500000000000       16.99800000000000
C           -3.99100000000000       11.66200000000000       16.70100000000000
C           -3.32900000000000       10.46900000000000       16.21900000000000
C           -3.37700000000000        8.18200000000000       15.27100000000000
C           -4.09200000000000        7.02600000000000       14.80300000000000
C           -3.15400000000000        6.12300000000000       14.37800000000000
C           -1.85000000000000        6.74800000000000       14.58300000000000
C            0.61600000000000        6.73500000000000       14.47600000000000
C            1.87300000000000        6.04300000000000       14.31200000000000
C            2.84500000000000        6.91200000000000       14.68400000000000
C            2.18900000000000        8.17000000000000       15.03300000000000
C            2.24800000000000       10.47300000000000       15.91800000000000
C            2.96200000000000       11.60700000000000       16.48500000000000
C            2.01800000000000       12.46500000000000       16.92900000000000
C            0.72900000000000       11.89200000000000       16.64400000000000
C           -0.50200000000000       12.46400000000000       16.94100000000000
H           -0.48100000000000       13.45500000000000       17.39400000000000
C           -3.96600000000000        9.32000000000000       15.79300000000000
H           -5.05200000000000        9.30800000000000       15.87700000000000
C           -0.64000000000000        6.18100000000000       14.29500000000000
H           -0.66700000000000        5.17600000000000       13.87400000000000
C            2.83200000000000        9.30700000000000       15.46600000000000
H            3.92100000000000        9.28400000000000       15.45000000000000
C           -5.48700000000000       11.84300000000000       16.81400000000000
H           -5.70900000000000       12.86100000000000       17.19800000000000
H           -5.90400000000000       11.09300000000000       17.52000000000000
H           -5.95600000000000       11.72500000000000       15.81400000000000
C           -3.22100000000000       13.98800000000000       17.49500000000000
H           -2.31400000000000       14.59100000000000       17.27700000000000
H           -3.39700000000000       13.98500000000000       18.59200000000000
H           -4.09000000000000       14.44200000000000       16.97200000000000
C           -5.60300000000000        6.85700000000000       14.77800000000000
H           -6.08500000000000        7.84900000000000       14.64400000000000
H           -5.94700000000000        6.41500000000000       15.73800000000000
H           -5.89300000000000        6.19900000000000       13.93100000000000
C           -3.35800000000000        4.73800000000000       13.86200000000000
H           -2.69100000000000        4.39700000000000       13.05900000000000
C           -4.24300000000000        3.87200000000000       14.25300000000000
H           -4.95500000000000        4.12400000000000       15.05300000000000
H           -4.29200000000000        2.87600000000000       13.79000000000000
C            1.98300000000000        4.59500000000000       13.87400000000000
H            1.12500000000000        4.34000000000000       13.21600000000000
H            1.96400000000000        3.93100000000000       14.76400000000000
H            2.92700000000000        4.44500000000000       13.30900000000000
C            4.32600000000000        6.70200000000000       14.83900000000000
H            4.92200000000000        7.56300000000000       15.17200000000000
C            4.99900000000000        5.61700000000000       14.62600000000000
H            4.49000000000000        4.70100000000000       14.29000000000000
H            6.08800000000000        5.59700000000000       14.77800000000000
C            4.46500000000000       11.71100000000000       16.56300000000000
H            4.90400000000000       11.48600000000000       15.56800000000000
H            4.85400000000000       10.97900000000000       17.30300000000000
H            4.75500000000000       12.74200000000000       16.86000000000000
C            2.25100000000000       13.74400000000000       17.75900000000000
H            2.21700000000000       14.63100000000000       17.09100000000000
H            3.24800000000000       13.69800000000000       18.24700000000000
H            1.45600000000000       13.84200000000000       18.52900000000000
O           -0.28600000000000        8.50500000000000       17.47700000000000
H            0.26100000000000        7.73000000000000       17.34800000000000
H           -0.61000000000000        8.79700000000000       18.25200000000000
C            0.10800000000000       10.85200000000000        9.98600000000000
H            0.59800000000000       11.83900000000000        9.84500000000000
H           -0.73700000000000       10.76300000000000        9.27000000000000
H            0.85300000000000       10.05000000000000        9.79600000000000
N           -1.33100000000000       11.59300000000000       11.94300000000000
H           -1.78500000000000       12.33700000000000       11.45300000000000
C           -0.40800000000000       10.74300000000000       11.39900000000000
C           -1.51400000000000       11.25400000000000       13.22900000000000
H           -2.21600000000000       11.76000000000000       13.89100000000000
N           -0.73900000000000       10.25100000000000       13.55100000000000
C           -0.06100000000000        9.92000000000000       12.41400000000000
H            0.63800000000000        9.09300000000000       12.42700000000000
78
 energy: -116.036820522757 gnorm: 0.073445192224 xtb: 6.7.1 (edcfbbe)
Fe          -0.56637389807932        9.37996676783664       15.50053441697038
N           -1.96301020777612       10.64896169355175       16.22211926608743
N           -2.02248089828533        8.00800840528225       15.10559439766048
N            0.83956278903616        8.02088726788283       14.92048218470240
N            0.88692745344121       10.67025492282651       16.03015472255442
C           -1.74165973334552       11.91424886739437       16.71849267637113
C           -3.01027727980683       12.55454654075659       16.99687278310109
C           -3.98744976711424       11.65971448258183       16.69879905543975
C           -3.31963196714029       10.46913895236810       16.21550963383662
C           -3.37152489060739        8.18361120699643       15.26222722689191
C           -4.08879069095998        7.01789270360405       14.80784892524891
C           -3.14903813512881        6.11823776188970       14.38175760736268
C           -1.85604860501390        6.76148100605801       14.57085868751522
C            0.61818585547535        6.74251829721211       14.47925102039073
C            1.87244599301767        6.04362138453188       14.31721567168986
C            2.85805703641312        6.91743387697185       14.68859340856605
C            2.18827207967258        8.16511077146240       15.03639162659279
C            2.23637893493092       10.47261271982909       15.92446622694443
C            2.95699025495746       11.59997615350951       16.48738345484954
C            2.01466006353222       12.46175037570676       16.94968522597228
C            0.72709734876342       11.88500966828692       16.64403928748396
C           -0.49914579538474       12.46467479943941       16.93651346860279
H           -0.47468867811886       13.45009175938736       17.38982697576868
C           -3.96345131408393        9.32129697714759       15.78804952799099
H           -5.04458598347995        9.31181382289986       15.87372182633213
C           -0.63780187034524        6.18480542373588       14.28350721997455
H           -0.66495398396123        5.17718153254280       13.88247817993300
C            2.83127605890083        9.31288605559259       15.46096277035128
H            3.91473769396348        9.29225624752972       15.45632536009207
C           -5.47181062045219       11.83928055613174       16.81223550562831
H           -5.70665051075821       12.83797354459407       17.19159942119173
H           -5.89834875908149       11.10337153754217       17.50177299757802
H           -5.95137351243638       11.71946722964029       15.83459679584316
C           -3.20894117714684       13.97074189007264       17.48997862231809
H           -2.32735795802507       14.58189175068306       17.28140491366341
H           -3.39209773822068       13.98325463139735       18.56978991470628
H           -4.06740669400653       14.42784332383082       16.98805580009508
C           -5.58409510775364        6.86193714026220       14.77941549293279
H           -6.07604162096318        7.83056020520318       14.64542413799703
H           -5.94270368491941        6.42557625431927       15.71853765481843
H           -5.88101024694286        6.20629643071263       13.95506064596943
C           -3.34586502174736        4.76051122078108       13.85683278476147
H           -2.66688173738424        4.43599089193251       13.06817381415184
C           -4.25232191036752        3.88216649227521       14.25514858408761
H           -4.95174073282179        4.10908217203798       15.05053121295145
H           -4.30604295842423        2.89490117760892       13.80978536303475
C            1.97418265067348        4.61198984202016       13.87346453988600
H            1.13269299749342        4.34389493080289       13.22917942712303
H            1.96861068490001        3.94225387023693       14.74164020103704
H            2.89070619532284        4.44481318935194       13.30398534478229
C            4.30906636955976        6.71797119175954       14.82808140473819
H            4.87956146208904        7.58108148089781       15.16689471248990
C            5.00127639208238        5.60847208441222       14.62291418891614
H            4.52883181392685        4.68965887846373       14.30956911133476
H            6.07377239816777        5.58487310785520       14.77333308871592
C            4.45009187197039       11.70845226208410       16.55769048759550
H            4.89896365211998       11.49010085887691       15.58337242931886
H            4.85076829736299       10.99438457406301       17.28646465126721
H            4.75111531095033       12.71716045499083       16.85502220388241
C            2.24342828964563       13.73112762872701       17.74195675926452
H            2.21284148735079       14.61594147832359       17.09641449361649
H            3.22035937493736       13.69728085476674       18.23207999633715
H            1.47433394624355       13.83886186000382       18.51154832081941
O           -0.28883374887902        8.48916112461228       17.46380883723335
H            0.26661500850722        7.71537192791222       17.37676515077203
H           -0.61549091761238        8.79308970963825       18.29209971459094
C            0.10075345090080       10.85476859877942        9.99659748051597
H            0.58835180845170       11.82353503583090        9.84219426613347
H           -0.72118322746903       10.76332987081883        9.27881440659127
H            0.83061345478404       10.06596753614463        9.80337464336942
N           -1.33081254678042       11.59526095204443       11.93536712907615
H           -1.78896815135349       12.34221668553892       11.44285817701192
C           -0.39797831794176       10.74550975300551       11.40061264136876
C           -1.51069295952398       11.25428050859981       13.22727724230519
H           -2.20224933213396       11.75523283326441       13.88265654740976
N           -0.74756956285837       10.24076862728215       13.55190965961518
C           -0.05206404133427        9.91497525541428       12.42383268954175
H            0.63991801642526        9.09437613963757       12.43421355633333
78
 energy: -116.044091768101 gnorm: 0.021935732228 xtb: 6.7.1 (edcfbbe)
Fe          -0.57084848762098        9.37713100893261       15.49516945413466
N           -1.96120616036252       10.65561082098317       16.20889486019355
N           -2.02542406307395        8.02168638576617       15.08107283498137
N            0.83978510930241        8.02127673861636       14.92825682766082
N            0.88095534391530       10.67275358151565       16.02381636843263
C           -1.74580211052169       11.90888373468293       16.70300985922099
C           -3.00663377143453       12.55889723984887       16.99078836918786
C           -3.98191152544225       11.65579685862486       16.69209304617344
C           -3.30963665573104       10.47114450387057       16.20276326780610
C           -3.36508502919376        8.19184615971577       15.24789856618346
C           -4.08470217487386        7.01693645602571       14.81229452676560
C           -3.14172145072757        6.12034231753456       14.38489091725082
C           -1.85651973304185        6.77875445782471       14.55692156903200
C            0.61783351369225        6.75032985340546       14.48524327580555
C            1.86610496707156        6.04601275326992       14.31638686396006
C            2.86297403241318        6.91963335550506       14.68863950931021
C            2.18658191688433        8.16139080626007       15.04009698312286
C            2.22292917265331       10.46978862517380       15.92554816084391
C            2.94818310660617       11.59065126191041       16.48734435276676
C            2.00901892529097       12.45605927570504       16.96050046558371
C            0.72197487744388       11.87684954657958       16.63984186151960
C           -0.49794222673792       12.46566660402154       16.92760042443523
H           -0.47126045211551       13.44568602620268       17.38374424035555
C           -3.96134524585782        9.32661526269619       15.77627071990561
H           -5.03857519476891        9.31858088933884       15.86720629680512
C           -0.63610274512556        6.18945170994725       14.27924289983967
H           -0.66458398450299        5.17916919330374       13.89585880178086
C            2.82870181297611        9.31625558310492       15.45841896958670
H            3.90836338322936        9.30428387532687       15.46160757031500
C           -5.45888321420772       11.83037229809750       16.80946623920852
H           -5.69640872156471       12.82045126949293       17.18808221987087
H           -5.88460600306646       11.09701912150925       17.49155561015566
H           -5.94257456211827       11.70798542861054       15.84128517232492
C           -3.19595980410016       13.95457103490895       17.48637542643027
H           -2.32403055647549       14.56709630581947       17.28168800588617
H           -3.37910287788954       13.96794334928775       18.55999885629804
H           -4.05287454716913       14.41339674317730       16.99744786612904
C           -5.56773852698465        6.86409817431681       14.78552266715570
H           -6.05846642114833        7.82358252973459       14.64346215263084
H           -5.93277078313085        6.43548958390638       15.71846329367471
H           -5.86040572075888        6.20185502585119       13.97391518792920
C           -3.32810134745436        4.78138679390254       13.86147839427537
H           -2.64039163557546        4.47281710691868       13.08152158503457
C           -4.24725076930954        3.90373925542321       14.25970562245801
H           -4.94639361452441        4.11859285700411       15.04651395630309
H           -4.31604569026499        2.92597737509407       13.81440310326088
C            1.96558183994470        4.62756264117692       13.86648290922670
H            1.12123133591090        4.35756184349036       13.23908737405841
H            1.97651461966904        3.95556582602149       14.72590601246567
H            2.86960853397983        4.46147889271926       13.29033022340993
C            4.28756951562167        6.72389463123125       14.82151732378476
H            4.84206136362611        7.59689880090462       15.14153453913341
C            4.99126907990241        5.60643002996060       14.63032423864961
H            4.54888097178674        4.67902533865754       14.32812879740060
H            6.05765334249830        5.59251379762910       14.77044438546223
C            4.43470869764863       11.70242171040630       16.55412479606854
H            4.88321301836751       11.48871576348722       15.58642600356533
H            4.84220042638049       10.99546131772431       17.27694142186240
H            4.73454143238113       12.70290543834068       16.85193485969608
C            2.23293778266967       13.71749502819692       17.72763903999101
H            2.19928759562022       14.59361279866575       17.08150515544833
H            3.20461950291419       13.69378775290195       18.21361020429507
H            1.47515621286322       13.83478703851743       18.49755670657715
O           -0.32676659535935        8.45538356057949       17.46610790718113
H            0.27673232621958        7.70605087470777       17.44500127498021
H           -0.60282636055132        8.78531071507749       18.32370666082724
C            0.09754095018743       10.85309977125010       10.00920792497158
H            0.58099119868594       11.81512157814801        9.84564364841487
H           -0.72035567730065       10.76070141239019        9.29756294710543
H            0.81844780323925       10.06835438070350        9.81263400495972
N           -1.32597801910629       11.59358273808751       11.93545659148940
H           -1.78643892082845       12.34065092743184       11.44028617550568
C           -0.38714202880675       10.74386606822176       11.40906005659227
C           -1.50905262570517       11.25037660228515       13.22992141960307
H           -2.19445452522985       11.74983808818484       13.88107250826714
N           -0.74765382836774       10.23670135123897       13.56039818642607
C           -0.04555462078271        9.90889951582212       12.43697928757662
H            0.64737529731828        9.09508462709073       12.44516019301806
78
 energy: -116.046408811462 gnorm: 0.044833280618 xtb: 6.7.1 (edcfbbe)
Fe          -0.57505553007286        9.37236236825045       15.49405291064460
N           -1.95863850374366       10.65813882115088       16.19565488607119
N           -2.02459365427358        8.03708848654407       15.06000151491014
N            0.83755864527516        8.02303482655586       14.93487693851822
N            0.87360420583089       10.66461233562588       16.02795717270653
C           -1.74603909762134       11.90498608937786       16.68947958119598
C           -3.00296188429943       12.55827962416033       16.98193635909803
C           -3.97744294020672       11.65292606437453       16.68220659743082
C           -3.30408257265544       10.47331995500363       16.18765741423343
C           -3.36039020510352        8.20269901015604       15.23365941577986
C           -4.07981791941003        7.02167477434586       14.81433993034475
C           -3.13473104366005        6.12803277556984       14.38549596351203
C           -1.85394848794383        6.79461959404456       14.54556232656897
C            0.61433126294600        6.75700710288939       14.48766078323726
C            1.85651018205540        6.04864869684294       14.31447619226381
C            2.85969506569896        6.92000137464411       14.68575329576950
C            2.18329168368438        8.15920807711167       15.04297182887740
C            2.21184120615522       10.46184262856416       15.92843172815358
C            2.93889308051284       11.57969476777949       16.48883895991906
C            2.00229562806642       12.44690779467115       16.96422213679322
C            0.71539944840009       11.86650605470261       16.63965041522426
C           -0.49851667661749       12.46524607853562       16.92110548667111
H           -0.47036305065114       13.44378140768934       17.37637561194934
C           -3.96171717769960        9.33362536797812       15.76128082167212
H           -5.03701501471858        9.32621335359341       15.85641388854107
C           -0.63668521348439        6.19528500974537       14.27540112686692
H           -0.66723315432649        5.18147771829906       13.90632131831309
C            2.82569205481753        9.31494831442422       15.45863205537598
H            3.90406609495939        9.31224428268214       15.46515247373066
C           -5.45204691460804       11.82039011041314       16.80532440673059
H           -5.69173234498911       12.80785598029154       17.18648468924588
H           -5.87147440469115       11.08319287065928       17.48645712191160
H           -5.93887253065595       11.69551306871976       15.83954100644713
C           -3.18488800027154       13.94555109915969       17.48672094825831
H           -2.31396566887242       14.55859361498958       17.28236275579238
H           -3.36239242294695       13.95248437121592       18.56129049167357
H           -4.04444377139072       14.40987662135334       17.00786387869961
C           -5.55798910708422        6.86572272226729       14.79238745036465
H           -6.04928265578188        7.82188885211769       14.63700604580637
H           -5.92419910447225        6.44833251566642       15.72945532206196
H           -5.84658215870528        6.19008045499400       13.99055625896102
C           -3.31581594406953        4.79733813548432       13.85996445403163
H           -2.61402605245573        4.49516283844606       13.09182302168774
C           -4.24593310074799        3.92665300364218       14.25221873433020
H           -4.93966709809388        4.13703155530776       15.04379922196106
H           -4.31875635430603        2.94784923355621       13.81256739325178
C            1.95524981166779        4.63777192300242       13.85397337352847
H            1.09846784046104        4.36632049000052       13.24496721423487
H            1.99049728969382        3.96006133193576       14.70872349952262
H            2.84756222536874        4.48164678599941       13.25724543079944
C            4.27710624732397        6.72961400670331       14.80509714530149
H            4.82299833042682        7.61272614505923       15.10923034745715
C            4.98897130941655        5.61141400371302       14.63000855278685
H            4.56216155158254        4.66266251637480       14.36838993474989
H            6.05442545904609        5.60934155555304       14.77328380373177
C            4.42311978399926       11.69462059257659       16.55132711046427
H            4.86859170336133       11.48454095946589       15.58220327326245
H            4.83608122550832       10.98844914302753       17.27108433917270
H            4.71918756592921       12.69490882230360       16.85035874513207
C            2.22223751111693       13.71249842916980       17.71385028863003
H            2.18004801697223       14.58038203786577       17.05739979221491
H            3.19627296902745       13.70051612846354       18.19516300374039
H            1.46921288344817       13.83688673566708       18.48718934540650
O           -0.41745495284356        8.38856070039362       17.47100265419506
H            0.31346878152470        7.72461606403902       17.52121844602820
H           -0.56337442376445        8.79554618866881       18.35736136876062
C            0.09742632331043       10.84685139839970       10.02043548073286
H            0.57775802655010       11.80862833630263        9.84943993646053
H           -0.72659266960711       10.75276730859731        9.31669994090018
H            0.81582443375552       10.06195482372512        9.81913581151326
N           -1.31842996802251       11.58947812304408       11.94254888253820
H           -1.78090093977478       12.33404855429432       11.44462866393467
C           -0.37627071866777       10.74028942536155       11.42187902954252
C           -1.50460271195059       11.24691418800607       13.23760883366844
H           -2.18942584345495       11.74682639221715       13.88684030144331
N           -0.74260482281117       10.23515346894412       13.57218089683114
C           -0.03577254397618        9.90652223858341       12.45239431519071
H            0.66088150761107        9.09655137894461       12.45973790253461
78
 energy: -116.048039960282 gnorm: 0.019044893201 xtb: 6.7.1 (edcfbbe)
Fe          -0.57647869224255        9.36836020058596       15.50000403504614
N           -1.95650723402319       10.65805631692878       16.18762157119104
N           -2.02143196917738        8.05013134268741       15.04716582425058
N            0.83535222109073        8.02539674364450       14.93977705469707
N            0.86858438876187       10.65461896313775       16.03745042963384
C           -1.74451709859247       11.90415123806951       16.68154427514490
C           -3.00066424664699       12.55677982989628       16.97452994978065
C           -3.97503911994122       11.65275982932473       16.67374144107314
C           -3.30246338926218       10.47566642373331       16.17678363704293
C           -3.35746576209834        8.21182598900997       15.22436761403997
C           -4.07528993873277        7.02798431721485       14.81459111283298
C           -3.12917825158934        6.13638487047686       14.38538319845725
C           -1.85027523714967        6.80597023654367       14.53928860040888
C            0.61134013017265        6.76122057617411       14.48871501214455
C            1.84994673336132        6.05147931836100       14.31214292581168
C            2.85442102421191        6.92022484570027       14.68255771010177
C            2.18118619025550        8.15910894400322       15.04458341317158
C            2.20652252077395       10.45469457589673       15.93297533145377
C            2.93312125775747       11.57345566401368       16.48995567528968
C            1.99756429028175       12.44118981505550       16.96241306834152
C            0.71080679526843       11.86003727099704       16.64188155392801
C           -0.49974089044960       12.46547881271930       16.91763218581363
H           -0.47090894768157       13.44540592114896       17.36901149070266
C           -3.96281937135195        9.33975900078527       15.74968096528647
H           -5.03776382481513        9.33233756886160       15.84602661316728
C           -0.63760891320683        6.20048545839372       14.27402263060605
H           -0.67014765558880        5.18398833685135       13.91320814835891
C            2.82439652543689        9.31225038253977       15.46136673067448
H            3.90284217391112        9.31629486827037       15.46650155372806
C           -5.45018868890451       11.81306699157043       16.80180289045766
H           -5.69249495934421       12.80032359449704       17.18601778529403
H           -5.86168458501746       11.07048775392405       17.48474086279455
H           -5.93919922139763       11.68598996045274       15.83566553027515
C           -3.17772687678663       13.94295256863003       17.48907952516818
H           -2.30454348453242       14.55535125296079       17.28231731533479
H           -3.34703791448158       13.94137462851172       18.56683986893814
H           -4.04085797076495       14.41232059256025       17.01759780557234
C           -5.55329877815518        6.86655909837646       14.79920581616852
H           -6.04676556233091        7.82141784819766       14.63054268985653
H           -5.91635618819277        6.46105848385326       15.74461567448143
H           -5.83994460671501        6.17711750980384       14.00563657866772
C           -3.30654007928868        4.80459515296280       13.86082183290591
H           -2.59805315149216        4.50479273420627       13.09722226953942
C           -4.24146363864213        3.94035444008703       14.24874816037893
H           -4.93756036666704        4.15659045302177       15.03912109533631
H           -4.32050177290709        2.96096777367335       13.80758906065998
C            1.95007704991079        4.64374254535575       13.84162924848886
H            1.08060851369929        4.37017980175568       13.24780093831383
H            2.00741893681449        3.96042030349835       14.69336191723890
H            2.83433683253135        4.50049468735255       13.22516044756070
C            4.27445023402911        6.73202188295563       14.79458102706083
H            4.82068117418748        7.62581953728648       15.07240411796969
C            4.98753741540286        5.61403856728473       14.63700117227974
H            4.56499743606798        4.65296240580692       14.40098545256582
H            6.05670771306354        5.62434988050313       14.76925511803530
C            4.41747768974029       11.68971069882269       16.54792536017656
H            4.85874854514029       11.48184623225138       15.57460138066434
H            4.83390967262929       10.98148523781004       17.26585292614768
H            4.71070344036673       12.69228553090828       16.84788628113541
C            2.21421555055978       13.71559764959615       17.70127796447589
H            2.16169826414863       14.57603740604440       17.03252260461500
H            3.19299819911341       13.71406741248235       18.17734135582649
H            1.46265782461524       13.84311625541894       18.47816634194311
O           -0.39909981229522        8.39675945747677       17.49758808211457
H            0.26144375767740        7.70365057560481       17.54631387168307
H           -0.56795465901471        8.76930838174427       18.37403466798396
C            0.09776965119711       10.83763968796712       10.02923360503375