72
 energy: -105.979769206058 gnorm: 0.000054963231 xtb: 6.7.1 (edcfbbe)
Fe          42.30300026897622        8.40254254469683       18.44612300585077
N           40.43235447624436        8.19840768519750       19.08594793217000
N           41.67764761364421        8.29727988260241       16.54947586594602
N           44.20231211545487        8.58675831428806       17.80318917252426
N           42.95520533769147        8.38343841278785       20.33323115871720
C           40.01617315909955        8.06771625451593       20.37059115847573
C           38.57216776335178        7.99442600086324       20.43607155895872
C           38.12759091763186        8.08965268256353       19.15553725060244
C           39.30758543364080        8.20060000114915       18.32413241854167
C           40.38676314620826        8.26345072713185       16.12495646180417
C           40.32416882345611        8.19255761652449       14.68910712918165
C           41.61844055143101        8.14780938267834       14.24618862517948
C           42.44843805041935        8.25578296551719       15.42967289335484
C           44.62227398527027        8.62114295265211       16.50769486804085
C           46.03207386055345        8.89313136743372       16.43909765276696
C           46.45952468282859        9.06020086228391       17.72989973325106
C           45.29964279566590        8.83706520544096       18.56673769052771
C           44.24278009491677        8.50499202547440       20.75581237856989
C           44.32443266897774        8.35498566303640       22.19173917580972
C           43.05431270552795        8.13594629743994       22.62547812391148
C           42.21293888011413        8.16136251657762       21.44984600446324
C           40.83875532547994        8.02057191726361       21.47987188746579
H           40.37324625785308        7.87312335251117       22.44184453920999
C           39.27307545598390        8.25352460704245       16.94607885157569
H           38.30523564855432        8.24906365652236       16.46936078144756
C           43.81811842451899        8.42880575916833       15.39850752408995
H           44.29044374615887        8.46850775005657       14.43009665010628
C           45.33509252745195        8.75510876947911       19.94716918924435
H           46.29613328822623        8.86119761946809       20.42435724737016
C           36.73215961621172        8.07398539049695       18.63436944627260
H           36.01530173488018        8.02537010429021       19.45021835477267
H           36.57527254797048        7.21000693456847       17.98824453556156
H           36.53001855651105        8.97297624720717       18.05187769629739
C           37.79584700698306        7.84927262956928       21.69920822121663
H           37.99525330042560        8.68425669221113       22.37151730915395
H           38.07200144693328        6.92822425943049       22.21251813789512
H           36.72838215603436        7.82038549336595       21.49566710958003
C           39.06881621007805        8.11674212044321       13.89235311360333
H           38.41814890867649        8.96040624594720       14.12267785729724
H           38.52477195946416        7.19923733631843       14.11938195015994
H           39.28972806333839        8.12659799698869       12.82810635345571
C           42.06706625233313        8.01783603979156       12.87546452604918
H           41.46552642555513        8.54062764999910       12.14011614728789
C           43.10167387618336        7.29342419127595       12.46452611383474
H           43.70043833061659        6.71138598423071       13.14481159500176
H           43.37239872992419        7.23775663091620       11.42339073489463
C           46.81504659972109        9.01867626635669       15.17931632133159
H           46.45899068727055        9.86537315807830       14.59187177616929
H           46.71123581578664        8.12056412245094       14.56999263495149
H           47.86876723104808        9.17334124107136       15.39681366356679
C           47.79858799735620        9.39615366157905       18.16731741972682
H           48.60012944806444        8.95124154398047       17.58774909887180
C           48.10355356424792       10.21621879582100       19.16637886193604
H           47.34796324125148       10.72769324481101       19.73847048252492
H           49.12659248376796       10.42542504854678       19.43103345433278
C           45.59076748997611        8.43508269827473       22.97204603029455
H           46.05770837665981        9.41252586978289       22.84765024473072
H           46.29833993881158        7.67865160813416       22.63240830896231
H           45.40256061165354        8.27821026795656       24.03113709855108
C           42.55351798110769        7.91049892135145       24.01018354479418
H           41.85182996885612        8.69403857201563       24.29824919333201
H           43.37470823376276        7.90830398552339       24.72250838541358
H           42.03713974639177        6.95307506328533       24.07741485088163
O           42.62699200730486        6.18467460305627       18.33782258530005
H           42.51115153781993        6.02694652274417       17.39363713390257
H           43.57221288099364        6.13431157601334       18.51967247184829
C           41.18198342047310       11.27088189495180       19.88738546951062
H           40.13931511494871       11.10864135203812       19.63493160267354
H           41.36179368972476       12.32436131403142       20.07843408711735
H           41.45195493254617       10.66094088624349       20.74271234875010
S           42.15834456985344       10.75144230240735       18.43307595474610
H           43.34807930316457       10.99808074008171       18.99252084430487
