72
 energy: -105.895049041397 gnorm: 0.246981352499 xtb: 6.7.1 (edcfbbe)
Fe          42.34700000000000        8.54600000000000       18.45500000000000
N           40.40900000000000        8.28400000000000       19.11799999999999
N           41.66200000000000        8.48600000000000       16.53500000000000
N           44.31400000000000        8.69300000000000       17.78200000000000
N           43.02900000000000        8.44900000000000       20.39100000000000
C           40.00400000000000        8.24200000000000       20.43100000000000
C           38.55800000000000        8.15300000000000       20.47300000000000
C           38.11299999999999        8.15000000000000       19.20400000000000
C           39.27800000000000        8.21900000000000       18.33500000000000
C           40.35299999999999        8.22800000000000       16.14000000000000
C           40.31999999999999        8.05800000000000       14.70000000000000
C           41.58800000000000        8.19900000000000       14.26800000000000
C           42.45300000000000        8.48400000000000       15.41000000000000
C           44.65900000000000        8.90600000000000       16.45700000000000
C           46.08300000000000        9.20800000000000       16.42600000000000
C           46.54900000000000        9.14600000000000       17.69100000000000
C           45.43900000000000        8.78900000000000       18.56100000000000
C           44.36800000000000        8.33800000000000       20.75400000000000
C           44.44700000000000        8.07200000000000       22.17600000000000
C           43.01700000000000        7.98400000000000       22.65900000000000
C           42.20000000000000        8.21700000000000       21.49800000000000
C           40.83100000000000        8.26100000000000       21.52600000000000
H           40.35600000000000        8.31600000000000       22.50600000000000
C           39.25800000000000        8.19900000000000       16.96700000000000
H           38.28000000000000        8.15600000000000       16.48900000000000
C           43.80900000000000        8.78600000000000       15.38300000000000
H           44.24900000000000        8.94600000000000       14.39900000000000
C           45.46300000000000        8.54500000000000       19.92800000000000
H           46.44400000000000        8.51300000000000       20.40100000000000
C           36.65699999999999        8.04100000000000       18.70700000000000
H           35.97300000000000        7.96000000000000       19.57900000000000
H           36.54300000000000        7.13500000000000       18.07400000000000
H           36.39100000000000        8.94800000000000       18.12300000000000
C           37.74900000000000        8.00300000000000       21.76800000000000
H           37.49200000000000        9.00900000000000       22.16300000000000
H           38.35300000000000        7.46100000000000       22.52700000000000
H           36.81000000000000        7.44600000000000       21.56200000000000
C           39.05600000000000        7.75600000000000       13.82300000000000
H           38.59300000000000        8.71200000000000       13.49800000000000
H           38.31499999999999        7.18100000000000       14.41800000000000
H           39.35300000000000        7.17600000000000       12.92400000000000
C           42.04100000000000        8.11200000000000       12.79800000000000
H           41.53500000000000        8.71600000000000       12.03000000000000
C           43.02999999999999        7.32800000000000       12.41600000000000
H           43.56499999999999        6.70700000000000       13.14900000000000
H           43.33300000000000        7.28600000000000       11.35900000000000
C           46.92400000000000        9.56900000000000       15.17900000000000
H           46.25200000000000        9.91900000000000       14.36700000000000
H           47.47700000000000        8.67200000000000       14.82700000000000
H           47.63799999999999       10.38200000000000       15.43100000000000
C           48.03400000000000        9.39600000000000       18.06800000000000
H           48.84000000000000        9.15900000000000       17.35800000000000
C           48.35899999999999        9.90200000000000       19.25900000000000
H           47.57800000000000       10.15000000000000       19.99200000000000
H           49.41200000000000       10.07800000000000       19.52200000000000
C           45.72300000000000        7.87200000000000       23.03000000000000
H           46.26300000000000        8.83900000000000       23.12200000000000
H           46.39100000000000        7.13200000000000       22.54000000000000
H           45.44400000000000        7.51700000000000       24.04500000000000
C           42.54699999999999        7.73400000000000       24.09100000000000
H           42.43000000000000        8.70500000000000       24.61799999999999
H           43.29899999999999        7.12000000000000       24.63100000000000
H           41.56700000000000        7.21100000000000       24.07800000000000
O           42.58700000000000        6.39700000000000       18.47300000000000
H           42.17800000000000        6.07900000000000       17.66800000000000
H           42.98299999999999        5.89900000000000       19.09400000000000
C           40.93200000000000       11.40400000000000       19.32600000000000
H           40.01500000000000       11.33800000000000       18.70200000000000
H           41.05500000000000       12.46100000000000       19.64500000000000
H           40.78200000000000       10.76900000000000       20.22500000000000
S           42.38600000000000       10.85600000000000       18.41300000000000
H           43.18699999999999       10.84300000000000       19.46800000000000
72
 energy: -105.946396498785 gnorm: 0.101632610352 xtb: 6.7.1 (edcfbbe)
Fe          42.34964566903217        8.53771870943993       18.44766045691567
N           40.41313134214261        8.29553556861483       19.11586175794640
N           41.66393952373699        8.45084368173351       16.53097111785281
N           44.30701195519764        8.69998375261650       17.78341650531414
N           43.02713471791056        8.43707833762651       20.37819044193623
C           40.00834431199789        8.25030601924229       20.42149829478193
C           38.55898866766284        8.14813001815749       20.48138781642055
C           38.10919980890678        8.14368594453249       19.20247784927633
C           39.28321860158056        8.22771401187087       18.34685161276207
C           40.36507202665563        8.23124638268592       16.12878481402121
C           40.31970364378552        8.06756439911263       14.68807177571923
C           41.59778520317676        8.21748052970643       14.24490617031700
C           42.44259427554452        8.48219396904974       15.40740808109089
C           44.66155689681482        8.90976609396623       16.47242478931524
C           46.08711525424810        9.20652376969010       16.42212569080105
C           46.56492748107677        9.13286506610769       17.69778407673485
C           45.43034663322277        8.79575253652404       18.55752954741516
C           44.34349833334998        8.34271046720758       20.76862773593472
C           44.41374839383546        8.06411812202684       22.18758926316146
C           43.06864044656463        7.99831843453595       22.64772196469020
C           42.24049683449480        8.23430141875421       21.49528066859533
C           40.85014991610925        8.26604484273031       21.51937416334672
H           40.37362679484927        8.29402097834503       22.49527432086144
C           39.26341821886908        8.20231723222476       16.96643548824167
H           38.28897382234487        8.14755027745693       16.49258006334356
C           43.80367442309869        8.78625901186782       15.38857949613489
H           44.24382069199265        8.93250750242460       14.40643837903219
C           45.44486105090757        8.54868648387143       19.93008313027084
H           46.42190337310563        8.50532600709517       20.40018309534754
C           36.67893753385231        8.04191658069569       18.71366616729342
H           35.99094295118078        7.96324572645948       19.56177816461764
H           36.55017356231983        7.15495929081500       18.08280670278833
H           36.40262422816295        8.92906048337823       18.13230136551174
C           37.75872423309162        8.00915926004804       21.75503015632717
H           37.49692586560719        8.99524206758202       22.15740459477105
H           38.33776494868795        7.47000674097071       22.51114711070231
H           36.83161914272375        7.45788269979749       21.56701177978847
C           39.08229301698998        7.76429833200609       13.84469206372836
H           38.61029169123481        8.69728045345486       13.51308100379122
H           38.34109932632299        7.19179081758078       14.41217632315424
H           39.35897046456339        7.19104253546175       12.95354464717116
C           42.04855265202627        8.11866095028556       12.82216747750684
H           41.52229531170586        8.71104643751271       12.07310055214261
C           43.03556681014408        7.33089683965261       12.42675827924089
H           43.56860082565360        6.70723403487633       13.13451866871227
H           43.33233755048541        7.27977880601996       11.38295958936513
C           46.90259174400401        9.56274666679017       15.19281233298677
H           46.25799778004129        9.91224021918642       14.38100950676742
H           47.46184248379587        8.68842461873673       14.83769657314016
H           47.61761357481339       10.35807783184238       15.43081277804782
C           47.99458124305197        9.38272149556678       18.08520183841371
H           48.77729917663164        9.15603504368734       17.35905992651606
C           48.34713848133177        9.89801487351556       19.25791390186708
H           47.59878446534461       10.16772503548339       19.99092380778120
H           49.38827598416214       10.07435380442602       19.51368599796317
C           45.68152580986571        7.87751764244410       23.00882387742853
H           46.23590563794180        8.82094332404259       23.11140075775162
H           46.35956135706593        7.15006294888824       22.54306757792375
H           45.44066349454829        7.52505193415974       24.01713134909335
C           42.57249812211918        7.74297847735989       24.05525764552607
H           42.43979370055240        8.68811271672494       24.60052183862492
H           43.28791802187607        7.13216055881375       24.61606209888134
H           41.60442843719342        7.22432671323161       24.06181547033066
O           42.57189761533504        6.40346280871237       18.45382230265429
H           42.17834797441824        6.04658399948010       17.65985213781521
H           42.99202093089468        5.86992940874830       19.10419760890344
C           40.91957280955470       11.41519747757407       19.34349914517514
H           40.03617802226590       11.33491786121953       18.70232584493380
H           41.05159414996193       12.45888486481987       19.64534719198464
H           40.77897230374077       10.77671212742591       20.21979300089444
S           42.37131123388859       10.85634970193245       18.42089724486032
H           43.18943701863298       10.85941621937266       19.47040502954088
72
 energy: -105.962729914963 gnorm: 0.037475018436 xtb: 6.7.1 (edcfbbe)
Fe          42.35192705345432        8.52513717786238       18.44649212814037
N           40.42118657329016        8.30980773407876       19.11257301617001
N           41.66863296275265        8.42972732806737       16.53443514303851
N           44.29044707420703        8.70571517264823       17.78657030915799
N           43.02414371292324        8.43447364018500       20.36813216756227
C           40.01893076124553        8.25971345176202       20.41141760421177
C           38.56981353813222        8.14860093926838       20.48529765586531
C           38.11723816571843        8.14295331586154       19.19963681305446
C           39.29523748689225        8.23476355760593       18.35345140485608
C           40.38209954025306        8.22801679842996       16.12792912416567
C           40.32658848580211        8.08116923526801       14.68795259219509
C           41.61196997760996        8.23162170496129       14.23796190696526
C           42.44034290109471        8.47275846719275       15.41538261990506
C           44.65550043958234        8.90998028737764       16.48942980045971
C           46.07750687180047        9.20028994579417       16.42499759305266
C           46.55938456051084        9.12623003512935       17.70968515242845
C           45.40969859942904        8.80052403786928       18.55663801035726
C           44.32456995624108        8.34394547874927       20.76825835111945
C           44.38614984794726        8.06787958087170       22.19196955729351
C           43.10931183156831        8.01263999760031       22.63243296080753
C           42.26508516170871        8.24553676742738       21.48343922943253
C           40.86838936467813        8.26499199913142       21.50895811831928
H           40.39493714794662        8.26018741087053       22.48293192953578
C           39.27462337916240        8.19781562893895       16.96746111472556
H           38.30328734263797        8.13497177384657       16.49612099140004
C           43.80013964574632        8.77753278937378       15.39703874362597
H           44.23961215604292        8.91168286287954       14.41618001485524
C           45.42572641195314        8.54745209068857       19.92800173891999
H           46.39903450717788        8.49905994967787       20.39712523635637
C           36.70664390072224        8.04295641057106       18.71800970337797
H           36.01766645873839        7.96670196249444       19.55540416873628
H           36.56941889596730        7.16609212224856       18.08635619332393
H           36.42763553906666        8.92076018919857       18.13656582354637
C           37.77363732127598        8.01546052805115       21.74188050362246
H           37.50998698466717        8.99262936582742       22.14681040323774
H           38.33576548026728        7.47648628466777       22.49984042912270
H           36.85071266969815        7.47011746403825       21.55877464881828
C           39.11338972478552        7.77875317021338       13.86709423188727
H           38.63102136058554        8.69856448967926       13.53266856949268
H           38.37807679133399        7.20415390172552       14.42580936783275
H           39.38225164448499        7.20702053041655       12.98065242885027
C           42.05675943000511        8.12517040313335       12.85480578123122
H           41.50809576616890        8.70840043648786       12.12191822808921
C           43.04141097650146        7.33689430803099       12.44329334640806
H           43.58302866866787        6.71269315776421       13.13136444161717
H           43.32820749204080        7.27860509659486       11.40621517787438
C           46.87640348841479        9.55132541644353       15.21045859692214
H           46.24426447338466        9.89988056130866       14.39957445501651
H           47.44110702955513        8.68897839022870       14.85261089470245
H           47.59226236788943       10.33866851980316       15.44157254792237
C           47.93794035100790        9.37147980786733       18.10056457298940
H           48.69727188847741        9.13888901417597       17.35863820478646
C           48.32682062773622        9.89593453230399       19.25889444328021
H           47.61092417599411       10.18759043767183       20.00504911242000
H           49.36451446051934       10.06716297227086       19.49679924471717
C           45.64365339625419        7.88429801835866       22.98677930285420
H           46.19645492064032        8.82080019028928       23.08532779308160
H           46.31644629657507        7.16189131296091       22.52215829386206
H           45.41801862278732        7.53259985238663       23.99117575723363
C           42.60058845971245        7.75371527599076       24.02127717950195
H           42.45720474661657        8.68866296991154       24.56862704799079
H           43.29987116112522        7.14442361202499       24.59002192015993
H           41.64195681299056        7.23425368708834       24.01687969609924
O           42.55094105723815        6.39850988719420       18.43941827591791
H           42.18885446954128        5.98221543174302       17.65472990808749
H           42.99131133239649        5.84866826890932       19.08841481340338
C           40.90652778651412       11.42562771295169       19.36098760974669
H           40.04880827771863       11.33507677424356       18.70266021916298
H           41.04674256686804       12.46165769837131       19.64907561835108
H           40.76950918498915       10.78770276468935       20.22508753304512
S           42.36084854099352       10.85420680031228       18.42955460553029
H           43.19752894157337       10.89214110993897       19.47129787816909
72
 energy: -105.968065028844 gnorm: 0.022656821364 xtb: 6.7.1 (edcfbbe)
Fe          42.34999385530566        8.51237688930318       18.44820151624817
N           40.43123820654587        8.31930534254655       19.11059129177272
N           41.67734324030550        8.41589359902446       16.54548470547380
N           44.26889703465118        8.70073710701148       17.79030747500649
N           43.01889494499825        8.42920558402147       20.35781876902765
C           40.02779839602739        8.26635326924190       20.40605662466541
C           38.58289851468319        8.15200874327130       20.48229924492158
C           38.13231646295449        8.14466256650607       19.19669008387905
C           39.30770046186709        8.23927499859956       18.35314109628420
C           40.39407173058793        8.22691318174194       16.13628072079199
C           40.33869723380534        8.09236034315361       14.69942812929869
C           41.62417837956377        8.23574320489275       14.25014843833077
C           42.44617685812813        8.46225611368303       15.42789358258673
C           44.64248669903895        8.90233973309381       16.49835592154582
C           46.05734368888218        9.18996816909494       16.43297560547746
C           46.53306522030820        9.12413652925520       17.72027775015085
C           45.38468655954598        8.80228739293501       18.55802095119386
C           44.31829539460484        8.34394996051903       20.75334910463363
C           44.38857533019440        8.07022067760846       22.17590629869235
C           43.10648093432480        8.02688042814688       22.62407494291083
C           42.26221888237259        8.25260486947094       21.47203471979803
C           40.87258849672589        8.26400920428938       21.50330619211412
H           40.40343720128040        8.22538878699142       22.47804091960937
C           39.28437239554551        8.19539728459761       16.96964101010962
H           38.31490529443875        8.12042728128661       16.49821091010798
C           43.79984724778556        8.76443852196093       15.40177283771423
H           44.24140296616732        8.88483905376391       14.42125862278307
C           45.41433146521710        8.54750426938368       19.92288494246587
H           46.38683624131035        8.49407705443652       20.38990528310187
C           36.72732863247227        8.04495418297239       18.71341071190491
H           36.03876462202420        7.97018918825266       19.55099602214354
H           36.59238440196899        7.16840754797047       18.08078240449350
H           36.45352826016962        8.92339344511825       18.13040668998144
C           37.78632649865469        8.02436743083886       21.73545908436793
H           37.52688565805639        9.00341431902712       22.13909357934720
H           38.34222402722418        7.48172519544806       22.49580156123557
H           36.86165393087272        7.48348825982585       21.54803766217815
C           39.13091207884226        7.79212173802044       13.88218214806085
H           38.64554104965885        8.71175858882255       13.55191870751875
H           38.40361093222479        7.21215058919345       14.44537312296084
H           39.40665124661341        7.22298339094018       12.99653479617936
C           42.06840291685924        8.12950815537777       12.87373633709458
H           41.49971125312172        8.70291540317208       12.14820768835971
C           43.05675181610319        7.34838913085380       12.45712419171784
H           43.60934902998491        6.72688543136798       13.14022303460948
H           43.33015427425277        7.28084954894813       11.41784205131976
C           46.85145984247886        9.53782674727564       15.22045424504706
H           46.21646955209803        9.88457583498142       14.41096224925274
H           47.41644005048776        8.67470573515502       14.86468703879289
H           47.56647552175302       10.32537912154093       15.45272964343126
C           47.90045460377614        9.36256196204285       18.11646469514920
H           48.64404193852739        9.11852847995038       17.36408541569941
C           48.30999756327907        9.89436443538241       19.26550619945429
H           47.61219897728537       10.21906008967495       20.01925751421187
H           49.35234647067581       10.05893546233481       19.48177764908787
C           45.63964343233646        7.89018443118465       22.96459763545643
H           46.18166824700047        8.83161950592816       23.05522649476333
H           46.30134977943697        7.16581008501625       22.49206323046130
H           45.40828889733025        7.54046421259180       23.96773088209118
C           42.60937685685171        7.76532346394898       24.00734623445479
H           42.46504865387646        8.70123554755891       24.54914308966315
H           43.31657510511590        7.15897372718467       24.56781522488557
H           41.65799338310937        7.23798357678132       23.98760715638871
O           42.51486530449432        6.37024174439577       18.43278986500711
H           42.20900972096437        5.91663920919750       17.63795996121173
H           42.99624924427569        5.82298886871005       19.06063946058586
C           40.89548906536997       11.43559397581293       19.37616324296226
H           40.04711642805260       11.33883591483791       18.70724072998286
H           41.03889020640189       12.47391321934764       19.65456166641836
H           40.75391909395897       10.80283396561729       20.24312096496470
S           42.35127794189439       10.85169400919493       18.44549620644081
H           43.20409415289779       10.93966496837125       19.47608581996582
72
 energy: -105.971094316239 gnorm: 0.034909141585 xtb: 6.7.1 (edcfbbe)
Fe          42.34360059238855        8.50708520891984       18.45051122321906
N           40.44632035857651        8.32864026920115       19.10930354318413
N           41.68747942164784        8.40883906669142       16.56198746241729
N           44.24001783304637        8.68588841264820       17.79587563227134
N           43.00944691496512        8.41800999713657       20.34011932122542
C           40.03886319046759        8.26961537025747       20.40190723990115
C           38.59843316757107        8.15676059873789       20.47830788232368
C           38.15081603786260        8.14812209638598       19.19350488792487
C           39.32344077460658        8.24328279826385       18.35269371638138
C           40.40655686947613        8.22842594061720       16.14881628419139
C           40.35129254512528        8.10518306165839       14.71537434807682
C           41.63635810555527        8.23609189061571       14.26756146097732
C           42.45369724672945        8.44789004290797       15.44360556453353
C           44.62644317712570        8.88502166657636       16.50743639177679
C           46.03238663032095        9.17442916800955       16.44374491746825
C           46.49959087657352        9.12106142137885       17.73364741836224
C           45.35449501519482        8.79859013960848       18.56038080847281
C           44.30867364975968        8.33921192141752       20.73470961879562
C           44.38664609035002        8.07918999770791       22.15616563008106
C           43.10229615264957        8.03691066358589       22.61052823873428
C           42.25735299843122        8.25217671840433       21.45721886502812
C           40.87646283555901        8.25353683503646       21.50007983436612
H           40.41388036880490        8.18863632711412       22.47412879976827
C           39.29458779896252        8.19230877574690       16.97331938062631
H           38.32715273482176        8.10512809647545       16.50172167089321
C           43.80180125994162        8.74125889877547       15.40446043817018
H           44.24541641415428        8.84863286163779       14.42503420645762
C           45.40330372951551        8.54318342180611       19.91902410757918
H           46.37589971888180        8.49538256373001       20.38331565853719
C           36.74895071705628        8.04907881119984       18.70372458729067
H           36.05741262189417        7.97588464483744       19.53966029152699
H           36.61840977480513        7.17125102962922       18.07065680052899
H           36.48198624057088        8.92868394718071       18.11770047468879
C           37.79997243350583        8.03751689937154       21.73028350791062
H           37.55163493368023        9.02109833677072       22.13235302029824
H           38.34922992395840        7.48869242016918       22.49247267170773
H           36.86960590240656        7.50602566108006       21.53880548391619
C           39.14360281681856        7.80875600879220       13.89724848162377
H           38.65466293958954        8.72967831428411       13.57515789148660
H           38.42287688001419        7.22146562665373       14.46227051590402
H           39.42429463115110        7.24611372194376       13.00847764918178
C           42.07689791336195        8.12573239783766       12.89015559017986
H           41.49255226160799        8.69044513793926       12.17057346187667
C           43.07497805624056        7.35859191205389       12.47229038485026
H           43.65179701534708        6.75676564199325       13.15609919878633
H           43.34631413212757        7.29457819018873       11.43252465458647
C           46.82246103062732        9.51901495744434       15.22927251878767
H           46.18098401109891        9.86247209432227       14.42240133339298
H           47.38548759875008        8.65326462841567       14.87465382396501
H           47.53661282937602       10.30880034540403       15.45898107849623
C           47.86475603265924        9.36211782291117       18.13339484788832
H           48.59885627767549        9.08993599646700       17.38219100400719
C           48.28788410998612        9.90656772427827       19.27049360945347
H           47.60882071849267       10.23962151659293       20.03728225156629
H           49.33716787085046       10.04306954262529       19.47281484866459
C           45.63932151944832        7.90137065781393       22.93701103408750
H           46.17769105722489        8.84482278478470       23.02103624924944
H           46.29486839657898        7.17632865917782       22.45842975971808
H           45.41122558900039        7.55270772024971       23.94186674079758
C           42.61801817367341        7.77904918638408       23.99352482677634
H           42.46652696325681        8.71527148966307       24.53160278972335
H           43.33764981349399        7.18223644513906       24.54952849123980
H           41.67473426577660        7.23962978525640       23.97174491227295
O           42.42976099596564        6.33154326574621       18.44811652291664
H           42.26191853051456        5.85121719272387       17.60710639406541
H           43.03078616104067        5.79092264573789       19.00203463257744
C           40.88191973475816       11.44779541560693       19.39160099211316
H           40.03780551144353       11.34813680482555       18.71833689590461
H           41.02941322784681       12.48811794629365       19.66233338133260
H           40.73512287086526       10.82299948172807       20.26484361352838
S           42.33936619195354       10.85614524322007       18.45964978076346
H           43.20494881444062       10.99098771420997       19.47780844862340
72
 energy: -105.971762304381 gnorm: 0.021102857025 xtb: 6.7.1 (edcfbbe)
Fe          42.34099547066398        8.49420929514530       18.45220877046095
N           40.45565509662035        8.33221138482663       19.10960183724733
N           41.69264606650984        8.40693097116523       16.57170382925849
N           44.22646204497958        8.67357492844310       17.79909281218253
N           43.00334888571330        8.40957182472630       20.33079075931115
C           40.04416305090939        8.26854098066153       20.40149791784940
C           38.60529376199609        8.15903965260535       20.47574558216301
C           38.15992577047451        8.15045155901846       19.19171415844578
C           39.33181271940555        8.24540242879881       18.35240618970013
C           40.41113214225408        8.22985771631440       16.15553486077272
C           40.35641600761188        8.10784459347994       14.72348047768896
C           41.64105592315232        8.23059543833102       14.27698962043032
C           42.45776530226858        8.43832510538772       15.45084508352532
C           44.61952586297901        8.87229440583612       16.51049452675316
C           46.02129754209370        9.16697177095384       16.45014477346431
C           46.48375252439234        9.12030087974257       17.74059968428669
C           45.34131334853281        8.79596249405856       18.56261973276089
C           44.30345127214456        8.33609948158931       20.72735267668084
C           44.38512383328055        8.08442156527630       22.14732013009575