78
 energy: -115.991923972482 gnorm: 0.239818671026 xtb: 6.7.1 (edcfbbe)
Fe           0.05800000000000        6.06400000000000      -15.74600000000000
N            0.42800000000000        7.99500000000000      -16.08100000000000
N            0.06600000000000        5.68700000000000      -17.72800000000000
N           -0.29100000000000        4.11300000000000      -15.41200000000000
N            0.01400000000000        6.43400000000000      -13.75800000000000
C            0.55000000000000        8.98500000000000      -15.12400000000000
C            0.56400000000000       10.27300000000000      -15.78800000000000
C            0.45800000000000       10.05700000000000      -17.10300000000000
C            0.36700000000000        8.62400000000000      -17.30700000000000
C            0.15200000000000        6.64200000000000      -18.72600000000000
C            0.13400000000000        5.98100000000000      -20.00800000000000
C            0.05900000000000        4.65200000000000      -19.77200000000000
C            0.00500000000000        4.45900000000000      -18.33900000000000
C           -0.30500000000000        3.09400000000000      -16.34500000000000
C           -0.59700000000000        1.83500000000000      -15.69400000000000
C           -0.76900000000000        2.11400000000000      -14.39300000000000
C           -0.56000000000000        3.53400000000000      -14.20300000000000
C           -0.29400000000000        5.51900000000000      -12.78500000000000
C           -0.17900000000000        6.16200000000000      -11.49800000000000
C            0.18300000000000        7.42500000000000      -11.71700000000000
C            0.30700000000000        7.61800000000000      -13.13900000000000
C            0.64800000000000        8.78100000000000      -13.77500000000000
H            1.02400000000000        9.60200000000000      -13.16400000000000
C            0.25000000000000        7.99900000000000      -18.52700000000000
H            0.23400000000000        8.63400000000000      -19.41200000000000
C           -0.08700000000000        3.26200000000000      -17.68200000000000
H            0.02400000000000        2.35900000000000      -18.28200000000000
C           -0.63300000000000        4.19700000000000      -13.00200000000000
H           -0.99000000000000        3.62900000000000      -12.14300000000000
C            0.41600000000000       11.11900000000000      -18.22600000000000
H            0.66900000000000       12.11500000000000      -17.80400000000000
H           -0.60400000000000       11.16200000000000      -18.66400000000000
H            1.15700000000000       10.86300000000000      -19.01300000000000
C            0.63300000000000       11.63800000000000      -15.07200000000000
H            1.67600000000000       12.01900000000000      -15.10000000000000
H            0.32000000000000       11.52200000000000      -14.01200000000000
H           -0.03000000000000       12.36600000000000      -15.58600000000000
C            0.21100000000000        6.73400000000000      -21.35400000000000
H            0.79500000000000        7.67000000000000      -21.22300000000000
H           -0.81300000000000        6.99400000000000      -21.69800000000000
H            0.71600000000000        6.09800000000000      -22.11199999999999
C           -0.01400000000000        3.46900000000000      -20.76200000000000
H            0.21000000000000        2.46100000000000      -20.38400000000000
C           -0.32900000000000        3.55600000000000      -22.05800000000000
H           -0.56600000000000        4.53000000000000      -22.51100000000000
H           -0.35500000000000        2.65500000000000      -22.68800000000000
C           -0.70200000000000        0.47200000000000      -16.42600000000000
H            0.29700000000000       -0.01400000000000      -16.45100000000000
H           -1.05100000000000        0.63200000000000      -17.46900000000000
H           -1.41100000000000       -0.19100000000000      -15.88600000000000
C           -1.08300000000000        1.17800000000000      -13.20900000000000
H           -1.53800000000000        1.62000000000000      -12.31100000000000
C           -0.85500000000000       -0.14000000000000      -13.16100000000000
H           -0.40200000000000       -0.66000000000000      -14.01800000000000
H           -1.11700000000000       -0.72000000000000      -12.26400000000000
C           -0.45600000000000        5.49300000000000      -10.14200000000000
H            0.09400000000000        4.52900000000000      -10.08500000000000
H           -1.54400000000000        5.29400000000000      -10.03700000000000
H           -0.11000000000000        6.15400000000000       -9.31900000000000
C            0.43700000000000        8.51100000000000      -10.65000000000000
H            1.45100000000000        8.37600000000000      -10.21700000000000
H           -0.31600000000000        8.42300000000000       -9.83800000000000
H            0.37600000000000        9.51700000000000      -11.11700000000000
O           -2.02700000000000        6.42800000000000      -15.82400000000000
H           -2.36200000000000        5.89000000000000      -16.54100000000000
H           -2.50500000000000        6.96700000000000      -15.30300000000000
C            5.30000000000000        5.05100000000000      -14.00900000000000
H            6.12400000000000        5.71600000000000      -14.34500000000000
H            5.62400000000000        3.99400000000000      -14.11600000000000
H            5.07000000000000        5.27200000000000      -12.94500000000000
N            4.07800000000000        5.11300000000000      -16.21200000000000
H            4.86500000000000        4.82000000000000      -16.75400000000000
C            4.09100000000000        5.29400000000000      -14.84600000000000
C            2.87200000000000        5.38700000000000      -16.67500000000000
H            2.58300000000000        5.33400000000000      -17.72400000000000
N            2.11100000000000        5.72600000000000      -15.65600000000000
C            2.84400000000000        5.67300000000000      -14.50000000000000
H            2.40600000000000        5.91100000000000      -13.53900000000000
78
 energy: -116.033473882352 gnorm: 0.093183669881 xtb: 6.7.1 (edcfbbe)
Fe           0.08143859598153        6.05813241070026      -15.74456561550764
N            0.39354785790723        8.00283883345643      -16.08278734323998
N            0.05781462374010        5.68882773167044      -17.73343152762417
N           -0.29575348484426        4.10485959750613      -15.40784896856286
N            0.00719966487623        6.42964393943754      -13.76068226896301
C            0.55443213668618        8.98611353734696      -15.14094617397234
C            0.57313817597342       10.28402487857599      -15.78561318495449
C            0.45730980146857       10.06518632621179      -17.11551878615260
C            0.35837363874803        8.62885314012767      -17.30073670649607
C            0.14741746801616        6.62876454126379      -18.72959098642655
C            0.13318389506940        5.97904575549226      -20.02179772603273
C            0.05845925840847        4.63383817415107      -19.79089360014359
C            0.01516303244712        4.46712354309373      -18.34824251251615
C           -0.29949381439142        3.08937747153238      -16.33117097009156
C           -0.59132772143782        1.82255250253829      -15.68815834185425
C           -0.77220754838314        2.09629758250796      -14.36661721313499
C           -0.57668155734420        3.52882283128978      -14.20445049399461
C           -0.30164690072601        5.52615503613325      -12.78504423988593
C           -0.19013782716830        6.15659778383789      -11.48653749065977
C            0.19339847733299        7.43511278512063      -11.70458592834791
C            0.31660341966825        7.60344742994132      -13.13534073052436
C            0.65190737805788        8.77679359463630      -13.77979214895713
H            0.99019170242789        9.60655455649290      -13.16730288651327
C            0.24801382061308        7.99544734720399      -18.52379071779101
H            0.23975087356886        8.62930144269375      -19.40314148222124
C           -0.08278302865436        3.25996039516489      -17.68321405387506
H           -0.00000621294543        2.36106042245223      -18.28328003366066
C           -0.63863307285461        4.20048673163149      -12.99908577651686
H           -0.96308632219453        3.63226929020649      -12.13550118645660
C            0.41640235269133       11.10443368322285      -18.21537968378954
H            0.66514353891479       12.09020183599488      -17.81106153445691
H           -0.58389885022741       11.15483853084677      -18.65929208156956
H            1.13993727690566       10.86240280722080      -18.99991825453319
C            0.63843709553756       11.62061304384885      -15.07764418547502
H            1.66174810255012       12.01221969390047      -15.09806494805914
H            0.32445053064429       11.52370105426699      -14.03482809808962
H           -0.01590182076548       12.34526790282936      -15.57284547979057
C            0.21429976551626        6.72459596840441      -21.33643288993827
H            0.78491472710187        7.65119748007389      -21.22082800721510
H           -0.79082738723395        6.98421009865319      -21.68997695711111
H            0.71027552770646        6.11141545747279      -22.09379637960428
C           -0.00798851755934        3.49586850597898      -20.75343170127521
H            0.21067772443467        2.50394058863521      -20.35878759035043
C           -0.32566737419395        3.56924789301131      -22.04347767033115
H           -0.57860197060461        4.51004681349026      -22.51244078888184
H           -0.35299919907013        2.68067513253996      -22.66730519585169
C           -0.69905224829210        0.49501242979218      -16.41452293345802
H            0.27965615958113        0.00079365775223      -16.44877265465868
H           -1.04594830591009        0.63636341794732      -17.44296617694543
H           -1.40074654772687       -0.16630353003256      -15.89751421250413
C           -1.08315701326159        1.18338939748369      -13.23082679983373
H           -1.52792649539386        1.63914667723754      -12.34733178520232
C           -0.85479175298549       -0.12606868524686      -13.17641438771044
H           -0.39726660894562       -0.65812521080063      -13.99988723978354
H           -1.10969575712826       -0.70280224304763      -12.29215711791745
C           -0.45412130435562        5.49280154397724      -10.15689218809018
H            0.08344369740078        4.54140213321189      -10.08873901713940
H           -1.52513536224068        5.29594298520656      -10.03762424903311
H           -0.11971111799838        6.13805212138510       -9.33940259810657
C            0.43860883283158        8.50311862453372      -10.66138823628823
H            1.43580031129084        8.37979671247333      -10.22375651482523
H           -0.30146829239430        8.42781875576471       -9.85859209933290
H            0.37520285127490        9.49941210759969      -11.10555870806270
O           -2.02130839356520        6.41530844521338      -15.84065893372511
H           -2.39357655087124        5.89126959662054      -16.54770311827060
H           -2.53792991780877        6.98012877379106      -15.29415672994756
C            5.30963152730788        5.05030662797699      -14.01216931081730
H            6.12804383271374        5.70369830559747      -14.33350126765748
H            5.63342659581643        4.00827105216149      -14.10440093275082
H            5.07816453658773        5.26370551620282      -12.96599868150142
N            4.09895045705184        5.11039393940587      -16.20601943277404
H            4.88831425957113        4.81777124247302      -16.75408587228589
C            4.10439383572519        5.28651430647760      -14.84559628116996
C            2.86965415344785        5.38676608903169      -16.66148134516554
H            2.58190581450008        5.33685846273016      -17.69754998442650
N            2.09371862800417        5.72162420267347      -15.65817793613469
C            2.84188443741397        5.66904339430086      -14.51686522299768
H            2.41104788596334        5.90722304729742      -13.56310749008324
78
 energy: -116.044302504387 gnorm: 0.021755313249 xtb: 6.7.1 (edcfbbe)
Fe           0.09646844974997        6.05540862007153      -15.74257137018234
N            0.38126841040802        8.00509039460519      -16.08319013845798
N            0.06672757397842        5.68862680141628      -17.73488559782221
N           -0.29167743832213        4.09949712283605      -15.40208655881550
N            0.01163660404170        6.42389832302767      -13.76484820618693
C            0.54959308655029        8.98223613626871      -15.15254029568120
C            0.58162606858065       10.28472929452645      -15.78476471508108
C            0.45667652043099       10.06396080957882      -17.12293422192901
C            0.34696891679928        8.62749633813540      -17.29376914457426
C            0.14635936756187        6.61954881586352      -18.72696878190414
C            0.13360361735292        5.98204555553213      -20.02394514072643
C            0.05934005036194        4.62618839694741      -19.79648960011263
C            0.02357619559945        4.47353807184387      -18.34843190058344
C           -0.29253834901352        3.09137402490172      -16.32022628984514
C           -0.58231026836853        1.82191354954901      -15.68628796181659
C           -0.77338753898796        2.08996292111784      -14.35241241819749
C           -0.58298283025790        3.52764345034175      -14.20501149815939
C           -0.30327708569989        5.53135787039290      -12.78876155676290
C           -0.19746320459998        6.15373772593854      -11.48511581107535
C            0.20320379439683        7.43891556792155      -11.70181692069067
C            0.32184322756621        7.59136813126017      -13.13685982018379
C            0.63810137477633        8.77398311568847      -13.78455766300303
H            0.93611982459112        9.61469466982931      -13.17110627987068
C            0.24184424576068        7.99120976023473      -18.51846665389123
H            0.24607505941234        8.62442169514661      -19.39423406106611
C           -0.08638598121975        3.26164448048931      -17.68206970681727
H           -0.03835043204689        2.36482723976906      -18.28369130702790
C           -0.63406449984678        4.20212418593569      -12.99588913794647
H           -0.92359228432885        3.63240884087368      -12.12416517895240
C            0.41675255216755       11.08556737334279      -18.20829218265143
H            0.66282189597235       12.06667832330370      -17.81150411448322
H           -0.57428654102291       11.13795095931902      -18.65758511105581
H            1.13142194791008       10.84898472410933      -18.99320552846951
C            0.64865695027204       11.60207411918669      -15.08455768955000
H            1.66275862331151       12.00070548572965      -15.09724924870157
H            0.33072189023968       11.51251311753877      -14.05062590088804
H           -0.00196809230826       12.32457034554767      -15.57305768407277
C            0.21870295879653        6.71566189991642      -21.31909163012207
H            0.78040514493740        7.63917563978848      -21.20601478000540
H           -0.77759382220429        6.97213276659789      -21.68156673303660
H            0.71297405165281        6.11090102969398      -22.07387440040316
C           -0.00519657368102        3.52782027973998      -20.73311838550572
H            0.22235531918678        2.55002418023776      -20.32411869949904
C           -0.32819230985222        3.58644186923773      -22.02327041488779
H           -0.59882323731499        4.50243826217452      -22.51262380699411
H           -0.34444098950437        2.70254421785169      -22.64008130088646
C           -0.69502545300487        0.51833500988970      -16.40195705211115
H            0.27262008979519        0.01601852474286      -16.44235105568079
H           -1.04156296328661        0.65826253252107      -17.42267465462536
H           -1.39701047007415       -0.13807073683743      -15.89384987933773
C           -1.07791912099822        1.19925116012145      -13.25654496056329
H           -1.52494085660102        1.66680648128552      -12.38722867962942
C           -0.84847493961636       -0.10951271952072      -13.19539551904410
H           -0.38277983552352       -0.65587544216463      -13.99369127254345
H           -1.11155592800169       -0.68378558554783      -12.32184583517363
C           -0.45678625749446        5.49267226520149      -10.17422704714879
H            0.07653081220600        4.54745059848706      -10.10330751858442
H           -1.51958591970335        5.29174467918160      -10.04507748079189
H           -0.12770382562651        6.13004367452473       -9.35837670274335
C            0.44265076531663        8.49411101710249      -10.67448376165317
H            1.43226034353278        8.38156167555054      -10.23170721474771
H           -0.29235837062222        8.42321323285499       -9.87591769676268
H            0.37568130402249        9.48667662069187      -11.10721043764730
O           -2.02962931225998        6.40716869411677      -15.85608977777044
H           -2.45877461931750        5.90218010687090      -16.54882173348413
H           -2.56792123280873        6.97214037232526      -15.30251305572715
C            5.31724323682981        5.05056161261843      -14.01233792629167
H            6.13378184041279        5.69742062705677      -14.32634770435520
H            5.64533732235245        4.01644602060994      -14.09602856533025
H            5.08454308104438        5.25939505574867      -12.97471197928859
N            4.11288694678206        5.10940945657616      -16.20392550713699
H            4.90300412633292        4.82028616789491      -16.75714221044131
C            4.11265410284293        5.28071962017408      -14.84615440715451
C            2.86752463198076        5.38245700301456      -16.65277495406452
H            2.58166903734837        5.33456167101050      -17.68146789055410
N            2.07875584265886        5.71176782828027      -15.66022854157665
C            2.83990147447046        5.66010809294821      -14.52980747685205
H            2.41891190322486        5.89743817931028      -13.57686595260800
78
 energy: -116.046759866314 gnorm: 0.018032753140 xtb: 6.7.1 (edcfbbe)
Fe           0.09719496417123        6.05552431711232      -15.74025560231221
N            0.37257169832013        8.00320629170865      -16.08106335566734
N            0.07151865094073        5.69271612834191      -17.72908971127448
N           -0.28501217990566        4.10352453166914      -15.39790211238638
N            0.01301510914122        6.42270628349121      -13.76874197621146
C            0.54118588561504        8.97918527284583      -15.15393587471213
C            0.58309776290144       10.27992161951928      -15.78545690854143
C            0.45606026101122       10.05801246082188      -17.12349338453621
C            0.34233634730294        8.62431516975680      -17.29022288359571
C            0.14785439429584        6.62190643931252      -18.71997600585244
C            0.13135062588556        5.99027207859296      -20.01524737588515
C            0.05694701214435        4.63410103076723      -19.78810982390508
C            0.02466822801515        4.48047179642713      -18.34109409373401
C           -0.28604048384949        3.09971144273596      -16.31664640619024
C           -0.57022155955297        1.83161722190968      -15.68764004518415
C           -0.76322650550977        2.09616328287469      -14.35253355566969
C           -0.57366819468663        3.53149382904688      -14.20332967609081
C           -0.29833782230748        5.53201077329292      -12.79224983653400
C           -0.19803691506890        6.15322701840821      -11.49003164388572
C            0.20360438698208        7.43845740840420      -11.70602036394659
C            0.31823376845454        7.58928424409303      -13.14038375417133
C            0.61812283639958        8.77624649672267      -13.78537527793421
H            0.87849187594413        9.62841441564060      -13.16958704891753
C            0.24160395544426        7.99212508033786      -18.51492054358659
H            0.24931797072038        8.62524086943573      -19.38979193805854
C           -0.09331371618400        3.26839588106736      -17.68021188166962
H           -0.07827904303985        2.37205152319324      -18.28557356280660
C           -0.61794642569362        4.20061027080115      -12.99217970178733
H           -0.87996974708997        3.62699921358236      -12.11364372362068
C            0.41782836480711       11.07173975833159      -18.21287407150516
H            0.66194690683950       12.05504003219946      -17.81960960454428
H           -0.57284458947774       11.11887550683154      -18.66554559232845
H            1.13343156723018       10.83112459299307      -18.99676384631138
C            0.66094810109128       11.59442993402462      -15.08703911684361
H            1.67777100027304       11.98733967139898      -15.09628641422889
H            0.33913088196264       11.50624730205043      -14.05355898595403
H            0.01517012259423       12.32016937508231      -15.57810015761928
C            0.22582698614938        6.71651188539692      -21.31010183908190
H            0.78307497425660        7.64297475140848      -21.19492939467389
H           -0.76872781169846        6.96631980390679      -21.68394058344782
H            0.72862622433556        6.10749765549841      -22.05677771324006
C            0.00281560776845        3.54102106271252      -20.72152328855534
H            0.24402532003008        2.56933998905474      -20.30655161253745
C           -0.32841061840064        3.59218282870047      -22.01089002542368
H           -0.63704604450742        4.49729241808522      -22.50315293236445
H           -0.33639663857099        2.70480919760897      -22.62110631555606
C           -0.69333283701032        0.53164535051786      -16.40000980625948
H            0.27045383039279        0.02106682157953      -16.44179946096766
H           -1.04159985503528        0.67582200796745      -17.41999435484645
H           -1.40016898266064       -0.11658925640306      -15.88720199212563
C           -1.07994966172418        1.20634986177385      -13.26709100360342
H           -1.53646370461536        1.67693663786338      -12.40454916204329
C           -0.84976061823176       -0.10328351608197      -13.20675662222820
H           -0.35412655045542       -0.64796534511007      -13.99023364545397
H           -1.12111629914829       -0.67712407030534      -12.33663022668822
C           -0.46020496490158        5.48728137036333      -10.18433484428756
H            0.07574747127446        4.54250180745660      -10.11626724743766
H           -1.52310311187743        5.28108085952416      -10.05789282251741
H           -0.13570472534557        6.12334405931896       -9.36508751642460
C            0.44652885852922        8.49237016314016      -10.68118751452339
H            1.43826116965380        8.38345185036855      -10.24043229642971
H           -0.28649346905037        8.41936378971016       -9.88019720101005
H            0.37624400348552        9.48604908732122      -11.11283996874295
O           -2.05151863963655        6.40513197001811      -15.87234834234410
H           -2.52126734165932        5.90685436741109      -16.54718738299733
H           -2.59840321188736        6.95763704308834      -15.31063485360443
C            5.32370841133379        5.05083957245370      -14.01210741922086
H            6.14017690681616        5.69960964402455      -14.32429472841276
H            5.65838566553533        4.01771007007745      -14.09247819052283
H            5.08916005607863        5.25892398314776      -12.97423531840191
N            4.11846116039237        5.10818878566966      -16.20539993266069
H            4.90901051286675        4.82520406659151      -16.76163668242895
C            4.11731850408469        5.27577574428598      -14.84687830407205
C            2.86861962016238        5.37577821485041      -16.65098173411284
H            2.58297685740989        5.32844221468704      -17.67957263422038
N            2.07589136506800        5.70027971264293      -15.65911984441984
C            2.84163645244241        5.64707102648907      -14.53126005028351
H            2.42633963222917        5.88042394835961      -13.57489933382463
78
 energy: -116.048673498805 gnorm: 0.014580962684 xtb: 6.7.1 (edcfbbe)
Fe           0.09459081124138        6.05620285603353      -15.73768765011140
N            0.36385316380996        7.99959990877579      -16.07722153676665
N            0.07808315128178        5.69972691197116      -17.71863572421197
N           -0.27799778168973        4.11303877678039      -15.39341109369791
N            0.01233013678897        6.42269453122990      -13.77432744347395
C            0.52750441580751        8.97741542333731      -15.15301555603493
C            0.58302029098001       10.27539097359003      -15.78647158659483
C            0.45776012072559       10.05114064325727      -17.12284594095108
C            0.33890448362397        8.62071602520169      -17.28581019265481
C            0.15145433404454        6.62751253775518      -18.71007835506778
C            0.12971755185869        6.00045383409269      -20.00247690650500
C            0.05196998618951        4.64601655588834      -19.77489770998503
C            0.02202095795714        4.49017679340224      -18.33014152968355
C           -0.28231425067141        3.11250923721265      -16.31374788504731
C           -0.55718605137580        1.84561006101953      -15.68941393930236
C           -0.74554410927352        2.10579462886028      -14.35387073043032
C           -0.55669325795463        3.53714918815774      -14.20034943053096
C           -0.28864015784942        5.53151169716476      -12.79579823681747
C           -0.19488807176251        6.15268262387132      -11.49579012319400
C            0.19959481362086        7.43834965058014      -11.71123461950037
C            0.30731732202686        7.59045054301647      -13.14465018048402
C            0.58354142949511        8.78328191393160      -13.78445423575301
H            0.80412981265932        9.64397127208612      -13.16785026347028
C            0.24273458266770        7.99550247475497      -18.51119844322084
H            0.25057985127474        8.62861465455658      -19.38516772852095
C           -0.10961771810565        3.27860423337023      -17.67834998669297
H           -0.12838325052397        2.38471907942394      -18.28581336186500
C           -0.58907405167258        4.19610673451269      -12.98560566392327
H           -0.82146632397692        3.61889880420321      -12.10199679636370
C            0.42233970490372       11.05480802959183      -18.22248308644884
H            0.66079071121414       12.04384172020526      -17.83809704818042
H           -0.56790574938899       11.09078846170341      -18.68047037475487
H            1.14257373955226       10.80676849843923      -19.00162151809762
C            0.67920379285807       11.58997606238161      -15.09016789838370
H            1.70361252025628       11.96557438347244      -15.09492446973229
H            0.35167161809765       11.50762403133309      -14.05665001483077
H            0.04663299370283       12.32540724230335      -15.58625549134408
C            0.23656989919045        6.71700135777427      -21.30169558584893
H            0.78817720792152        7.64804239555101      -21.18648660689738
H           -0.75454855342528        6.95818879375120      -21.69315399751779
H            0.75210914158642        6.09884438723089      -22.03453172526022
C            0.00497941402147        3.55159071551965      -20.70812317609260
H            0.29299261020591        2.58937202819418      -20.29707368468708
C           -0.35029446116636        3.59649000104643      -21.99163803008867
H           -0.67634256929139        4.49408407181234      -22.48521505151901
H           -0.32080219350190        2.70888614979157      -22.60291350426607
C           -0.69371622664912        0.54535403981352      -16.39880673654309
H            0.26501712503945        0.02413834921604      -16.44382707734932
H           -1.04545462816765        0.69205590775482      -17.41829013264181
H           -1.40537860597512       -0.09242379328977      -15.87743217944257
C           -1.07357129448015        1.21292024389719      -13.27301106484536
H           -1.56793631685797        1.67959153775355      -12.42762287263601
C           -0.83168029017570       -0.09505969836965      -13.21287505070372
H           -0.32280967802116       -0.63518050179008      -13.99065213537585
H           -1.14365107531686       -0.67675083492710      -12.35979381692445
C           -0.46220743246556        5.47814166036802      -10.19491121572548
H            0.07968226316881        4.53498209923869      -10.12976895063440
H           -1.52597164282376        5.26310825441963      -10.07934952359584
H           -0.14849204716437        6.11195185027526       -9.36845743716949
C            0.44932526921644        8.49228815884888      -10.68721215857081
H            1.44699623238661        8.38590622678299      -10.25660467070403
H           -0.27655163416071        8.41557692705983       -9.87857533389567
H            0.37322392406801        9.48760458564136      -11.11761347451050
O           -2.08649361373036        6.41480029835566      -15.90262043767564
H           -2.61131945674281        5.90549432225512      -16.53219264567130
H           -2.65188184167872        6.92582891463839      -15.31587284224029
C            5.33195942930649        5.05036318201955      -14.01185340719714