78
 energy: -116.058052099733 gnorm: 0.000038764221 xtb: 6.7.1 (edcfbbe)
Fe           0.01399222462682        6.08898114485344      -15.75284894179337
N            0.28013699865665        8.03248506199307      -16.09532485126357
N            0.06277187404451        5.72096121429235      -17.71389358311141
N           -0.33433198193671        4.13633702898930      -15.39247632705298
N           -0.07692662987532        6.45371655413855      -13.77696547466307
C            0.37442315637694        9.02389281281987      -15.17244709717352
C            0.55971697213350       10.30761909575619      -15.81521614357752
C            0.57492054227043       10.06539609680783      -17.15225428639754
C            0.40372117726134        8.63626493051400      -17.30667271620828
C            0.24257610351940        6.62974377380794      -18.70919963578811
C            0.25083226042744        5.98647851141097      -19.99854567368227
C            0.06980890371853        4.65003653675579      -19.76201846736747
C           -0.03953426981679        4.51126117482718      -18.32169725847443
C           -0.39789907643390        3.13763596060686      -16.31735980151932
C           -0.62872404899832        1.86636961169027      -15.68327608973680
C           -0.69497943724040        2.11301320983709      -14.33634838743016
C           -0.50920918674591        3.54175497533001      -14.18257776538393
C           -0.26079957581339        5.54364316302922      -12.78139152005346
C           -0.20354099260301        6.18416170395673      -11.48670001840513
C            0.02656053519242        7.50388775820171      -11.72397224834407
C            0.10369220963201        7.65198448064443      -13.15964713346424
C            0.30879269700376        8.85781249080300      -13.80200186445269
H            0.42024224562763        9.73718341004920      -13.18642736660026
C            0.39085721084805        7.99449862467550      -18.52848160022690
H            0.49837621015637        8.60579793485267      -19.41165622431389
C           -0.25962822755835        3.30664993539602      -17.68372331637071
H           -0.32977212902445        2.42329458770774      -18.29953935428859
C           -0.47224908806243        4.18886394688115      -12.96000110053902
H           -0.59768851690133        3.58713771720230      -12.07293401472643
C            0.72882719521994       11.02148799428358      -18.28522686598058
H            0.82559515676480       12.04111312553277      -17.92050336179236
H           -0.13762527377041       10.97382474207381      -18.94477554788464
H            1.61525905659763       10.78282467180857      -18.87408403948378
C            0.69425565675797       11.60108738158741      -15.08729155663760
H            1.55155015447557       11.57537451987895      -14.41407873227488
H           -0.19708927153558       11.79939763211447      -14.49181548388873
H            0.83043830197434       12.42484173834434      -15.78369309570138
C            0.48484563578860        6.67293799780105      -21.29908406391603
H            1.22822280270036        7.46179423876699      -21.19251957358358
H           -0.43590119174107        7.12602239442515      -21.66977037289404
H            0.83828824435980        5.95859468510242      -22.04003793583449
C            0.01761191323305        3.55329139450405      -20.70323251220205
H            0.42791269567842        2.61375209372271      -20.35076390554068
C           -0.48996125946337        3.61327073573708      -21.93018051166873
H           -0.95425405490776        4.50436261478319      -22.31481555765723
H           -0.48341252822074        2.75766887679578      -22.58508771753133
C           -0.82639335308743        0.57503208779418      -16.39722293533977
H            0.13241213205089        0.12386307792668      -16.65810718835333
H           -1.38934689406011        0.72526606847686      -17.31727122191704
H           -1.37261218835814       -0.12170965592148      -15.76441746843844
C           -0.92975709115949        1.19171961866654      -13.24683327950555
H           -1.48100203997156        1.59367185998629      -12.40422591414777
C           -0.52190036866979       -0.07255653918709      -13.20324433746008
H            0.06935113004886       -0.51128580306904      -13.98781647800500
H           -0.74586256168853       -0.70775502932468      -12.36226506608722
C           -0.37288562613984        5.47249532134944      -10.18818274630166
H            0.38720595261601        4.69945097948031      -10.07198720974341
H           -1.35134344528834        4.99386487384809      -10.13666795048324
H           -0.28722304999324        6.16458171597233       -9.35414115718313
C            0.17607394813088        8.62554778850623      -10.75441204653079
H            1.14932899975650        9.10304216674862      -10.86910470554021
H            0.08832266875108        8.26776294264574       -9.73147456130900
H           -0.59227796335895        9.38108347329863      -10.92065040082093
O           -2.26810281465092        6.33100272965098      -15.77598059652217
H           -2.53984453145149        5.41126572088599      -15.86705386782105
H           -2.41319957691502        6.58015694932641      -14.85669329302580
C            5.13372369967923        4.44315419307937      -14.28208919585819
H            5.82464252681715        5.19769926985655      -13.90610573066941
H            5.67857365669848        3.79301087074569      -14.96644903831977
H            4.77866681508151        3.84892436489915      -13.44602397573186
N            4.12417945946991        5.87909670812108      -16.06837445538246
H            4.99547543418716        6.11141703920446      -16.51616679987038
C            3.97905762907498        5.07876977350859      -14.96558311343489
C            2.89154333349028        6.29211016688428      -16.44026580841286
H            2.69882100645060        6.93249409438864      -17.27646094960308
N            1.97566301843688        5.80224152480759      -15.64014749838378
C            2.63675428568087        5.04582230266337      -14.71774043472455
H            2.10725441398335        4.53124905965585      -13.94328147820328
