78
 energy: -115.966689703543 gnorm: 0.274379414578 xtb: 6.7.1 (edcfbbe)
Fe          -5.57600000000000       57.15600000000000       20.92400000000000
N           -6.13300000000000       56.32700000000000       22.62500000000000
N           -6.36900000000000       58.91500000000000       21.58900000000000
N           -4.73800000000000       58.14100000000000       19.33800000000000
N           -4.44100000000000       55.53100000000000       20.48500000000000
C           -5.93800000000000       54.99500000000000       22.98500000000000
C           -6.48900000000000       54.77100000000000       24.30300000000000
C           -7.04800000000000       55.91700000000000       24.71500000000000
C           -6.83000000000000       56.90900000000000       23.67300000000000
C           -7.10100000000000       59.11400000000000       22.74500000000000
C           -7.67700000000000       60.44400000000000       22.68500000000000
C           -7.26200000000000       61.01599999999999       21.55500000000000
C           -6.44000000000000       60.06099999999999       20.83800000000000
C           -4.94200000000000       59.47300000000000       18.97300000000000
C           -4.07500000000000       59.81399999999999       17.88100000000000
C           -3.37000000000000       58.71900000000000       17.59400000000000
C           -3.79100000000000       57.66399999999999       18.49100000000000
C           -3.74600000000000       55.33500000000000       19.31700000000000
C           -3.50900000000000       53.89600000000000       19.14400000000000
C           -4.03700000000000       53.29199999999999       20.19000000000000
C           -4.65300000000000       54.27400000000000       21.04200000000000
C           -5.30900000000000       54.04300000000000       22.22400000000000
H           -5.33200000000000       53.01600000000000       22.58900000000000
C           -7.26800000000000       58.22899999999999       23.78500000000000
H           -7.74700000000000       58.56200000000000       24.70499999999999
C           -5.83800000000000       60.28900000000000       19.61400000000000
H           -6.10400000000000       61.21500000000000       19.10500000000000
C           -3.32500000000000       56.34699999999999       18.46800000000000
H           -2.57000000000000       56.09500000000000       17.72300000000000
C           -7.79000000000000       56.24600000000000       26.03400000000000
H           -7.81900000000000       55.34200000000000       26.67899999999999
H           -8.83100000000000       56.56200000000000       25.81000000000000
H           -7.25500000000000       57.05599999999999       26.57400000000000
C           -6.42800000000000       53.39400000000000       25.01500000000000
H           -5.38800000000000       53.00600000000000       24.98300000000000
H           -7.09800000000000       52.67400000000000       24.49800000000000
H           -6.73800000000000       53.50600000000000       26.07600000000000
C           -8.58900000000000       61.02700000000000       23.79200000000000
H           -8.43300000000000       60.46300000000000       24.73600000000000
H           -9.65400000000000       60.93500000000000       23.48800000000000
H           -8.33500000000000       62.09500000000000       23.96400000000000
C           -7.60200000000000       62.40100000000000       20.99400000000000
H           -6.94600000000000       62.91700000000000       20.27900000000000
C           -8.73100000000000       62.97899999999999       21.39800000000000
H           -9.39400000000000       62.47000000000000       22.11300000000000
H           -9.01500000000000       63.97300000000000       21.02199999999999
C           -3.98900000000000       61.20799999999999       17.23300000000000
H           -4.39700000000000       61.96800000000000       17.93300000000000
H           -4.58600000000000       61.22399999999999       16.29600000000000
H           -2.92900000000000       61.45400000000000       17.01100000000000
C           -2.28700000000000       58.50500000000000       16.49200000000000
H           -1.48000000000000       57.76400000000000       16.55600000000000
C           -2.42700000000000       59.32100000000000       15.43500000000000
H           -1.63900000000000       59.38400000000000       14.67000000000000
H           -3.33100000000000       59.93699999999999       15.32100000000000
C           -2.81000000000000       53.32399999999999       17.91200000000000
H           -1.73500000000000       53.60500000000000       17.93200000000000
H           -3.27400000000000       53.73800000000000       16.99100000000000
H           -2.89300000000000       52.21600000000000       17.91400000000000
C           -4.10500000000000       51.75800000000000       20.49200000000000
H           -3.33800000000000       51.22699999999999       19.88900000000000
H           -5.10900000000000       51.36699999999999       20.22300000000000
H           -3.90400000000000       51.57800000000000       21.57000000000000
O           -3.82300000000000       57.88499999999999       22.61199999999999
H           -3.98500000000000       57.36799999999999       23.40100000000000
H           -3.18400000000000       58.49399999999999       22.50500000000000
C           -9.06800000000000       55.14900000000000       16.89200000000000
H           -9.34300000000000       55.90500000000000       16.12600000000000
H           -9.97900000000000       54.58500000000000       17.18500000000000
H           -8.31500000000000       54.45600000000000       16.46000000000000
N           -9.12400000000000       56.75899999999999       18.86100000000000
H          -10.05900000000000       57.07600000000000       18.70600000000000
C           -8.49200000000000       55.83900000000000       18.09100000000000
C           -8.32600000000000       57.16000000000000       19.82500000000000
H           -8.61800000000000       57.83799999999999       20.62600000000000
N           -7.13100000000000       56.59899999999999       19.64500000000000
C           -7.21700000000000       55.80400000000000       18.54600000000000
H           -6.34800000000000       55.27300000000000       18.17700000000000
78
 energy: -116.022392405551 gnorm: 0.113629946510 xtb: 6.7.1 (edcfbbe)
Fe          -5.50844114652226       57.18556171430763       20.96016313838011
N           -6.16286332907979       56.31401336166980       22.62296362275180
N           -6.39548961832199       58.91100460859693       21.57050267404844
N           -4.71564519563939       58.14697013742648       19.35018175077416
N           -4.47934473108671       55.51618423636332       20.45979952865363
C           -5.94751948190834       55.00235110009854       22.99152026115261
C           -6.49738862114109       54.75766866135040       24.30821249509483
C           -7.05028519277501       55.92109006082175       24.72876997424348
C           -6.82997270067225       56.89715358941830       23.67460061931401
C           -7.10427986028091       59.12499668912388       22.72589357984117
C           -7.67865108014574       60.45674655267148       22.69734205763034
C           -7.27223429643651       61.03700597881164       21.53720644130954
C           -6.45756879864474       60.05998134678256       20.83632757046412
C           -4.93948691279698       59.45719254519647       18.97488958707336
C           -4.07729883411334       59.80943157976036       17.87172280388798
C           -3.35299936342460       58.69474691637420       17.57681849531710
C           -3.77706829563043       57.65846377618988       18.49992117261855
C           -3.75252842182900       55.32783877445383       19.31985086339871
C           -3.49720510195319       53.89998280837566       19.13345861374231
C           -4.04376580583537       53.27060830667376       20.19314997526606
C           -4.65648477607803       54.27588297210785       21.02986324919138
C           -5.30870154905636       54.04777577502994       22.22380613020604
H           -5.32800126877345       53.02648993030805       22.58931297777808
C           -7.25842755485296       58.21729504228535       23.76116707964444
H           -7.74381957949073       58.54258054214017       24.67505010856445
C           -5.84192987511230       60.28644322179298       19.61561428966584
H           -6.08379020504493       61.22179764039019       19.12078925536586
C           -3.32637874647728       56.34228167127934       18.47451993048650
H           -2.59065067779539       56.08822531137236       17.71902823826650
C           -7.77838868956661       56.23825395483122       26.02060880467595
H           -7.81755872530611       55.35562029447082       26.66639120480235
H           -8.80631288414999       56.55654119786647       25.81092552728202
H           -7.26458886778605       57.04091861006124       26.56191859605764
C           -6.42889439515424       53.41196653830922       25.00766937953616
H           -5.40666830417802       53.01800527831634       24.98207455283805
H           -7.08749284377711       52.69144114659322       24.50853707788353
H           -6.73542907422881       53.50540454626091       26.05402328337815
C           -8.57137932333626       61.01870872600313       23.78754065588927
H           -8.43197446447578       60.47266357498882       24.72421640406015
H           -9.62784472236389       60.93036027642384       23.50054611420126
H           -8.33767930826250       62.07460931880659       23.96192171723285
C           -7.61191602526101       62.38514398026999       21.01180395166024
H           -6.94841866232731       62.87722318016307       20.30234466595945
C           -8.73212349710849       62.98642418909987       21.39502155311233
H           -9.40625494364658       62.49957859149448       22.08315358913398
H           -9.01136481079709       63.96610358503525       21.02381590427412
C           -3.99549637049198       61.19124388161502       17.25029290208145
H           -4.39108881994991       61.95269710751941       17.92972905074723
H           -4.58060293587458       61.23079467381037       16.32244038668812
H           -2.95394041727124       61.44288438475463       17.01661591557857
C           -2.31906769880017       58.53159167181523       16.50145071084510
H           -1.51460907713174       57.80338868472610       16.59365938744122
C           -2.42179016465937       59.31533537096850       15.43031050458055
H           -1.65389002540306       59.35751996061848       14.66440043428522
H           -3.29417995487265       59.93788972715620       15.30107587707789
C           -2.80875113220061       53.32985471244955       17.92219530369652
H           -1.74687129829145       53.60103587710109       17.92848012421916
H           -3.26338277658621       53.72894023854152       17.00833334514363
H           -2.89078138088803       52.23798678254279       17.91138197051415
C           -4.10089262303808       51.77600094479708       20.48658189305165
H           -3.34962138070833       51.23985895237896       19.89857781685049
H           -5.09031445277201       51.37969613636754       20.23065452897878
H           -3.90855644414198       51.58581850063246       21.54741072583485
O           -3.84255378954710       57.85881814660988       22.58508478558018
H           -3.98430154238977       57.37310247798745       23.39559860828031
H           -3.16813801940289       58.50858275543929       22.50357069727007
C           -9.06787569254372       55.15993882433419       16.89262697361830
H           -9.34580807759541       55.89179178779181       16.12581346347711
H           -9.96416039414181       54.59381089085842       17.17497620959237
H           -8.33152913319529       54.47121843956049       16.46986659502671
N           -9.13714714058200       56.74515411483118       18.86150964526675
H          -10.07923297213057       57.06102784333137       18.70782356225775
C           -8.47624885379028       55.85223983043266       18.07409793978400
C           -8.31234041302165       57.16178517379664       19.82838099094245
H           -8.60273892751615       57.83491990729148       20.61607312790212
N           -7.11736412187943       56.60837730966527       19.68108801190479
C           -7.20494845636719       55.80969796466239       18.57489669506638
H           -6.34826495017038       55.27426508544480       18.20804235030724
78
 energy: -116.040715591822 gnorm: 0.027417222212 xtb: 6.7.1 (edcfbbe)
Fe          -5.47303784605335       57.20280501185775       20.98297819314608
N           -6.16707829600988       56.30449362285072       22.63053066599323
N           -6.40166219573154       58.90871776935479       21.55759683736283
N           -4.68210788727746       58.15717517982302       19.38062816433996
N           -4.50506673899236       55.51411832611713       20.44933373366483
C           -5.95881895499978       55.00672497255340       22.99079266302756
C           -6.50282354810529       54.74850928173038       24.30818757697483
C           -7.04873863087644       55.92315852643731       24.73527390778255
C           -6.82884228369541       56.88497248060524       23.67213994049096
C           -7.10510517221055       59.12777934591684       22.70440013146133
C           -7.68048623115549       60.45462796843479       22.70225639753492
C           -7.28861118276717       61.04154832848311       21.52086716242773
C           -6.47046802769400       60.05571513025590       20.83333752059333
C           -4.92644098784448       59.44446099595331       18.99375268477058
C           -4.08780191709373       59.80354092702848       17.87118312231275
C           -3.34800886654682       58.68141576716516       17.56817768468740
C           -3.75926930978266       57.65975041783533       18.51801410806880
C           -3.76615600152299       55.32694516490518       19.32459070392406
C           -3.49197829560416       53.91138851898523       19.13234105456069
C           -4.05129258683804       53.26373863510801       20.19447889040120
C           -4.67191417343878       54.28550519370871       21.01334206895416
C           -5.31884058305408       54.05201251991528       22.21485236283129
H           -5.32024663627631       53.03722099729132       22.58764313977596
C           -7.25629466222122       58.20146404724771       23.72989218595809
H           -7.75029948281408       58.52156599320105       24.63670602289221
C           -5.83626080785538       60.28563729390358       19.62227853836222
H           -6.05066284220323       61.23002135287110       19.13876396082451
C           -3.33320487136009       56.33954859416229       18.47921621056090
H           -2.62103009842075       56.07679992864939       17.70844924304396
C           -7.76545050371714       56.23064223848298       26.00703392972189
H           -7.80959900302974       55.35802155571090       26.65185431690784
H           -8.78681137427348       56.55118375455779       25.80408620437757
H           -7.26560104059924       57.03138310275637       26.55070604187765
C           -6.43278045692012       53.42907066788671       25.00033474443883
H           -5.41852297246842       53.03455964252800       24.97765902009951
H           -7.08396056937878       52.70537061384788       24.51115184494572
H           -6.73890572565777       53.51464205382534       26.03892014925999
C           -8.54911813124296       61.00791498208366       23.78243103908019
H           -8.41296357720759       60.47236884622108       24.71615785327640
H           -9.60289119601329       60.92037528112371       23.50930309129299
H           -8.33086315664549       62.06017883728039       23.95382800178641
C           -7.62579264921935       62.35777686621030       21.02758353938584
H           -6.94568597442761       62.82756108423026       20.32684132015848
C           -8.73757948887066       62.99525035885789       21.38670243395025
H           -9.43741461140078       62.53535704371294       22.05393348465496
H           -8.99502076552338       63.97181627976215       21.01842551313123
C           -4.00724391436267       61.17065996272974       17.26729616069850
H           -4.38813455897867       61.92737885833634       17.94670388811516
H           -4.59048841827511       61.23176782257929       16.34696447779661
H           -2.97408799406318       61.41941762496669       17.02425122679922
C           -2.35996959497022       58.55600006117569       16.52034185604328
H           -1.55462682171470       57.84015430674904       16.64896043120036
C           -2.41532160444196       59.30887088883114       15.42311720857577
H           -1.65855224296168       59.30831789019857       14.65680424854961
H           -3.25883288252200       59.94957489345031       15.26158951166567
C           -2.80701040847675       53.33932193772853       17.93733266881401
H           -1.75069787452405       53.60309715959684       17.93012732545374
H           -3.25541094840030       53.72680937225516       17.02396963099389
H           -2.88928931433917       52.25593128529977       17.92109090855964
C           -4.09758243151589       51.79963149731520       20.48018672580125
H           -3.35479498649938       51.26078434623658       19.89876633519337
H           -5.07955957880452       51.39450458148170       20.23503455314284
H           -3.90940534756757       51.60176614690427       21.53258174785315
O           -3.82876184759715       57.80640668396771       22.52030154951263
H           -3.98362300806063       57.40171898415985       23.38081773159130
H           -3.18010870991209       58.51926308790069       22.50575503252682
C           -9.06015767768575       55.17142567417646       16.89464235340768
H           -9.34619483264724       55.88791321090353       16.12680662678928
H           -9.94784119390276       54.60853335812474       17.18084458511688
H           -8.33650962678004       54.48236476843643       16.47408222490488
N           -9.14891204724402       56.73364278556879       18.86478022309914
H          -10.09616950548721       57.04314956630037       18.71478289370873
C           -8.45744651203060       55.86453291059880       18.06339722214238
C           -8.30962120385627       57.16094897429600       19.83294313599286
H           -8.59726812215885       57.83501856531013       20.61080256705408
N           -7.12006066184623       56.62196779134024       19.70263452200496
C           -7.19642807669033       55.81669114442400       18.59935641696939
H           -6.34737773664140       55.27159835722739       18.24197660484830
78
 energy: -116.044678428168 gnorm: 0.060843542220 xtb: 6.7.1 (edcfbbe)
Fe          -5.46256527884548       57.20931668903478       20.99030941676069
N           -6.17406715051501       56.29507371758324       22.62461053499522
N           -6.40201849255172       58.90513478199171       21.55123004280983
N           -4.66163308395039       58.16390352644678       19.40792654632573
N           -4.52597509252484       55.51701095481884       20.44078051069587
C           -5.96553996952147       55.00253884495790       22.98361457864596
C           -6.50815234998287       54.74408825320967       24.30042474610115
C           -7.04989774588728       55.91944432908906       24.72874016490400
C           -6.83208776539154       56.87609618898711       23.66447226933757
C           -7.10966456317004       59.11869433682001       22.69354017455461
C           -7.69015363323870       60.43747265879421       22.69945613450201
C           -7.30984304819083       61.02908123488259       21.51459351213513
C           -6.47779454285982       60.05299733448170       20.83257307541201
C           -4.91639116924766       59.44341091137302       19.01906634749558
C           -4.10298823409884       59.80202334232780       17.88260733939227
C           -3.35997652089541       58.68350964735595       17.57179903966234
C           -3.75147872852766       57.66502462727056       18.53305285662514
C           -3.77887474704601       55.33207792676087       19.32245349754967
C           -3.49647307238647       53.92285113412849       19.13125840717200
C           -4.05954830239244       53.27078994035305       20.18962632592010
C           -4.68709830763462       54.29157327322386       21.00329102838331
C           -5.32563840095960       54.04999935577624       22.20734384800314
H           -5.31528622688049       53.03762598386214       22.58346667834988
C           -7.26260490256405       58.18800109310369       23.71228112967400
H           -7.77561048045876       58.50193114618909       24.60924614613080
C           -5.82623092589425       60.29147450478673       19.63529908862699
H           -6.01635329807778       61.24404492202240       19.15912028742046
C           -3.34162206988657       56.34183560166286       18.47831330665069
H           -2.65434397744753       56.06826782382546       17.68831093560162
C           -7.75857238908823       56.22597272003904       26.00132976807410
H           -7.80073838694791       55.35203152493568       26.64479889126337
H           -8.78018793682418       56.54744111793871       25.79966972173322
H           -7.25881385318388       57.02767566621910       26.54465155897151
C           -6.43735805094995       53.43173400352993       24.99689435894605
H           -5.42130196273974       53.04116000485952       24.97717384497766
H           -7.08632451968472       52.70421878526522       24.50953794988628
H           -6.74728607577307       53.52261922012249       26.03418171879424
C           -8.53601599552334       60.99577053393759       23.78859059199128
H           -8.38113130165097       60.46786837528973       24.72470610866661
H           -9.59383289888956       60.90482355950608       23.53184792829368
H           -8.31705005457567       62.05090711563574       23.94375343238545
C           -7.63976818942326       62.34476516441809       21.03128591149679
H           -6.94097661770791       62.79751038737818       20.33747810588322
C           -8.74233861041414       63.01374414480572       21.37069459132476
H           -9.48321517711407       62.57394896019333       22.01426297694792
H           -8.96404780773949       63.99776553929480       20.99680665705814
C           -4.02429496016799       61.16410944352643       17.28480975957025
H           -4.38597276084051       61.91741306867664       17.97922063737169
H           -4.62122045264825       61.23715863507621       16.37415118421970
H           -2.99110961986405       61.39852647812764       17.02677205481012
C           -2.37580568482240       58.56514161409124       16.52900008856231
H           -1.57294219187004       57.85279324422501       16.68800721208248
C           -2.39910331412702       59.29190045225349       15.40905834306818
H           -1.63919521534570       59.23578504122359       14.64547012648388
H           -3.22316642902708       59.95307317934917       15.20637179576147
C           -2.80027687705161       53.34959591033914       17.94553688476204
H           -1.74369902731800       53.61426514917290       17.93930240479262
H           -3.24631240887508       53.73087178047700       17.02779150351891
H           -2.88229882479562       52.26611194045768       17.93580471551252
C           -4.09638362937651       51.81121026866506       20.47715913981646
H           -3.35294357235443       51.27743197099610       19.89143180487885
H           -5.07861064813743       51.40055828985339       20.23813074716631
H           -3.90307980416071       51.61532601021250       21.52963750998082
O           -3.74300114557839       57.70922025875080       22.42938517170453
H           -4.00221998281188       57.46223647209479       23.36529425966775
H           -3.20936713458345       58.55334511461878       22.49914114826451
C           -9.04659968433154       55.18180694121824       16.90232146189995
H           -9.33905078354217       55.89495855558416       16.13272688333550
H           -9.93339238466531       54.62106116274793       17.19500570080593
H           -8.32689121496850       54.49089254750547       16.47756585665339
N           -9.15257930018075       56.73145946293598       18.87245716965088
H          -10.10428855619506       57.02784253338448       18.72358909889868
C           -8.44338234942828       55.87258767012189       18.07124764824248
C           -8.31731619408112       57.16490886307822       19.84427573896984
H           -8.60807444147333       57.84421434902993       20.61669359854719
N           -7.12801974915235       56.63348710942720       19.72259149557314
C           -7.18981870852451       55.82655500092295       18.62163199061338
H           -6.33971104044187       55.27290057336731       18.27994477828235
78
 energy: -116.047406496795 gnorm: 0.032749032858 xtb: 6.7.1 (edcfbbe)
Fe          -5.45483452768388       57.21449552870152       20.99484384312740
N           -6.17811452352458       56.28678347974555       22.61695608464179
N           -6.39857053674100       58.90179933973343       21.54545480000538
N           -4.64177950985009       58.16950602922454       19.43787432819047
N           -4.54937365910361       55.52284407857287       20.43172142539376
C           -5.97131321991681       54.99731559620624       22.97448910478013
C           -6.51325714176343       54.74123709737544       24.29041243607548
C           -7.05109251892941       55.91492327916194       24.71900012671558
C           -6.83610515255761       56.86764831577293       23.65509612916772
C           -7.11616134054694       59.10643651817453       22.68238634743075
C           -7.70379565515829       60.41496646041579       22.69298699699447
C           -7.33547864104658       61.01136133428785       21.50857251350321
C           -6.48624288753737       60.05028298011839       20.83037423419606
C           -4.90624978603505       59.44348028288871       19.04880850460453
C           -4.12071361014448       59.80070584295487       17.89884987975447
C           -3.37602623179869       58.68959089107008       17.58010225739659
C           -3.74450493537566       57.67159949714333       18.54945977072822
C           -3.79280362602529       55.34004464164019       19.31955479569481
C           -3.50123462841436       53.93690509604681       19.13211361673117
C           -4.06681284372830       53.28304943157820       20.18447218419516
C           -4.70432332387542       54.29923788022734       20.99345552555837
C           -5.33284504314918       54.04740764468506       22.19906175078386
H           -5.30936979661815       53.03724074525061       22.57855532570102
C           -7.27354129898690       58.17344021976843       23.69373653834208
H           -7.80986545933112       58.48029705762407       24.57872529868113
C           -5.81478557988298       60.29898987093101       19.64988750386958
H           -5.97870761070604       61.25913331117347       19.18031579129732
C           -3.35154077751521       56.34555914190970       18.47626271622508
H           -2.69026142797735       56.06031745496310       17.66699906407026
C           -7.75305449338919       56.22149443047053       25.99568638031957
H           -7.79159465034775       55.34416672127232       26.63755127321006
H           -8.77617590429973       56.54332191536895       25.79448518896466
H           -7.25105065715353       57.02464007988690       26.53819663008515
C           -6.44202866167257       53.43296573689668       24.99369819264199
H           -5.42223036089887       53.04795256282120       24.97798509447116
H           -7.08882766592051       52.70091039467176       24.50674833160884
H           -6.75736029516123       53.53187144107624       26.03049970882945
C           -8.52688139221834       60.98304107140342       23.79314859452472
H           -8.34702550923274       60.46491985138164       24.73375087901653
H           -9.59008047259928       60.88695262937851       23.55601239698584
H           -8.30503681306268       62.04262092316487       23.92732206223918
C           -7.65908870808917       62.33100469567444       21.03195855319513
H           -6.93908116275995       62.76801849130143       20.34792252764099
C           -8.75178571258146       63.03032531478672       21.34992242946535
H           -9.53295307237024       62.61646775309275       21.97535608363759
H           -8.93159092323176       64.02459203091853       20.97003856919890
C           -4.04346389089385       61.15795278373029       17.30241612650305
H           -4.38292097528481       61.90937924492488       18.01388672046581
H           -4.65766677240769       61.24102470550574       16.40285344065900
H           -3.00949625452473       61.37575157637810       17.02661947664255
C           -2.39128992067465       58.57201853263633       16.53644843219450
H           -1.59066223533395       57.86428776556212       16.72767514466078
C           -2.38392314640385       59.27089523745632       15.39485496692953
H           -1.61451741719927       59.15867645554361       14.64124589884938
H           -3.18460698770053       59.95819170390102       15.14811128850546
C           -2.78978204662978       53.36216884062541       17.95531171801634
H           -1.73213286058435       53.62985337645802       17.95314245305649
H           -3.23319220741140       53.73679851536078       17.03133809606019
H           -2.87039499661793       52.27701919660684       17.95441013436489
C           -4.09302318510306       51.82349484178741       20.47557192580954
H           -3.34750918354971       51.29629760302122       19.88334445506705
H           -5.07661192092534       51.40694433488353       20.24303055770724
H           -3.89178003925183       51.63184600121981       21.52939201974888
O           -3.79967844151428       57.78391598643542       22.41959955349057
H           -3.94020371997826       57.42866265558624       23.28522727699212
H           -3.17547566898023       58.49999954170086       22.45283105574612
C           -9.02791106493278       55.19144678721997       16.91212441632759