87
 energy: -124.484698629486 gnorm: 0.278310099870 xtb: 6.7.1 (edcfbbe)
Fe          39.33700000000000       59.57400000000000       17.28200000000000
N           40.67000000000000       61.03100000000000       17.56100000000000
N           37.87700000000000       60.79699999999999       17.57900000000000
N           37.97700000000000       58.02799999999999       16.97100000000000
N           40.90600000000000       58.23099999999999       16.97600000000000
C           42.01199999999999       60.95100000000000       17.38800000000000
C           42.57200000000000       62.23999999999999       17.62600000000000
C           41.57299999999999       63.07600000000000       18.00200000000000
C           40.37300000000000       62.31799999999999       17.98999999999999
C           37.96000000000000       62.07200000000000       18.01300000000000
C           36.62600000000000       62.66900000000000       18.10000000000000
C           35.77100000000000       61.73300000000000       17.71600000000000
C           36.57200000000000       60.56000000000000       17.38500000000000
C           36.63700000000000       58.19000000000000       16.90100000000000
C           36.03700000000000       56.92999999999999       16.72400000000000
C           37.07400000000000       55.99700000000000       16.74200000000000
C           38.27300000000000       56.71200000000000       16.89700000000000
C           40.73800000000000       56.91599999999999       16.88200000000000
C           42.08200000000000       56.34000000000000       16.66600000000000
C           42.96300000000000       57.38199999999999       16.68300000000000
C           42.18399999999999       58.56099999999999       16.87800000000000
C           42.72800000000000       59.83800000000000       16.97500000000000
H           43.77700000000000       59.97099999999999       16.71100000000000
C           39.11000000000000       62.79600000000000       18.28100000000000
H           39.01500000000000       63.78000000000000       18.73900000000000
C           35.96200000000000       59.36400000000000       16.98700000000000
H           34.90200000000000       59.37700000000000       16.73600000000000
C           39.55299999999999       56.16500000000000       16.90400000000000
H           39.64100000000000       55.07899999999999       16.92800000000000
C           44.04200000000000       62.58200000000000       17.50000000000000
H           44.14700000000000       62.25100000000000       16.44500000000000
H           44.40700000000000       61.77400000000000       18.16900000000000
H           44.64699999999999       63.50200000000000       17.65100000000000
C           41.72800000000000       64.55900000000000       18.34200000000000
H           41.25300000000000       64.48800000000000       19.34400000000000
H           40.97600000000000       64.92600000000000       17.61200000000000
H           42.58100000000000       65.26800000000000       18.39800000000000
C           44.46300000000000       57.36699999999999       16.51500000000000
H           44.58700000000000       56.63199999999999       17.33900000000000
H           45.35900000000000       58.02300000000000       16.48000000000000
H           44.35700000000000       56.81699999999999       15.55500000000000
C           42.29699999999999       54.88600000000000       16.71800000000000
H           42.20500000000000       54.35699999999999       15.76900000000000
C           43.32400000000000       54.38200000000000       17.44400000000000
H           43.56399999999999       54.79699999999999       18.43400000000000
H           43.93000000000000       53.55200000000000       17.05200000000000
C           36.98700000000000       54.47900000000000       16.60400000000000
H           37.51100000000000       54.23700000000000       17.55300000000000
H           37.70900000000000       54.39700000000000       15.76300000000000
H           36.15299999999999       53.76000000000000       16.46000000000000
C           34.56100000000000       56.76000000000000       16.73900000000000
H           34.14500000000000       57.72100000000000       16.44600000000000
C           33.87800000000000       55.69900000000000       17.18300000000000
H           34.40200000000000       54.77100000000000       17.45300000000000
H           32.78300000000000       55.74200000000000       17.28300000000000
C           34.26000000000000       61.88300000000000       17.68000000000000
H           34.17100000000000       62.20900000000000       18.73800000000000
H           33.35200000000000       61.30500000000000       17.40400000000000
H           34.34999999999999       62.78100000000000       17.03200000000000
C           36.23299999999999       64.06600000000000       18.55900000000000
H           35.50400000000000       63.66200000000000       19.29400000000000
H           35.69400000000000       64.32800000000000       17.62400000000000
H           36.71300000000000       64.97199999999999       18.98800000000000
C           39.56000000000000       59.11200000000000       11.73200000000000
H           40.36899999999999       59.68699999999999       11.23200000000000
H           38.60800000000000       59.27900000000000       11.18400000000000
H           39.82200000000000       58.03300000000000       11.71600000000000
N           39.10700000000000       60.87300000000000       13.45600000000000
H           38.94400000000000       61.60099999999999       12.79000000000000
C           39.41900000000000       59.57300000000000       13.13400000000000
C           39.06000000000000       60.99400000000000       14.77900000000000
H           38.84100000000000       61.92300000000000       15.30500000000000
N           39.32100000000000       59.81300000000000       15.32300000000000
C           39.55900000000000       58.91200000000000       14.31300000000000
H           39.80700000000000       57.88000000000000       14.52800000000000
C           37.00500000000000       59.80700000000000       20.73300000000000
H           36.12100000000000       59.30300000000000       21.17899999999999
H           36.66100000000000       60.45199999999999       19.89600000000000
H           37.48700000000000       60.43300000000000       21.51400000000000
C           38.01300000000000       58.74900000000000       20.20600000000000
H           37.49100000000000       58.14300000000000       19.43700000000000
H           38.27700000000000       58.08599999999999       21.05500000000000
S           39.55000000000000       59.40299999999999       19.48300000000000
C           40.67999999999999       58.13000000000000       20.01800000000000
H           40.38600000000000       57.13600000000000       19.61900000000000
H           40.68800000000000       58.06600000000000       21.12700000000000
H           41.70700000000000       58.35399999999999       19.66000000000000
87
 energy: -124.597604334351 gnorm: 0.153895329648 xtb: 6.7.1 (edcfbbe)
Fe          39.34759642346127       59.56287869171513       17.29050380672214
N           40.66483104334395       61.04045233585894       17.55523476576831
N           37.88072998800433       60.79843591943121       17.56882853893508
N           37.99123087509106       58.03919128422756       16.98899928268244
N           40.87011810720833       58.25276151706548       16.98491617619231
C           42.00745106394364       60.96847164605266       17.37142245365714
C           42.58742090137559       62.25852455699094       17.62795190769434
C           41.59495810529517       63.08614813576321       18.00636913288290
C           40.38470342643197       62.31769283712312       17.98373998363606
C           37.96829736087656       62.07600444510997       18.01398893731398
C           36.64999453768075       62.66588402595355       18.10890910208388
C           35.77723818675734       61.71327234585985       17.70933558767878
C           36.56814573013308       60.55498712490188       17.37450508676162
C           36.64760803879369       58.18487434251099       16.88633443052706
C           36.02418039684404       56.90873406647350       16.72742743597655
C           37.04518867961062       55.98728072510262       16.74449220031237
C           38.26879713018383       56.71504250918114       16.89475899853873
C           40.73381823992760       56.92081309230987       16.88191240264370
C           42.07044627886641       56.34573513575116       16.70320519886221
C           42.94785638140098       57.39796422466419       16.69426653616298
C           42.16545670098346       58.57892852059335       16.87085287779393
C           42.71600494952489       59.84819212503983       16.96933865704868
H           43.76787854210074       59.96460539363776       16.72733452208238
C           39.11956423004074       62.79079216764693       18.27982862838887
H           39.01798339070492       63.77566232240200       18.72281141888011
C           35.96917028969231       59.37251109735550       16.97936148680856
H           34.91016190078115       59.38880323185075       16.75376472655540
C           39.55575888731801       56.17336368914957       16.90263106076157
H           39.64746279142891       55.09138135671883       16.91650298008366
C           44.05332717807811       62.53835209828604       17.48444522375614
H           44.20270444852380       62.24558610804715       16.43869433016288
H           44.46042723302791       61.77286106248875       18.15488659865872
H           44.57962651099170       63.48965530389266       17.66048977295216
C           41.67808035726753       64.55380823722008       18.35307764400303
H           41.23715551342725       64.53879775589465       19.35604132315448
H           40.96568172496784       64.97186132350627       17.63195488025146
H           42.57572314003790       65.19403959551444       18.37852442855522
C           44.44541096747525       57.30956126620803       16.51134600759560
H           44.64813966132650       56.60096002328222       17.32277912605202
H           45.27218856676930       58.04262047739044       16.48877814033345
H           44.42177245438234       56.78330274969601       15.54845128054643
C           42.36974904478688       54.90983367759677       16.67780968811369
H           42.18160730558338       54.35793867316744       15.75598016995449
C           43.33582803003171       54.38140023516867       17.44275206060373
H           43.57536907412339       54.79760626449401       18.41775978185486
H           43.90373361049434       53.52520861993013       17.09119561915976
C           37.02784788207016       54.48407646014128       16.60989970279328
H           37.52283374368929       54.19124786011566       17.54461194039423
H           37.71706747145598       54.34865415210805       15.76671275169176
H           36.15588759270057       53.82937667609566       16.46182805041897
C           34.56961731811513       56.75655528277938       16.74400834665234
H           34.11886117014207       57.69788502215536       16.44815353960512
C           33.88362995878001       55.70386046693984       17.17736112251903
H           34.39012830537771       54.78643129244633       17.45709934786591
H           32.80034214170618       55.73666560780296       17.27231071494191
C           34.28050435311476       61.92308433826094       17.68915199162830
H           34.12296661144996       62.23191725651618       18.73252086457912
H           33.43158464376222       61.28141511560922       17.40082393291132
H           34.28413061929810       62.80951873862562       17.04035574505404
C           36.20007577710663       64.04074759106480       18.55137622967673
H           35.46952027378886       63.71713787381633       19.30566418284339
H           35.66776745992944       64.36743831432462       17.64641450217634
H           36.74823657303299       64.90381968454237       18.96222216267547
C           39.56101937156433       59.11344065881677       11.72922883545349
H           40.35959713710275       59.67753973979877       11.22902852005105
H           38.62193375700478       59.27263923231772       11.18287901105531
H           39.81621007944224       58.04871977652612       11.71319016779421
N           39.10785408297490       60.87250958247494       13.44516851065677
H           38.94383228321411       61.60462652959173       12.77826493740000
C           39.41935950296434       59.57476093632749       13.13135073175813
C           39.06086516367176       60.98688844555328       14.78097780928621
H           38.84427149251891       61.90580660411084       15.30278870193437
N           39.32197379697472       59.82163501565674       15.33576518738199
C           39.55329874827155       58.92702434567292       14.32337460578715
H           39.79977288941178       57.89956796104691       14.53193719517194
C           37.01398791498944       59.80560824572562       20.73083868305684
H           36.13828386301503       59.30918432744811       21.16988944164932
H           36.66954858699874       60.44405952326304       19.91103066905439
H           37.48287353435958       60.42804960808881       21.50168846766798
C           37.99268467882446       58.73769139191920       20.21837190670687
H           37.49614859811402       58.14227560019452       19.44203395210252
H           38.27642899719275       58.08452000326013       21.05184582368710
S           39.53625731629663       59.41106634393221       19.51233106335370
C           40.67868826949044       58.11774847293909       20.02387921164812
H           40.38734164415960       57.14172798405549       19.61861547052814
H           40.69161524641741       58.06699432107320       21.11959709574218
H           41.68657375040497       58.35830127863628       19.66291447350104
87
 energy: -124.661460163712 gnorm: 0.065170777911 xtb: 6.7.1 (edcfbbe)
Fe          39.35739449619268       59.55060733684272       17.28743519615595
N           40.66092121670892       61.04860278285101       17.54737316853221
N           37.88059529370037       60.80494632086949       17.56096799276562
N           38.00492770364036       58.04842323604552       17.00326022913734
N           40.83915164696436       58.27218679686911       16.99396414105495
C           42.00298771781106       60.98423974908767       17.35386889245698
C           42.60368575400593       62.27583232663581       17.62549317186921
C           41.61277463330747       63.09837316868929       18.01096203575899
C           40.39407255272693       62.31471791029750       17.97495236181878
C           37.96774954036129       62.08539122635690       18.01547774987507
C           36.66213234805694       62.66846548504405       18.11896642680896
C           35.77695496323279       61.70646566377375       17.70326306816565
C           36.55932485862834       60.55847557239757       17.36620144362339
C           36.66065131428642       58.18058748386024       16.87677326581682
C           36.02077204974498       56.89037424377236       16.73094112838383
C           37.03138856466558       55.97538349725478       16.74726595079946
C           38.27000763683771       56.71848966261766       16.89579208742152
C           40.73392841085403       56.92291400643791       16.88908809190401
C           42.05733560130306       56.34948464188557       16.73798797017480
C           42.93690010627541       57.40783059897013       16.70145760204185
C           42.15188962975668       58.59071093490369       16.86646492227390
C           42.70445600643726       59.85712534603535       16.96611130029903
H           43.75919384205930       59.95777958052431       16.74682077453101
C           39.12940626205742       62.78704631909193       18.27548482702948
H           39.02381429111671       63.77384668188782       18.70402954923584
C           35.97726989942200       59.37502331574202       16.97442698678504
H           34.91713816072646       59.39087845743592       16.77294221703363
C           39.55783758086540       56.18208078683846       16.90613653125987
H           39.65321903718428       55.10319270547181       16.90149186303481
C           44.06448252592129       62.49652447764016       17.46878994696823
H           44.26333172484677       62.23785135495564       16.43142376332560
H           44.51775809489176       61.76968229908318       18.13902476906133
H           44.50521593049388       63.48234680222593       17.67139695419871
C           41.63003581260624       64.54734968569019       18.36482515150801
H           41.21765768812845       64.59048294658774       19.36939525477999
H           40.95213363549772       65.01625787244622       17.65347309150263
H           42.57537125660861       65.11234180363772       18.35833605565703
C           44.42161463673750       57.25284899048822       16.50777006279271
H           44.70210757402776       56.57003703792614       17.30578004608689
H           45.16591177252712       58.07323524593680       16.50205801795874
H           44.47895614030175       56.75011977234269       15.54242940584424
C           42.43283651079549       54.93564446799949       16.64364689241316
H           42.16322973237946       54.37960565393978       15.74331223082496
C           43.33999175575241       54.38035481087957       17.44120601876378
H           43.59696481227851       54.80869101922555       18.39659199348671
H           43.86739845133743       53.49039660357628       17.13166908560090
C           37.06895470448057       54.48941225139626       16.61655534332530
H           37.53791787126986       54.14415747002027       17.53751785597373
H           37.72924645510999       54.30256053648262       15.77071299025184
H           36.15072893286622       53.90775064794931       16.46375372049631
C           34.58271885999317       56.75699230891394       16.74574197353448
H           34.08913722441400       57.67708176845562       16.45160077267807
C           33.88879393686824       55.70716833125593       17.17087948283713
H           34.37966028420096       54.79630389266976       17.46635053537878
H           32.81345229383898       55.73078735168627       17.25665154355237
C           34.30133245338902       61.96358790724332       17.69801611887532
H           34.07926538944944       62.25459020047254       18.72760994218939
H           33.52501119608903       61.24344293129490       17.39187754497926
H           34.22241159227277       62.83718047046776       17.04799783413082
C           36.16851387294442       64.01671319876677       18.54497856130114
H           35.43734320786973       63.76866838723259       19.31691354927503
H           35.64478909779766       64.40273222623820       17.66651329843300
H           36.80151038329821       64.82666236850277       18.93719467617266
C           39.56192846563383       59.11304365691590       11.72700130687967
H           40.35339608754499       59.67097856027196       11.22675758140911
H           38.63083704021688       59.26772975004150       11.18191375158539
H           39.81244056637386       58.05723166305544       11.71183273172916
N           39.10856233844459       60.87446449493699       13.43498291401044
H           38.94338082096469       61.60965601419900       12.76908397933481
C           39.41979406989329       59.57636004196468       13.12965347848655
C           39.06191134022167       60.98371952091287       14.77994942415862
H           38.84623803982303       61.89455885758851       15.30051050229215
N           39.32157812057034       59.83139512604573       15.34183962251461
C           39.54903550007012       58.94089884582807       14.33139654914497
H           39.79284786768427       57.91591049860045       14.53323014354551
C           37.01845732715895       59.80002373794467       20.73100473487205
H           36.14521478501150       59.31441421079675       21.16705007481717
H           36.68130705268847       60.43559373590728       19.91879628069166
H           37.48578342315591       60.42095320944699       21.49149495310223
C           37.97578706729171       58.72769323344248       20.23058645216621
H           37.49934106930724       58.14094087481691       19.44731241544956
H           38.27232968741824       58.08077142160229       21.05330407874619
S           39.52695345729023       59.41800894559054       19.53463132535479
C           40.67968548515378       58.10505118877389       20.03332900204667
H           40.38349232091269       57.14735749167270       19.61697453455758
H           40.69538633522793       58.06392088970241       21.11918923166981
H           41.66864480172698       58.36528509782126       19.66277950122879
87
 energy: -124.688477183502 gnorm: 0.044879883547 xtb: 6.7.1 (edcfbbe)
Fe          39.35892812162127       59.54654070816925       17.28459724287192
N           40.65856451863399       61.05222498004854       17.53018790066199
N           37.87614039606966       60.81684992055459       17.55319175585737
N           38.01436437424794       58.05450717252585       17.00976260569634
N           40.82713943831332       58.27991084568536       16.99901586218231
C           41.99868217534287       60.99068969120429       17.33430354185002
C           42.61056652574929       62.27918143005547       17.61433879469083
C           41.61537431854363       63.10098028394699       18.01031686767565
C           40.39531704897944       62.31059896659412       17.96227828511214
C           37.96267152115994       62.09720103040083       18.01257707639452
C           36.65851535333247       62.67586954243298       18.12454663344290
C           35.77194790788312       61.71666129635017       17.69937891991950
C           36.55178454697752       60.56952201824683       17.35861907654601
C           36.67145347857370       58.18134859790582       16.87625956234790
C           36.02919758914602       56.88338021878124       16.73596758006475
C           37.04370548065436       55.96955138128337       16.75386840493834
C           38.27893677915212       56.72430760472414       16.90218660725859
C           40.73582041408665       56.92362665603070       16.90028916388713
C           42.04993754743513       56.35037358025968       16.75667898389657
C           42.93104323467198       57.40493470640089       16.70871352980284
C           42.14645479181800       58.59191220021564       16.86623689518394
C           42.69647431138092       59.86007327692406       16.96176238926772
H           43.75624655452364       59.95033026489327       16.77019649125739
C           39.13511402057213       62.78779113317338       18.26550347179283
H           39.03350046327078       63.77939201218044       18.68079842701934
C           35.98402456311668       59.37434176507504       16.97272439875655
H           34.91994464776093       59.38508286634758       16.79494573021480
C           39.56012400560411       56.18765121364808       16.91123873930852
H           39.65886257270439       55.11030091394095       16.88284780544624
C           44.07214783181846       62.47551014074315       17.45807961457263
H           44.32783561495287       62.23486636638322       16.42532077130966
H           44.57420594587306       61.77118688105810       18.12217312003239
H           44.44237213665549       63.48421056174393       17.68153415391336
C           41.60316674641522       64.54145145522662       18.37364893013528
H           41.20127337202373       64.63918113300626       19.38186101398146
H           40.94082974618215       65.05879170084594       17.67731347210630
H           42.58083367258806       65.04251923291199       18.34468406076464
C           44.40111922648372       57.22465888506084       16.50604260383800
H           44.75384967591219       56.54883019568366       17.28670237928702
H           45.06603668609684       58.10903568803361       16.51288986727687
H           44.52816278578786       56.72504122157180       15.54164439993644
C           42.46303501047719       54.95354248534363       16.62149112692162
H           42.15357893351773       54.41218741165072       15.72964857457453
C           43.33815734847602       54.37732930577212       17.43603475771932
H           43.62595570937421       54.82807225563182       18.37293188710120
H           43.81178090904348       53.43336838755439       17.17776207592238
C           37.09564095167632       54.49091873330767       16.62140675932323
H           37.55085774782494       54.09243373603832       17.53072169281270
H           37.74292384086752       54.25545094775577       15.77512410498405
H           36.13765867556268       53.97857472167429       16.46404077059508
C           34.59235100628806       56.75259466703100       16.74579458398093
H           34.06540435110985       57.65354799287338       16.44892084119428
C           33.89400540189123       55.70302738143808       17.16691899613586
H           34.37631725166465       54.79597939532093       17.48573451366517
H           32.81863684454196       55.72181801254244       17.23010680683623
C           34.30958935914768       61.98345912274932       17.69820580011852
H           34.03032969415521       62.26897427374197       18.71753560163580
H           33.60897090280546       61.19459131452896       17.37514980441662
H           34.15637480906474       62.85687396818582       17.05409178610086
C           36.15779595932693       64.00996866442053       18.54625231334555
H           35.41647417831658       63.82833530301502       19.33187928871793
H           35.63004013704886       64.44492626131171       17.69113781979969
H           36.86954017959437       64.76186216746005       18.92100776787613
C           39.56206808963498       59.11246529240096       11.72725370917262
H           40.35230673413349       59.66680442407615       11.22242150795819
H           38.63312133459476       59.26360651315991       11.17889984849214
H           39.81081150189004       58.05704990434251       11.71322765375291
N           39.10887432366775       60.88011999495968       13.42876681151392
H           38.94342575344815       61.61525730067849       12.76225954607494
C           39.41945225097332       59.57995260858544       13.12965723632177
C           39.06169022353126       60.98971539889224       14.77617970656017
H           38.84485809428482       61.89759449376034       15.29800185413192
N           39.32029986943470       59.84151244961044       15.34372022897647
C           39.54573896556601       58.95114083520806       14.33550706213628
H           39.78569085810366       57.92678559541139       14.53570741068071
C           37.02007657403211       59.79335145120989       20.73480121163592
H           36.14173908939394       59.32045499262434       21.17126491599911
H           36.69385006309951       60.42905416241796       19.91866413403935
H           37.49490496456018       60.41523193702390       21.48925882255455
C           37.96485930415893       58.71279643572553       20.24272329795179
H           37.49866692296276       58.13055421062196       19.45149907644075
H           38.26530486893861       58.06628621829837       21.06321167517683
S           39.51687743989757       59.42004622325214       19.55469402826628
C           40.67626172293010       58.09817231703818       20.04379962423199
H           40.37463007706302       57.14906065218678       19.61509219059620
H           40.70059201658602       58.05447446555802       21.12763724620041
H           41.65380961322261       58.37525587334034       19.66062639685808
87
 energy: -124.699397902020 gnorm: 0.037023325910 xtb: 6.7.1 (edcfbbe)
Fe          39.35618469614207       59.55061621722844       17.28157464250577
N           40.65614084390571       61.05283124136643       17.51013431570268
N           37.86713657386269       60.83169079479170       17.54449810443412
N           38.02243064424740       58.06055845482447       17.01921372731026
N           40.82918672196318       58.28042320924941       17.00530050998178
C           41.99523468598466       60.99302034755569       17.31485358646082
C           42.61219384776221       62.27742984591158       17.59816133360205
C           41.61186755005528       63.09902726895888       18.00236303683273
C           40.39251300749994       62.30880356740506       17.94270683002797
C           37.95536610729751       62.11182498011079       18.00353928696525
C           36.64788442514838       62.68769783689099       18.12431096430646
C           35.76272506228018       61.73328410017662       17.69515109278589
C           36.54258763369212       60.58176096394895       17.35333997482531
C           36.67980972892514       58.18324517503407       16.88630265826444
C           36.04333087939385       56.87932501725021       16.74760937743506
C           37.06520365160961       55.96822969749115       16.76612178728804
C           38.29064223794597       56.73159819220161       16.91165599873898
C           40.74074592210257       56.92314110389098       16.91002678379786
C           42.05093403712787       56.34700928863371       16.76879711600964
C           42.93325875281821       57.39604689226780       16.71664101278183
C           42.14965898383716       58.58808881235377       16.87132252951459
C           42.69442852099277       59.85882451134259       16.96041511152916
H           43.75863379425081       59.94436368736741       16.79606717177004
C           39.13611842021626       62.79411775932466       18.24558787319816
H           39.04520526966745       63.79157260532637       18.64838887372066
C           35.98729982912548       59.37331316657410       16.97992227318405
H           34.91980090303738       59.37364373963801       16.82279625074375
C           39.56538633871040       56.19051089731522       16.91359396057817
H           39.66526025667941       55.11461048271262       16.86291456340242
C           44.07655738413900       62.47547355683921       17.45121503339810
H           44.37672857315795       62.24764900128343       16.42412774920417