87
 energy: -124.720436487379 gnorm: 0.000027316523 xtb: 6.7.1 (edcfbbe)
Fe          -8.97581196852059      -11.71655932498986       -6.54844519501513
N           -9.57157868248996      -11.23757766801548       -4.69760745492055
N           -7.14117498656135      -11.02222133827978       -6.12762390867006
N           -8.34367665822936      -12.26429382911525       -8.37075396111691
N          -10.80397779432850      -12.41219168717515       -6.96309299548999
C          -10.81562481188441      -11.40265785757670       -4.17454266351493
C          -10.85293865471680      -10.96382272153446       -2.79655329827746
C           -9.59686353355165      -10.53542441753902       -2.49928331869807
C           -8.81283019431424      -10.71269690127610       -3.70111088010138
C           -6.71361275090766      -10.49814120030237       -4.94862780353294
C           -5.32413100784373      -10.10670984105241       -5.03612323704145
C           -4.91689379153517      -10.42370817658988       -6.29421635568535
C           -6.06248348936000      -11.00923495262011       -6.95505801999873
C           -7.09543370443187      -12.12072828265147       -8.88321220044151
C           -7.03036422866336      -12.65025280484763      -10.23115860786074
C           -8.28312744024357      -13.13143801584113      -10.50660849014919
C           -9.08096216327355      -12.87776262393281       -9.33441156669438
C          -11.21543609181074      -12.97435122496682       -8.12629324009743
C          -12.62690852637704      -13.30490636157987       -8.06461255078322
C          -13.04636833279629      -12.93369869978103       -6.81552246858125
C          -11.89314072588610      -12.38289768023644       -6.14988427843158
C          -11.90794438398212      -11.91365731179478       -4.84777161935254
H          -12.84458784795333      -11.95360967894233       -4.31277931528692
C           -7.48055415298272      -10.35939878044214       -3.80723464279233
H           -7.00416223455676       -9.94009507525675       -2.93435514476128
C           -6.03048917768577      -11.51445526985044       -8.24168842002286
H           -5.09842280672081      -11.43849101406023       -8.78057804029759
C          -10.42350060668440      -13.19594167736980       -9.23454304805121
H          -10.88973353704122      -13.64462240407356      -10.09817662499965
C          -12.06875491606425      -10.99905481795187       -1.93515337081730
H          -12.43989503155330      -12.01940317070377       -1.83324240096738
H          -12.86380693465117      -10.39282420807367       -2.37015391205143
H          -11.85016984274872      -10.61413594973723       -0.94211824171123
C           -9.06658705592807       -9.97654031745291       -1.22375853922734
H           -8.71127978860325       -8.95618432121041       -1.37106149059448
H           -8.23148878926026      -10.57563018689142       -0.86007275917315
H           -9.83753057611057       -9.96224127981811       -0.45719349952585
C          -14.39049279878879      -13.11166730444502       -6.19989242288817
H          -14.30297557301291      -13.40463854221823       -5.15442788181941
H          -14.94565364953702      -13.88175024531033       -6.73181973917755
H          -14.96237153986859      -12.18342697641456       -6.24238065238710
C          -13.37561646155236      -13.93149076613063       -9.13135213105136
H          -12.81864719151999      -14.62723310024714       -9.74857736155919
C          -14.65818027859943      -13.71484068777763       -9.40438540799821
H          -15.24693738247539      -12.99901983089032       -8.85802475322336
H          -15.15743435151744      -14.22876426915963      -10.20915356456353
C           -8.75334128210062      -13.84505251751324      -11.72555530409040
H           -9.30275683558694      -13.17036632879572      -12.38434930780523
H           -9.41538314178187      -14.66738809803918      -11.45836423043840
H           -7.90386251194905      -14.24594038188252      -12.27492171759457
C           -5.84232064980542      -12.66149089603859      -11.05544785758077
H           -4.90426026315247      -12.77643437535675      -10.52419206400181
C           -5.82018163173304      -12.53460833351173      -12.37831308318139
H           -6.71479868829537      -12.36977991954681      -12.95300633400818
H           -4.89638349868286      -12.56566406414581      -12.93197253410472
C           -3.58081685070349      -10.24362474057399       -6.92948973223692
H           -3.66425609421334       -9.64925839873636       -7.83980113690532
H           -3.14903004089114      -11.20908995258788       -7.19568202995863
H           -2.89579712262643       -9.73896563034952       -6.25252369859152
C           -4.55402300685460       -9.48489261504468       -3.92212052984465
H           -5.02617212472645       -8.55658738431352       -3.59900023965038
H           -3.53640800906436       -9.26122242512528       -4.23302565041775
H           -4.51035862489737      -10.15747998510363       -3.06499985785815
C           -6.32071601908328      -16.48732361121525       -5.39332239989341
H           -6.73297127033296      -17.40883830065464       -5.80429397049351
H           -6.02860652915347      -16.67566875715373       -4.36020382913303
H           -5.43597071085536      -16.21843308301507       -5.96178656430663
N           -8.53110085005710      -15.44662560959474       -4.84243714366542
H           -8.86960935161322      -16.21523420340840       -4.28718317755730
C           -7.31366325858428      -15.38597891876399       -5.46871768538254
C           -9.18699799332250      -14.29521592735468       -5.10940309971771
H          -10.16764115926282      -14.06465477761402       -4.74776030368087
N           -8.45958041615525      -13.51015220139808       -5.86553172745083
C           -7.29172106375476      -14.17406940928413       -6.09729556725614
H           -6.51910613363039      -13.73948955386421       -6.69646639917798
C          -10.51759007074502       -7.97698826836803       -5.31943374507656
H          -10.27476673957821       -7.20993049384001       -4.58662057451092
H          -10.83399920161267       -8.87262650462808       -4.79341347351803
H          -11.34407076522436       -7.62804079490884       -5.93389476564238
C           -9.30667630519378       -8.27333099950154       -6.18271059303216
H           -8.46768303741832       -8.61894707109028       -5.58130732836742
H           -9.01547372869753       -7.39196406791629       -6.75407814730756
S           -9.70528128442444       -9.58899228042453       -7.40566934076389
C           -8.51425940887203       -9.10399948032250       -8.69202996038846
H           -7.50611290558102       -9.13565498212964       -8.29124328387076
H           -8.76338006715528       -8.10791663797317       -9.04856233477665
H           -8.61031490549621       -9.82168522278064       -9.49923179737108
