87
 energy: -124.468427869251 gnorm: 0.270624195085 xtb: 6.7.1 (edcfbbe)
Fe          -8.89400000000000      -11.78900000000000       -6.54100000000000
N           -9.51900000000000      -11.31700000000000       -4.70800000000000
N           -7.15900000000000      -11.17700000000000       -6.12900000000000
N           -8.27900000000000      -12.30000000000000       -8.45900000000000
N          -10.81300000000000      -12.45400000000000       -7.01300000000000
C          -10.78800000000000      -11.35200000000000       -4.20300000000000
C          -10.78400000000000      -10.90300000000000       -2.84600000000000
C           -9.51600000000000      -10.56200000000000       -2.54000000000000
C           -8.74500000000000      -10.81800000000000       -3.69400000000000
C           -6.74100000000000      -10.71100000000000       -4.92600000000000
C           -5.35200000000000      -10.29500000000000       -4.93800000000000
C           -4.94100000000000      -10.54600000000000       -6.19900000000000
C           -6.11200000000000      -11.08300000000000       -6.93600000000000
C           -7.06800000000000      -12.03500000000000       -8.95900000000000
C           -7.03200000000000      -12.48500000000000      -10.30900000000000
C           -8.30300000000000      -12.99800000000000      -10.59800000000000
C           -9.06300000000000      -12.85700000000000       -9.44200000000000
C          -11.18600000000000      -12.99300000000000       -8.18600000000000
C          -12.65600000000000      -13.29400000000000       -8.10400000000000
C          -13.04600000000000      -12.85200000000000       -6.86100000000000
C          -11.87200000000000      -12.33300000000000       -6.20500000000000
C          -11.88100000000000      -11.81000000000000       -4.90100000000000
H          -12.84500000000000      -11.76300000000000       -4.39500000000000
C           -7.43100000000000      -10.57300000000000       -3.75300000000000
H           -6.90300000000000      -10.25900000000000       -2.85400000000000
C           -6.04200000000000      -11.46600000000000       -8.26900000000000
H           -5.10300000000000      -11.30000000000000       -8.79800000000000
C          -10.39500000000000      -13.23200000000000       -9.30200000000000
H          -10.85700000000000      -13.75700000000000      -10.13800000000000
C          -11.94800000000000      -10.79400000000000       -1.90000000000000
H          -12.25600000000000      -11.85700000000000       -1.99300000000000
H          -12.57500000000000      -10.17600000000000       -2.57800000000000
H          -12.09200000000000      -10.46800000000000       -0.84800000000000
C           -8.99800000000000      -10.02600000000000       -1.21900000000000
H           -8.53700000000000       -9.10500000000000       -1.63600000000000
H           -8.20700000000000      -10.79400000000000       -1.08000000000000
H           -9.46700000000000       -9.78300000000000       -0.24200000000000
C          -14.43200000000000      -12.93500000000000       -6.26800000000000
H          -15.00400000000000      -12.78500000000000       -5.32700000000000
H          -14.47300000000000      -14.01000000000000       -6.54700000000000
H          -14.88900000000000      -12.31700000000000       -7.07000000000000
C          -13.47100000000000      -13.87400000000000       -9.21600000000000
H          -13.27600000000000      -14.83000000000000       -9.64700000000000
C          -14.79000000000000      -13.72100000000000       -9.35900000000000
H          -15.28900000000000      -12.80900000000000       -8.99900000000000
H          -15.39400000000000      -14.50500000000000       -9.83800000000000
C           -8.80100000000000      -13.60800000000000      -11.89000000000000
H           -9.67500000000000      -12.93200000000000      -12.00800000000000
H           -9.14500000000000      -14.56700000000000      -11.44700000000000
H           -8.34900000000000      -13.79100000000000      -12.88800000000000
C           -5.82400000000000      -12.38900000000000      -11.18300000000000
H           -5.01100000000000      -12.07100000000000      -10.54400000000000
C           -5.81500000000000      -12.57500000000000      -12.50700000000000
H           -6.72500000000000      -12.90400000000000      -13.03100000000000
H           -4.89800000000000      -12.40200000000000      -13.08900000000000
C           -3.53700000000000      -10.27800000000000       -6.69800000000000
H           -2.98600000000000      -10.29900000000000       -7.66300000000000
H           -3.02600000000000      -10.95100000000000       -5.97700000000000
H           -3.54200000000000       -9.23700000000000       -6.30900000000000
C           -4.56300000000000       -9.74500000000000       -3.75800000000000
H           -4.27300000000000       -8.83400000000000       -4.32300000000000
H           -3.79400000000000      -10.53000000000000       -3.92000000000000
H           -4.62800000000000       -9.49400000000000       -2.67800000000000
C           -6.09900000000000      -16.52700000000000       -5.08800000000000
H           -6.44400000000000      -17.44700000000000       -5.60600000000000
H           -5.94900000000000      -16.75500000000000       -4.01100000000000
H           -5.14100000000000      -16.19500000000000       -5.54300000000000
N           -8.41000000000000      -15.59500000000000       -4.77800000000000
H           -8.76900000000000      -16.40800000000000       -4.31900000000000
C           -7.12100000000000      -15.46200000000000       -5.23800000000000
C           -9.08400000000000      -14.48400000000000       -5.04100000000000
H          -10.12700000000000      -14.31600000000000       -4.77500000000000
N           -8.27600000000000      -13.64600000000000       -5.66700000000000
C           -7.04700000000000      -14.23900000000000       -5.81500000000000
H           -6.23300000000000      -13.73300000000000       -6.31900000000000
C          -10.12100000000000       -7.99800000000000       -5.39000000000000
H           -9.78100000000000       -7.15000000000000       -4.75700000000000
H          -10.45600000000000       -8.82400000000000       -4.72700000000000
H          -10.97100000000000       -7.65400000000000       -6.01700000000000
C           -8.98600000000000       -8.47500000000000       -6.27500000000000
H           -8.15400000000000       -8.80400000000000       -5.61800000000000
H           -8.63500000000000       -7.61200000000000       -6.87800000000000
S           -9.42500000000000       -9.83000000000000       -7.38900000000000
C           -9.65100000000000       -8.86900000000000       -8.87200000000000
H           -8.71900000000000       -8.33300000000000       -9.15100000000000
H          -10.45000000000000       -8.11300000000000       -8.72100000000000
H           -9.93300000000000       -9.53100000000000       -9.71900000000000
87
 energy: -124.581519139698 gnorm: 0.151015217616 xtb: 6.7.1 (edcfbbe)
Fe          -8.89483123575955      -11.80746443804871       -6.54156441318775
N           -9.52528457052200      -11.30505154783490       -4.70189491721722
N           -7.15704649375545      -11.17297452401127       -6.12179470009133
N           -8.29069395927766      -12.30447297976238       -8.44381207702049
N          -10.79165164930012      -12.45192868943846       -7.01001878755786
C          -10.79208149796278      -11.35628819145641       -4.19895113640931
C          -10.79578779870956      -10.89691827571752       -2.83018927463096
C           -9.53447502149264      -10.56395086454922       -2.51780399376249
C           -8.75905620535151      -10.82357896397513       -3.68251738428716
C           -6.73601432167567      -10.71570509596554       -4.91833206809040
C           -5.36597039868628      -10.30805336885732       -4.94792832167808
C           -4.94840314391919      -10.54775454086057       -6.21846783797645
C           -6.09746158590041      -11.08307932788232       -6.94092396591729
C           -7.07304399442125      -12.04756357216147       -8.96166402460628
C           -7.02360079799023      -12.48919410842027      -10.32909310886124
C           -8.27485162619484      -12.99721646207401      -10.61100574087871
C           -9.05679079861206      -12.86295306604470       -9.43146590296913
C          -11.19197784973986      -12.99664922747363       -8.18053139471824
C          -12.64832069140705      -13.27369959519703       -8.10950678183987
C          -13.03137914943216      -12.83792374890260       -6.86050963965479
C          -11.86129003168795      -12.33277419964449       -6.20037328301965
C          -11.88360978623162      -11.81533329885821       -4.90410320457118
H          -12.84517082645042      -11.77003179123889       -4.40413404393075
C           -7.42616371683332      -10.57912447920909       -3.74702970075523
H           -6.90055349524929      -10.25297330333435       -2.86118805513178
C           -6.03497268654901      -11.46516643268358       -8.26718433824642
H           -5.10139495185527      -11.29749010678754       -8.78888962981042
C          -10.39652257425666      -13.23356405722986       -9.29230192095036
H          -10.85950504840633      -13.74412227200506      -10.13138846553968
C          -11.98953814668477      -10.81458659169809       -1.93733082569874
H          -12.31695641019110      -11.85938328736775       -1.97542989725720
H          -12.63501016815633      -10.18189348544220       -2.55602008094172
H          -12.03571628837044      -10.46937883631795       -0.89127688159551
C           -8.95891962528886      -10.02434714297938       -1.23905331416258
H           -8.50557279110472       -9.09239971034786       -1.59880021162039
H           -8.17922655796339      -10.77031943681777       -1.04249979065472
H           -9.49421948039724       -9.80952794069449       -0.30139847212405
C          -14.43530573789127      -12.95504767499092       -6.31708240489429
H          -14.91686377045982      -12.76962053992039       -5.33987012410097
H          -14.55237069502546      -14.02096467047814       -6.55436974495986
H          -14.94623064054887      -12.33489705645134       -7.06126524331883
C          -13.48649416569472      -13.90679566901750       -9.15327211624565
H          -13.21167979267725      -14.83225702428416       -9.64303854751888
C          -14.79733944598082      -13.71411927815205       -9.34381953536962
H          -15.30028751398274      -12.81768845428844       -9.00066925675079
H          -15.39094632323703      -14.46704484703518       -9.85866284743959
C           -8.83760137552614      -13.61075951983585      -11.86535849367459
H           -9.70249118946039      -12.95803358933476      -12.03884720022461
H           -9.17378827421074      -14.58229582690828      -11.48284453272773
H           -8.33501048787506      -13.77198251704251      -12.82930937202540
C           -5.83814165305356      -12.38035817258433      -11.18144911913435
H           -4.99762531076081      -12.07447730328003      -10.57224808420831
C           -5.81072553194851      -12.57154299973906      -12.49768092798866
H           -6.69885558981140      -12.88856735207072      -13.02918427173918
H           -4.90609510362390      -12.41069844433236      -13.07816596275002
C           -3.53683208632304      -10.26573100396583       -6.66112879200161
H           -3.05767006653065      -10.31873478460049       -7.65144897074808
H           -2.98077996617761      -10.92710822897231       -5.98131222202668
H           -3.47551433965994       -9.22678099425572       -6.30986011952241
C           -4.52858320597762       -9.75136221292343       -3.81165874000553
H           -4.21710395471991       -8.81627313125247       -4.29653614534462
H           -3.73038253751218      -10.50097732392751       -3.88778838098091
H           -4.69196168884345       -9.52916359056427       -2.73959257139066
C           -6.09974778482098      -16.53180852638453       -5.08776998803555
H           -6.43390257194500      -17.44419409553910       -5.59820177938822
H           -5.94401533923909      -16.75817272625778       -4.02470622553677
H           -5.15474196710099      -16.20238148990674       -5.53340364401923
N           -8.40346789962856      -15.60236221993746       -4.77285627181110
H           -8.76670953858489      -16.41717273321051       -4.31150564514149
C           -7.12073036363931      -15.46706393050703       -5.23866556670403
C           -9.07735007240647      -14.47733538700529       -5.05013856951915
H          -10.10986385235273      -14.30976160436052       -4.78439660350813
N           -8.28959462358714      -13.63788931447228       -5.68509648193326
C           -7.06346703040221      -14.23366616823752       -5.81276380904189
H           -6.25013752599886      -13.73472586141912       -6.31115037930146
C          -10.12631154389423       -7.99319287410328       -5.38701515525849
H           -9.79003239625304       -7.15785043274634       -4.76079029084607
H          -10.45814567043965       -8.80975747901699       -4.73689208751981
H          -10.96744594634410       -7.65756725312733       -6.00462890402407
C           -8.97836160669611       -8.45075531554934       -6.26396113574341
H           -8.15602251036475       -8.80465916629863       -5.62940100658670
H           -8.62539774364797       -7.61480659736158       -6.87898188209233
S           -9.46829005907512       -9.80003786174244       -7.36902930715228
C           -9.64885899902865       -8.85875185060380       -8.88621461705801
H           -8.72055662573652       -8.33889019326852       -9.15316643622809
H          -10.44421913861754       -8.12019182410175       -8.73060238649088
H           -9.93088336689635       -9.52888592334404       -9.70582051260229
87
 energy: -124.647720097913 gnorm: 0.068950994615 xtb: 6.7.1 (edcfbbe)
Fe          -8.89655484632508      -11.82626034642195       -6.54736686877461
N           -9.52927342494288      -11.30041322240450       -4.69228482815569
N           -7.14815690956601      -11.16903722979157       -6.11502934041085
N           -8.29862474637138      -12.31250593782472       -8.42702083233336
N          -10.77283393906624      -12.45681634707362       -7.00511057586430
C          -10.79529731259918      -11.36030697978144       -4.19535439478104
C          -10.81045696186293      -10.89262417727217       -2.81457368684757
C           -9.54939479463726      -10.56603517850086       -2.49496698114795
C           -8.77014622732372      -10.82885142485327       -3.67271440048892
C           -6.72328152356170      -10.71800646988523       -4.90944389799445
C           -5.36502680214843      -10.31679894710279       -4.95223338749998
C           -4.94445488969127      -10.54606171486131       -6.23410793491506
C           -6.07562387194560      -11.08108591479208       -6.94422839281860
C           -7.07833569428465      -12.05997340210670       -8.95951699246814
C           -7.02355084238522      -12.49403936245495      -10.34301656371725
C           -8.26182898142929      -13.00006789444377      -10.62019040253367
C           -9.05302843461992      -12.87092378332882       -9.41570183518086
C          -11.19992705050925      -13.00395174673771       -8.17542527011484
C          -12.64019891146729      -13.26313138938035       -8.11467828400470
C          -13.02509446562087      -12.83097220672081       -6.86011905919208
C          -11.85730053714789      -12.33414329044952       -6.19692760647610
C          -11.88698695293373      -11.81871610754146       -4.90583510608680
H          -12.84656194181957      -11.77778835406359       -4.41086266900017
C           -7.42594987629695      -10.58438805857778       -3.74151236901196
H           -6.90213432935793      -10.24725942896137       -2.86568195931458
C           -6.03168740708845      -11.46689400993513       -8.26827799569358
H           -5.10178153684386      -11.29895097386676       -8.78692070843498
C          -10.39589143841292      -13.23435495423524       -9.28261502816498
H          -10.86108119865080      -13.72806467564630      -10.12661792158831
C          -12.03194092701699      -10.83479239803409       -1.97557102276034
H          -12.38567763213284      -11.86155603147915       -1.95904275202296
H          -12.70316538958820      -10.19047421374723       -2.53498890011249
H          -11.97329284548891      -10.47014907949230       -0.93720598728767
C           -8.92368853474369      -10.02384126862434       -1.25730999956561
H           -8.47490763760576       -9.08056777860733       -1.56271155440585
H           -8.14975875424309      -10.74628916445647       -1.00527777593750
H           -9.53068420713543       -9.83831752733542       -0.36164832316972
C          -14.43702678228426      -12.97266648671090       -6.36635423569605
H          -14.80934226105714      -12.74985164968692       -5.34798689012365
H          -14.62709662670625      -14.02867874696196       -6.56308807792729
H          -15.00225186871092      -12.34892536554687       -7.05263904314209
C          -13.49468752780114      -13.92757627270564       -9.10374324254238
H          -13.14296074198840      -14.82477923434365       -9.62113659235537
C          -14.79220459187299      -13.70607652060865       -9.33276907176345
H          -15.30760471573274      -12.82852693517331       -8.99315600475241
H          -15.37712300756869      -14.43208181221062       -9.88121099696716
C           -8.87494031795873      -13.61441333989221      -11.83926385831273
H           -9.73224888568968      -12.98257833797793      -12.06492041931608
H           -9.20713659580394      -14.59810651291395      -11.51272056354243
H           -8.30831493442203      -13.74800392316812      -12.76684954724339
C           -5.85287573744982      -12.37434708752029      -11.17393437578679
H           -4.97989825872053      -12.07405517956055      -10.60442636425389
C           -5.80466815699070      -12.56818267038361      -12.48885737799931
H           -6.67750992264219      -12.87289745246730      -13.03374963557533
H           -4.90703384741782      -12.41896226773702      -13.06606075371811
C           -3.53392778199804      -10.25370753632828       -6.62743454021743
H           -3.14156767983078      -10.34287562178365       -7.64978738858571
H           -2.93675378459239      -10.90513232430736       -5.98580583322467
H           -3.41122572066746       -9.21692735506751       -6.31172360263244
C           -4.48979151403054       -9.75781506693490       -3.86597646121648
H           -4.16244404644019       -8.80059443114496       -4.27489542938615
H           -3.66589927245655      -10.47265770049475       -3.85967216232179
H           -4.77148181531908       -9.57195739814398       -2.80803056315470
C           -6.10024822635765      -16.53291609977834       -5.08785498879505
H           -6.42755848694945      -17.44166125478858       -5.59220138191194
H           -5.94092865189455      -16.75952151377098       -4.03368761844973
H           -5.16304644793192      -16.20642618427966       -5.52739998973173
N           -8.40002222244977      -15.60542999901751       -4.76754797237264
H           -8.76661025730471      -16.42009509267714       -4.30377105476983
C           -7.12193945624294      -15.46706038307278       -5.24020495495421
C           -9.07522106762011      -14.47263030143417       -5.06242643027647
H          -10.09940736329641      -14.30495453007240       -4.79447007216168
N           -8.30547409145242      -13.63200178100742       -5.70617657338528
C           -7.08156409406562      -14.22914799789583       -5.81704518357756
H           -6.26438882340790      -13.73742127124695       -6.30713632693780
C          -10.12763765655671       -7.98077062989866       -5.38060466356035
H           -9.80008942195684       -7.15446472847307       -4.75502669859735
H          -10.45655601068687       -8.79805546023612       -4.74614358743753
H          -10.96336469144911       -7.65746801821682       -5.99597563402912
C           -8.97482692031333       -8.43128730098891       -6.25540822750146
H           -8.15956424928895       -8.80678695018853       -5.63977489295629
H           -8.61823352644215       -7.61540321033647       -6.87912862813802
S           -9.53137478560590       -9.78036946851333       -7.34604851107459
C           -9.64720661313983       -8.84905338434014       -8.89954073414446
H           -8.71607423958535       -8.34942669690510       -9.15200110106515
H          -10.43794125605462       -8.11896647681660       -8.74790423417777
H           -9.92712326692896       -9.53189304547744       -9.69423589995924
87
 energy: -124.678257235295 gnorm: 0.047344056206 xtb: 6.7.1 (edcfbbe)
Fe          -8.89783208281234      -11.83093993818896       -6.55336235472518
N           -9.53367097601108      -11.30383540813496       -4.68680497197650
N           -7.13368263059778      -11.16710353739104       -6.11243817883687
N           -8.29730273977512      -12.32406463747068       -8.41036049610903
N          -10.76433230755118      -12.46655512116911       -6.99701040803562
C          -10.79934080352444      -11.36630704633544       -4.19531591406128
C          -10.82542519511433      -10.89577407270324       -2.81176041545558
C           -9.55783878630685      -10.57190463536188       -2.48681239029912
C           -8.77490005457176      -10.83612414483370       -3.66988306489183
C           -6.70683934397216      -10.71995948901406       -4.90391545035050
C           -5.34613486103346      -10.32017924258350       -4.95535351536905
C           -4.92914166167347      -10.54225967474363       -6.24012602608063
C           -6.05608221505129      -11.07973981598952       -6.94605698570443
C           -7.07943491228691      -12.07087624579220       -8.95178907051491
C           -7.03073487053059      -12.49976705887479      -10.34373701680445
C           -8.27103077545795      -13.00928188414283      -10.61464137871914
C           -9.05240274414622      -12.88114475204655       -9.39508901005611
C          -11.19978454438471      -13.01304472550389       -8.16753558087579
C          -12.63072084829269      -13.26051921293811       -8.11526025075830
C          -13.02736710173758      -12.82811049301864       -6.86592513146774
C          -11.85947760608508      -12.33958254934672       -6.19526121479579
C          -11.89082339454715      -11.82430585102789       -4.90548281105795
H          -12.85132482405688      -11.78637359770633       -4.41461833324422
C           -7.42763783034356      -10.59028692117822       -3.74043965514057
H           -6.90632119907867      -10.24105546625578       -2.86754120275090
C           -6.02985319609283      -11.47257256762468       -8.27070777945705
H           -5.10183186478088      -11.30389840037669       -8.79303515298216
C          -10.39251385904407      -13.23790666279649       -9.27127278142012
H          -10.86381956016649      -13.70901222709597      -10.12402953225938
C          -12.06264981168311      -10.84713323898959       -1.99967024248393
H          -12.45744951380051      -11.86042992697632       -1.94214191298558
H          -12.77206338749803      -10.20078928965702       -2.51325624555035
H          -11.92742309965636      -10.47101382877377       -0.97537096906806
C           -8.91141343098854      -10.02606466198848       -1.26594403493959
H           -8.45321380112706       -9.07148842913461       -1.52595781682592
H           -8.12734270430494      -10.72265193547223       -0.96624159196639
H           -9.57242107451304       -9.86276401550096       -0.40759343157693
C          -14.43418750704492      -12.97773292909449       -6.39110991911601
H          -14.70393423339273      -12.73290938751004       -5.34593955098511
H          -14.69799976597232      -14.02546572438681       -6.56956446201873
H          -15.05590557013583      -12.35240492406021       -7.03118652975507
C          -13.48471828386430      -13.94114509262442       -9.07792579950186
H          -13.08109556720486      -14.81978958152228       -9.58705709613124
C          -14.77416232559795      -13.70752072343978       -9.32550408505761
H          -15.30487986987820      -12.84010986679322       -8.98018398142936
H          -15.35329003648946      -14.40039000819293       -9.92408609842326
C           -8.90209538257863      -13.62000249875579      -11.81888730104624
H           -9.76253192932181      -13.00744145014275      -12.08878065844027
H           -9.24495819416732      -14.61581579028337      -11.53901887766757
H           -8.27985190689573      -13.72807857674812      -12.71196234129447
C           -5.86054383672062      -12.36906798011576      -11.17127348188109
H           -4.96650629919921      -12.07287456067323      -10.63202877894067
C           -5.79702356938899      -12.56147305025389      -12.48643124706310
H           -6.66225955767423      -12.85436417901776      -13.04975283159887
H           -4.89234689327493      -12.42705674204419      -13.05233680739352
C           -3.52493688307643      -10.24675269418816       -6.61823546448771
H           -3.21648659064546      -10.36774234390766       -7.66560701669946
H           -2.88722433761891      -10.88535481777961       -6.00138944019523
H           -3.34340247825271       -9.20874270629715       -6.32632470714666
C           -4.45991936616233       -9.76239713268051       -3.89857351553536
H           -4.10839259035370       -8.78900974481630       -4.25061878515430
H           -3.60334702972596      -10.44040079874158       -3.83115073540201
H           -4.84171164916410       -9.61167702786996       -2.86797547545416
C           -6.10276583152068      -16.52910489788062       -5.08786762745650
H           -6.42529353769650      -17.44092139780115       -5.58907294425376
H           -5.93972768736617      -16.75764233739342       -4.03547581297234
H           -5.16530651607597      -16.20490615479746       -5.52592145870542
N           -8.40245093174301      -15.60260419924233       -4.76475125384988
H           -8.76812196944285      -16.41473831444871       -4.29469392929976
C           -7.12613620402270      -15.46280793088432       -5.24307765363768
C           -9.08149262712131      -14.47273139606973       -5.07652079493848
H          -10.10244309784173      -14.30224965783732       -4.80562757924639
N           -8.32109081213875      -13.63408677259048       -5.73157029340300
C           -7.09591109712367      -14.22857784544088       -5.83012894222107
H           -6.27489601337138      -13.73926522149809       -6.31292340226656
C          -10.12738288392848       -7.96032808662749       -5.36962708331922
H           -9.80907450752103       -7.13715899978751       -4.73800362221443
H          -10.45652603671603       -8.78518088955705       -4.74588324568447
H          -10.96370374881224       -7.64450898022496       -5.98696786479133
C           -8.98001441537216       -8.41622214573534       -6.24830106567280
H           -8.16397805343792       -8.81383505492666       -5.64900631892030
H           -8.61276159979881       -7.61389597344664       -6.88294749054456
S           -9.60638359322488       -9.76276422477471       -7.32105084277832
C           -9.64975628446503       -8.84578740308544       -8.90601677608723
H           -8.70201833160618       -8.37184565196476       -9.14247946749614
H          -10.43171641072057       -8.10376541671100       -8.78041610617052
H           -9.92375654253179       -9.54453000919543       -9.68702111665416
87
 energy: -124.691918090546 gnorm: 0.037505042280 xtb: 6.7.1 (edcfbbe)
Fe          -8.89839189533965      -11.82978107685632       -6.55547838198705
N           -9.53849778450297      -11.31073137242056       -4.68553249106980
N           -7.11541525586347      -11.16228231635721       -6.11287692541543
N           -8.29364049980765      -12.32841170984136       -8.39507626844831
N          -10.76450425431403      -12.47419936828980       -6.98469037075318
C          -10.80364837575570      -11.37421127133995       -4.19589361374034
C          -10.83878758123713      -10.90384766349510       -2.81484282661323
C           -9.56423125502861      -10.58044700893486       -2.48702219744507
C           -8.77684306770426      -10.84337135775148       -3.67133495644243
C           -6.68800959076708      -10.71852545509802       -4.90106532546378
C           -5.31885991626713      -10.32157057735420       -4.95898537390251
C           -4.90741329386255      -10.53924862487837       -6.24398104750639
C           -6.03756597765117      -11.07793940465707       -6.94908686556205
C           -7.07862343318484      -12.07865943866246       -8.94441880794183
C           -7.04162660884315      -12.50610262375496      -10.34012304889432
C           -8.28672609480140      -13.02005845278491      -10.60051256069674
C           -9.05209033296678      -12.88944775551145       -9.37323961625193
C          -11.19585106922884      -13.02223632577565       -8.15453295774739
C          -12.62262224466473      -13.26495426122765       -8.10936265214505
C          -13.03516015314469      -12.82842975190317       -6.87048077252726
C          -11.86673268134198      -12.34545883831902       -6.19130008209915
C          -11.89666623137430      -11.83138880120343       -4.90250524929212
H          -12.85788656380744      -11.79514926015047       -4.41332097307020
C           -7.42783361439506      -10.59387597621001       -3.74398330340012
H           -6.91261889750342      -10.23589922510332       -2.86936529137927
C           -6.02542934321739      -11.47914538925913       -8.27382705389895
H           -5.10022069467096      -11.31299271942552       -8.80398833387809
C          -10.38935534275219      -13.24207085836625       -9.25712229631268
H          -10.86624411645893      -13.69054475473768      -10.11861556769468
C          -12.08414014078581      -10.85309616713219       -2.01037756486948
H          -12.51197259578969      -11.85452267087772       -1.92572462528713