78
 energy: -115.578372283618 gnorm: 0.363542631246 xtb: 6.7.1 (edcfbbe)
Fe          -5.76100000000000       57.00100000000000      111.61700000000000
N           -6.39600000000000       56.11599999999999      113.33499999999999
N           -6.72100000000000       58.73199999999999      112.16899999999998
N           -4.83400000000000       57.97999999999999      110.07400000000000
N           -4.62100000000000       55.31499999999999      111.16199999999999
C           -6.13200000000000       54.85700000000000      113.71899999999999
C           -6.68300000000000       54.59300000000000      114.94999999999999
C           -7.35000000000000       55.75800000000000      115.32999999999998
C           -7.12100000000000       56.66499999999999      114.32899999999998
C           -7.39100000000000       58.96100000000000      113.30900000000000
C           -7.89600000000000       60.25299999999999      113.34699999999999
C           -7.44700000000000       60.85100000000000      112.17800000000000
C           -6.66200000000000       59.90300000000000      111.53999999999999
C           -5.01700000000000       59.26199999999999      109.71899999999998
C           -4.21300000000000       59.64900000000000      108.63800000000001
C           -3.45000000000000       58.51100000000000      108.36999999999999
C           -3.93100000000000       57.51200000000000      109.21999999999998
C           -3.88600000000000       55.13500000000000      110.07099999999998
C           -3.57300000000000       53.80600000000000      109.89300000000000
C           -4.08100000000000       53.16500000000000      111.01700000000000
C           -4.71700000000000       54.13600000000000      111.76299999999999
C           -5.39000000000000       53.94500000000000      112.96800000000000
H           -5.32800000000000       52.94000000000000      113.38300000000000
C           -7.56800000000000       57.99900000000000      114.31300000000000
H           -8.12200000000000       58.32599999999999      115.19300000000000
C           -5.89700000000000       60.12100000000000      110.39600000000000
H           -5.99800000000000       61.11299999999999      109.95900000000000
C           -3.53300000000000       56.16500000000000      109.20200000000000
H           -2.85400000000000       55.88700000000000      108.39700000000001
C           -8.18500000000000       55.99200000000000      116.58799999999998
H           -8.19800000000000       55.06600000000000      117.20200000000000
H           -9.22700000000000       56.25100000000000      116.30399999999999
H           -7.73900000000000       56.81500000000000      117.18700000000000
C           -6.59600000000000       53.27000000000000      115.68800000000000
H           -5.57900000000000       52.84099999999999      115.56200000000000
H           -7.34100000000000       52.55799999999999      115.27199999999999
H           -6.78800000000000       53.43100000000000      116.76999999999998
C           -8.83100000000000       60.75500000000000      114.44000000000000
H           -8.40400000000000       60.50800000000000      115.43600000000001
H           -9.82200000000000       60.26400000000000      114.34099999999999
H           -8.94400000000000       61.85700000000000      114.35999999999999
C           -7.71800000000000       62.09600000000000      111.62700000000000
H           -7.16600000000000       62.37600000000000      110.71899999999999
C           -8.64200000000000       63.07299999999999      112.10499999999999
H           -8.65200000000000       64.08700000000000      111.67900000000000
H           -9.35500000000000       62.82299999999999      112.90500000000000
C           -4.11400000000000       61.07400000000000      108.05200000000001
H           -4.11700000000000       61.81600000000000      108.87899999999999
H           -4.98500000000000       61.26899999999999      107.39000000000000
H           -3.16900000000000       61.17900000000000      107.47700000000000
C           -2.43700000000000       58.28000000000000      107.41900000000000
H           -1.80100000000000       57.39800000000000      107.57700000000000
C           -2.11100000000000       59.06700000000000      106.23099999999999
H           -2.68900000000000       59.96999999999999      105.98399999999999
H           -1.28400000000000       58.76500000000000      105.57100000000000
C           -2.92100000000000       53.18000000000000      108.65299999999999
H           -1.86200000000000       53.50800000000000      108.58499999999999
H           -3.45900000000000       53.51000000000000      107.73900000000000
H           -2.95000000000000       52.07200000000000      108.73200000000000
C           -4.00000000000000       51.67100000000000      111.32899999999999
H           -3.07700000000000       51.24700000000000      110.87799999999999
H           -4.88300000000000       51.14999999999999      110.90100000000000
H           -3.96600000000000       51.51900000000000      112.42900000000000
O           -4.27100000000000       57.67600000000000      113.19400000000000
H           -4.55200000000000       57.26900000000000      114.01399999999998
H           -3.56700000000000       58.20800000000000      113.08499999999999
C           -8.94400000000000       54.77100000000000      107.61699999999999
H           -9.19600000000000       55.45200000000000      106.77599999999998
H           -9.84000000000000       54.16600000000000      107.87199999999999
H           -8.11300000000000       54.10400000000000      107.30300000000000
N           -9.19000000000000       56.51500000000000      109.51600000000001
H          -10.11800000000000       56.80599999999999      109.28599999999999
C           -8.51300000000000       55.59899999999999      108.83600000000000
C           -8.47900000000000       56.97399999999999      110.51400000000000
H           -8.81600000000000       57.72799999999999      111.22399999999999
N           -7.31500000000000       56.36399999999999      110.48900000000000
C           -7.31300000000000       55.52700000000000      109.48000000000000
H           -6.44200000000000       54.91700000000000      109.27500000000001
78
 energy: -115.656773800886 gnorm: 0.146220372423 xtb: 6.7.1 (edcfbbe)
Fe          -5.73278535573650       57.00960090751057      111.63571438955094
N           -6.40130345298454       56.11843682199169      113.31398616350984
N           -6.69316296676833       58.71743365103385      112.17613925343538
N           -4.84456310368020       57.97796146434057      110.07837497702140
N           -4.63423787828728       55.33825070861422      111.16702386862318
C           -6.12808587667267       54.84964597136918      113.70665363488293
C           -6.69929525206166       54.58365248244046      114.96932690612798
C           -7.35567358934769       55.74182449546463      115.35017931826783
C           -7.13134905876562       56.67519575058347      114.31831529939720
C           -7.39606650171443       58.93941488880589      113.31660415540711
C           -7.91576431953275       60.25526120320247      113.35058356454304
C           -7.47427933887097       60.86407257121353      112.18125206707695
C           -6.66400573457600       59.89417801459275      111.51874574929725
C           -5.03047636877216       59.27523812773778      109.72675243942989
C           -4.20120120616431       59.66028951149577      108.63667326625357
C           -3.44965346989478       58.52371779984914      108.33598748329243
C           -3.91704072285142       57.50118256185665      109.22491543941221
C           -3.89850952807625       55.15011938939283      110.05303028263772
C           -3.57056078612136       53.78300891949032      109.88626650253791
C           -4.07356337169092       53.14188224788850      111.00248473454972
C           -4.72920352201468       54.13579939619289      111.77060886924968
C           -5.39029382116919       53.93158219755902      112.97142230448016
H           -5.32787948016865       52.93454096382601      113.38497419399538
C           -7.57937774065079       57.99338261638784      114.31769109733767
H           -8.12452739203579       58.31986982248681      115.19355571909479
C           -5.90786708061906       60.13118657414258      110.38219961739476
H           -5.99054886344318       61.11988431190460      109.95550656206176
C           -3.52312077255821       56.16778811274187      109.18867020906488
H           -2.85175531434010       55.88364370122537      108.39079407642238
C           -8.17731698294034       55.98514180433822      116.58583430665938
H           -8.20065375170006       55.07948047794233      117.19811772000534
H           -9.20652741582239       56.24744953291859      116.31038218010131
H           -7.74861745478507       56.80270731394164      117.17864778100629
C           -6.59860545821079       53.27572285749406      115.69233938507242
H           -5.59669762187624       52.84721388604974      115.56916962850579
H           -7.33069652714046       52.56704485920059      115.28463689738805
H           -6.78874186348046       53.42139642108546      116.75894756719272
C           -8.82280955186723       60.75488223716335      114.43758999941619
H           -8.41022343150422       60.51004959893233      115.42309708769669
H           -9.80650586607803       60.27675603102006      114.34405818371832
H           -8.94020048668752       61.83813272941014      114.37527857057576
C           -7.74057228293799       62.14053758322694      111.63778648370607
H           -7.17757144046395       62.40261575607428      110.74270786623663
C           -8.62857074861975       63.06559635579909      112.09452775388984
H           -8.65726469858801       64.06141331768190      111.67038798932988
H           -9.33523609098610       62.83594694133281      112.88279302433135
C           -4.11293406462555       61.05723259823365      108.06182598523782
H           -4.11797161766084       61.80103159737707      108.86780008448817
H           -4.96738130302564       61.26014703504539      107.40199912009140
H           -3.18643336089743       61.17689908639871      107.49254431590984
C           -2.42012304587355       58.30395560311932      107.37648500841772
H           -1.80258264996155       57.42206824346410      107.55211231900681
C           -2.11761224954438       59.05090528778539      106.26437761834063
H           -2.68372362628963       59.93599945015362      105.99345892097455
H           -1.30613586794469       58.76211124614406      105.60320682344403
C           -2.91932364175523       53.18076138367667      108.66724964206288
H           -1.87419656102113       53.50295487943088      108.58661220565502
H           -3.44850872131460       53.50194034368636      107.76037209799898
H           -2.94815703098723       52.08905376970589      108.72905231670890
C           -3.99578946829506       51.67566843384046      111.32470263535444
H           -3.08960172320509       51.24812986541290      110.88472879935786
H           -4.86847499340803       51.15503055274659      110.91078572915012
H           -3.96719246758291       51.51845935800482      112.40866521087433
O           -4.27620818439473       57.66352071513483      113.18317325646389
H           -4.53698791447403       57.27742854060649      114.01974295822367
H           -3.53261665517522       58.22884461825012      113.09306205566780
C           -8.94698226529308       54.78199468053768      107.62451807972812
H           -9.19617576702175       55.44377620160326      106.78685603039168
H           -9.82744206646337       54.17570567929219      107.86715282922461
H           -8.13117328244218       54.12062054151222      107.31511032904508
N           -9.20752517829077       56.50832906723394      109.50348831022868
H          -10.14015520566718       56.80220350290819      109.27394095130515
C           -8.50409164440164       55.58066815189019      108.82221847371109
C           -8.47722584746417       56.97740654568540      110.51529032114099
H           -8.81319917087386       57.72073285314679      111.21701031608427
N           -7.29696267102489       56.38304213822413      110.50432703290041
C           -7.29914625875745       55.52034597469571      109.47825008234828
H           -6.43900195160515       54.91389916610007      109.27214557127452
78
 energy: -115.675953501691 gnorm: 0.046645645048 xtb: 6.7.1 (edcfbbe)
Fe          -5.71016297273616       57.01556961559035      111.65379335391842
N           -6.41212168370828       56.11291422264427      113.29327942067913
N           -6.66548730395322       58.70761937087194      112.18227167810491
N           -4.84738977651570       57.97856224692961      110.08934173819492
N           -4.65643622925309       55.35577009924375      111.16581834507343
C           -6.13099825353032       54.84073192332220      113.69172915637749
C           -6.71371376958914       54.57805881023331      114.97793015316118
C           -7.35893270282095       55.72579584763280      115.35669167283920
C           -7.14285197529844       56.67667939757114      114.30254432065338
C           -7.39724792186022       58.91959849875789      113.31666392934000
C           -7.93445669359218       60.24896583113598      113.34072019523789
C           -7.50403773087518       60.86015085769751      112.17652885743378
C           -6.67056036290922       59.88409812774571      111.50094077323948
C           -5.04007161026648       59.28262122885836      109.73805808942834
C           -4.19015226862585       59.66115861312469      108.64127832124930
C           -3.45632924718771       58.53245644242006      108.32094025958176
C           -3.91247484996600       57.49408757544905      109.23085500661583
C           -3.91792932690503       55.16466912357588      110.03902944653581
C           -3.57742613754244       53.77351113653098      109.88484967404924
C           -4.07258516137408       53.13434578135452      110.99036654709943
C           -4.74536274389686       54.13966085946613      111.77252366911209
C           -5.39492954632770       53.91679283118454      112.97107672736810
H           -5.32698841622867       52.92455261707496      113.38631990168604
C           -7.59252982704406       57.98349966894126      114.31744855146628
H           -8.13747352940227       58.30664592323922      115.19011461862917
C           -5.92017047094093       60.14207909040284      110.36997909247832
H           -5.98942108228182       61.13152340005139      109.95005185894263
C           -3.52000113272196       56.16953181522653      109.17522028843004
H           -2.85042928727413       55.88001587693442      108.38169274599163
C           -8.16760033635345       55.97804210776419      116.58020319360291
H           -8.20128012376456       55.08766995679212      117.19895672091134
H           -9.18943530838603       56.24489486103216      116.31172424437048
H           -7.75045133159109       56.79440371817273      117.16853293142805
C           -6.60395588300706       53.28189779821343      115.69691607604942
H           -5.61009747293940       52.85559566777106      115.57805454832670
H           -7.32625423647783       52.57010297777860      115.29741547337306
H           -6.79567390723248       53.41351849251215      116.75632959235443
C           -8.81321713069378       60.75012739538785      114.43226910843995
H           -8.40649462797208       60.50013915546827      115.41008592181102
H           -9.79876393567668       60.28921693335905      114.34982519524900
H           -8.92855778670094       61.82486177785084      114.38906509983181
C           -7.75770277273803       62.16933143544554      111.64455131151382
H           -7.16124224946168       62.43016465791079      110.77722770142654
C           -8.62574323492565       63.06513267316707      112.08404926555453
H           -8.68069003462554       64.04464547411773      111.64441627405931
H           -9.31999974669222       62.86396113771578      112.87768877493717
C           -4.11012457556003       61.03691505700945      108.07473686434754
H           -4.12303701538102       61.78294603380530      108.86819385670616
H           -4.95396262672127       61.24018341794601      107.41315927137082
H           -3.19361172628279       61.16886192546966      107.50976958262406
C           -2.41291382717373       58.31843700554079      107.34943828207759
H           -1.80435608901514       57.44052903186850      107.54192227545812
C           -2.13287059687739       59.03506753075431      106.28296189948543
H           -2.68805058562516       59.90962211086974      105.99273383262093
H           -1.31781385278435       58.76659910659302      105.63145350893457
C           -2.91884084042884       53.18514230430162      108.68552871374031
H           -1.88151092495633       53.50504407471009      108.59896532158727
H           -3.43958164465447       53.49889720012122      107.78018876551997
H           -2.94263778960311       52.10105651903002      108.73299363705401
C           -3.99307725184294       51.68544297050713      111.31949431160626
H           -3.09806105564412       51.24849690053502      110.88661525926757
H           -4.85924100335292       51.15833930477067      110.91857149763149
H           -3.96724057969444       51.52398316628017      112.39387803187397
O           -4.23860910512816       57.64335678387906      113.15865569392710
H           -4.49068249998016       57.31158349834395      114.02619612202858
H           -3.50029316007448       58.25046426044941      113.11013323560938
C           -8.94580667060145       54.79212493639293      107.63632015783898
H           -9.19826237600249       55.44671150950021      106.80423630993056
H           -9.82069969448828       54.18891586363530      107.87171190970824
H           -8.14442585339171       54.13072476900712      107.32132528461933
N           -9.21920844789146       56.49812267156631      109.49337768166778
H          -10.15686148689694       56.78907953044818      109.26466749609587
C           -8.48818039195783       55.56577634029887      108.81696377749793
C           -8.47485544178635       56.98023974471104      110.50602491760704
H           -8.81357858255245       57.71603573759651      111.20352329982224
N           -7.28431857356377       56.40755026830308      110.50864623582083
C           -7.28468632543757       55.52330261795783      109.47594967832985
H           -6.43076727078251       54.91607475412690      109.26929346143308
78
 energy: -115.681056524216 gnorm: 0.028903823062 xtb: 6.7.1 (edcfbbe)
Fe          -5.69605359887163       57.01952687255474      111.66733486192386
N           -6.42399245813808       56.10060979456043      113.28183198168085
N           -6.65450196438051       58.70630233285956      112.18345793683336
N           -4.84626637075831       57.97925695663389      110.10072102709526
N           -4.68058476682765       55.35673984112752      111.16071298002934
C           -6.14437065640995       54.82823379268195      113.68178925730176
C           -6.72780968464030       54.56880680423834      114.97654272139455
C           -7.36792234237075       55.71368927968440      115.35194080664822
C           -7.15630633903912       56.66696132547418      114.28854874114950
C           -7.40365587055426       58.90828513754864      113.30942808049245
C           -7.94850059493507       60.24000683866819      113.33018364033799
C           -7.51892474908668       60.85602647874951      112.17298067672202
C           -6.67670317190091       59.88134676305767      111.49434728616166
C           -5.04113511843498       59.28307934596678      109.74908568059563
C           -4.18391712980014       59.65551114959656      108.65084103758133
C           -3.46152169197942       58.52999936057145      108.32541270987099
C           -3.91696616564640       57.48949783213955      109.23669375940945
C           -3.93889062862583       55.16752720643935      110.03266602383455
C           -3.58988062727680       53.77207645585930      109.88431659298986
C           -4.08284461746495       53.13220083492871      110.98430840565284
C           -4.76535126731404       54.13761236050402      111.76794860230905
C           -5.40845044035800       53.90236205243225      112.96645471260325
H           -5.33208523869356       52.91135326429487      113.38382329634905
C           -7.60966236609574       57.97052056789828      114.30759730023942
H           -8.16544152639055       58.28647050033262      115.17587925308329
C           -5.92650745622373       60.14758391642280      110.36560392258944
H           -5.99428387190447       61.13600199907933      109.94219210935253
C           -3.52849388818300       56.16602963668281      109.16927617446393
H           -2.86004410581445       55.87405529657834      108.37493466145398
C           -8.16462534661332       55.97520683021525      116.57830949808121
H           -8.20076003827915       55.09080688241820      117.20538378118536
H           -9.18534766010023       56.24558058572325      116.31332358475071
H           -7.74249984832044       56.79373844527374      117.15855395341882
C           -6.61294016359663       53.27923852499482      115.70413644091313
H           -5.61681241415405       52.85924156113953      115.59238761265385
H           -7.32937149753128       52.55995698243896      115.30915303857120
H           -6.81036449671094       53.41112406808490      116.76245931349416
C           -8.80713039823277       60.74150281368433      114.43512716361852
H           -8.39322271992494       60.46952020158388      115.40366406002310
H           -9.80325188598574       60.30292235915257      114.35919752678853
H           -8.90276047576407       61.81901930310807      114.41350044340831
C           -7.75821240400990       62.18212920391034      111.65175554561887
H           -7.13426532663630       62.45446143505026      110.80820484073294
C           -8.64214152511171       63.07997321566693      112.07346925333526
H           -8.71362111185831       64.04676047342339      111.60639116281367
H           -9.34056177861520       62.89684223764890      112.86612107283720
C           -4.10586621529095       61.02684499768977      108.08780413029920
H           -4.13279873262690       61.77161305319871      108.88090541720189
H           -4.94448730069296       61.21984274034001      107.41814217628578
H           -3.18546424467704       61.16432141944628      107.53226869815202
C           -2.41282188597121       58.31581772966499      107.35208156422929
H           -1.79659752933008       57.44766953535626      107.55255286992244
C           -2.13686030619634       59.04266837003597      106.27388581970241
H           -2.71673506401925       59.89255359019668      105.96020183590713
H           -1.31637363619672       58.78068962647698      105.62866560978276
C           -2.91176219783411       53.18950805649908      108.69727945263644
H           -1.87661729537552       53.51684597625425      108.62279728283288
H           -3.42535999215763       53.49888094353872      107.78776293831484
H           -2.92811750491075       52.10559548490438      108.74319812006958
C           -3.99394387766773       51.68732052886105      111.31769122346103
H           -3.10024616984929       51.24933538816230      110.88369594781506
H           -4.85924635763116       51.15408000038090      110.92417548373277
H           -3.96412219346580       51.53030407916616      112.39148594071487
O           -4.13291708159949       57.59091933111363      113.12549903336392
H           -4.42606779269811       57.38051738718833      114.03649411150766
H           -3.46308537051237       58.29884130392816      113.11123923481767
C           -8.94372152831285       54.79570567270110      107.64411044524147
H           -9.20318523045190       55.45712900161851      106.82008252528718
H           -9.82056548816457       54.19872822578090      107.88536259014737
H           -8.15189339843740       54.13044859147691      107.31639614805468
N           -9.21939419657835       56.49026631264083      109.49065079596014
H          -10.16270077990658       56.76847143071360      109.26366098385606
C           -8.47236937325878       55.56149906423519      108.81922872304537
C           -8.47082498956548       56.98717658697575      110.49571486837283
H           -8.81617737169221       57.72159041734314      111.19111110884688
N           -7.27432905648263       56.43129161698694      110.50382703834644
C           -7.26805206507457       55.53713001266502      109.47244618904151
H           -6.41233797380774       54.93169440337634      109.26458916065562
78
 energy: -115.683617530024 gnorm: 0.018489570712 xtb: 6.7.1 (edcfbbe)
Fe          -5.68597060860928       57.02064508391580      111.67233398583041
N           -6.42101378030745       56.09391629450998      113.27909765095765
N           -6.63586738458606       58.71151179092571      112.19130510111026
N           -4.83874522716411       57.98173511895936      110.11413406788856
N           -4.70339323111213       55.35370913442478      111.15586973816757
C           -6.15373898819774       54.81892608333010      113.67596441404008
C           -6.74063031187887       54.56026730849824      114.97300754741038
C           -7.37747508381030       55.70476087820980      115.34465134446660
C           -7.16229864331825       56.65870557139620      114.27818306460546
C           -7.40498879197772       58.90225760406496      113.30524901030320
C           -7.95715910361223       60.23271298548900      113.32385798664892
C           -7.52479178206407       60.85440732080590      112.17451861413241
C           -6.67299911897880       59.88448837570129      111.49752969264122
C           -5.03541403627796       59.28385326218338      109.76290523786332
C           -4.17999555632664       59.65037083123654      108.66010823699190
C           -3.46748713970855       58.52534341406574      108.32946412262190
C           -3.92031129321836       57.48657435761314      109.24255076528910
C           -3.95799567764987       55.16785360972334      110.02997910776443
C           -3.60259319280539       53.77275922781235      109.88445369662878
C           -4.09602695200240       53.13119072451870      110.98041311362000
C           -4.78545902317197       54.13476400723213      111.76250228579659
C           -5.42362532299893       53.88948577257418      112.96119932195865
H           -5.34496837230992       52.89751653354813      113.37699376999865
C           -7.62543980378602       57.95845999277170      114.29665251865578
H           -8.20572043891666       58.26185688348517      115.15423488032930
C           -5.92573017237286       60.15337627937559      110.36749906086902
H           -6.00477239870136       61.13567034286762      109.93164171410008
C           -3.53939245197676       56.16132347364868      109.16581558128718
H           -2.87669753734989       55.86622666922300      108.36725541547838
C           -8.16538028084492       55.97649655228696      116.57551736401849
H           -8.20091546331025       55.09589556732112      117.21013697801924
H           -9.18721788325973       56.25057681644113      116.31607275314069
H           -7.73195565514704       56.79639701163167      117.14714794438649
C           -6.62409428491631       53.27463733535279      115.70991492062242
H           -5.62246863912056       52.86235037992896      115.61094992871529
H           -7.33272049834199       52.54546020433222      115.31622900574739
H           -6.83229218485961       53.41279203868177      116.76715009829842
C           -8.80183866014326       60.73583026555154      114.43887176853936
H           -8.38309919939414       60.43498663295951      115.39888923587878
H           -9.81111340026601       60.32447617517886      114.36572585290349
H           -8.86796249944340       61.81851892600071      114.43278735987946
C           -7.75864027208296       62.18801412392503      111.66038615434053
H           -7.11374424131414       62.47429614348044      110.83817871591010
C           -8.66914258673159       63.08014907962973      112.05565945939213
H           -8.73123329030301       64.04405794217077      111.58252160831869
H           -9.38034920036453       62.90587387108079      112.84000780501782
C           -4.10041629965260       61.02158447916568      108.09794854339272
H           -4.14448566038912       61.76563990057106      108.89195787164789
H           -4.93193975870302       61.20424918298924      107.41560529048020
H           -3.17094919365928       61.15952271671722      107.55513425131061
C           -2.41954939456891       58.31264450575198      107.35415522754920
H           -1.77722378643234       57.46746148486169      107.56533010332974
C           -2.16210889400603       59.03596136066142      106.26211121375289
H           -2.75551236606599       59.87453134325300      105.94749567667500
H           -1.32022431323925       58.79249808170509      105.63524426926261
C           -2.89925801807355       53.19604910016631      108.70815283750063
H           -1.86541208231831       53.53503763315308      108.65549318222011
H           -3.40050291812836       53.49957468816687      107.78907544188634
H           -2.90441535952946       52.11093566595735      108.75621326465252
C           -3.99683475928001       51.68737936241097      111.31868593029419
H           -3.10296449600140       51.25229930200516      110.87928918824896
H           -4.86272766182956       51.14676631657647      110.93370403807627
H           -3.95713925578853       51.53684127702347      112.39389537056472
O           -4.06738645299877       57.59856119821454      113.10375921038860
H           -4.32413991060770       57.39818516164154      114.01216085884064
H           -3.42258770175173       58.32300284256480      113.09951706149113
C           -8.94296432896453       54.79662349879015      107.65049936865321