=== VTIGHT OPTIMIZATION (q=1, m=2) ===
Command: xtb 1a2f_system_protonated.xyz --opt vtight --gfn 2 --input 1a2f_xtb_opt_q1_m2_20260112_134538.inp
================================================================================

      -----------------------------------------------------------      
     |                   =====================                   |     
     |                           x T B                           |     
     |                   =====================                   |     
     |                         S. Grimme                         |     
     |          Mulliken Center for Theoretical Chemistry        |     
     |                    University of Bonn                     |     
      -----------------------------------------------------------      

   * xtb version 6.7.1 (edcfbbe) compiled by 'conda@c0858423619e' on 2025-09-04

   xtb is free software: you can redistribute it and/or modify it under
   the terms of the GNU Lesser General Public License as published by
   the Free Software Foundation, either version 3 of the License, or
   (at your option) any later version.
   
   xtb is distributed in the hope that it will be useful,
   but WITHOUT ANY WARRANTY; without even the implied warranty of
   MERCHANTABILITY or FITNESS FOR A PARTICULAR PURPOSE.  See the
   GNU Lesser General Public License for more details.
   
   Cite this work as:
   * C. Bannwarth, E. Caldeweyher, S. Ehlert, A. Hansen, P. Pracht,
     J. Seibert, S. Spicher, S. Grimme, WIREs Comput. Mol. Sci., 2020, 11,
     e01493. DOI: 10.1002/wcms.1493
   
   for GFN2-xTB:
   * C. Bannwarth, S. Ehlert and S. Grimme., J. Chem. Theory Comput., 2019,
     15, 1652-1671. DOI: 10.1021/acs.jctc.8b01176
   for GFN1-xTB:
   * S. Grimme, C. Bannwarth, P. Shushkov, J. Chem. Theory Comput., 2017,
     13, 1989-2009. DOI: 10.1021/acs.jctc.7b00118
   for GFN0-xTB:
   * P. Pracht, E. Caldeweyher, S. Ehlert, S. Grimme, ChemRxiv, 2019, preprint.
     DOI: 10.26434/chemrxiv.8326202.v1
   for GFN-FF:
   * S. Spicher and S. Grimme, Angew. Chem. Int. Ed., 2020, 59, 15665-15673.
     DOI: 10.1002/anie.202004239
   
   for ALPB and GBSA implicit solvation:
   * S. Ehlert, M. Stahn, S. Spicher, S. Grimme, J. Chem. Theory Comput.,
     2021, 17, 4250-4261. DOI: 10.1021/acs.jctc.1c00471
   
   for ddCOSMO and CPCM-X implicit solvation:
   * M. Stahn, S. Ehlert, S. Grimme, J. Phys. Chem. A,
     2023, XX, XXXX-XXXX. DOI: 10.1021/acs.jpca.3c04382
   
   for DFT-D4:
   * E. Caldeweyher, C. Bannwarth and S. Grimme, J. Chem. Phys., 2017,
     147, 034112. DOI: 10.1063/1.4993215
   * E. Caldeweyher, S. Ehlert, A. Hansen, H. Neugebauer, S. Spicher,
     C. Bannwarth and S. Grimme, J. Chem. Phys., 2019, 150, 154122.
     DOI: 10.1063/1.5090222
   * E. Caldeweyher, J.-M. Mewes, S. Ehlert and S. Grimme, Phys. Chem. Chem. Phys.
     2020, 22, 8499-8512. DOI: 10.1039/D0CP00502A
   
   for sTDA-xTB:
   * S. Grimme and C. Bannwarth, J. Chem. Phys., 2016, 145, 054103.
     DOI: 10.1063/1.4959605
   
   in the mass-spec context:
   * V. Asgeirsson, C. Bauer and S. Grimme, Chem. Sci., 2017, 8, 4879.
     DOI: 10.1039/c7sc00601b
   * J. Koopman and S. Grimme, ACS Omega 2019, 4, 12, 15120-15133.
     DOI: 10.1021/acsomega.9b02011
   
   for metadynamics refer to:
   * S. Grimme, J. Chem. Theory Comput., 2019, 155, 2847-2862
     DOI: 10.1021/acs.jctc.9b00143
   
   for SPH calculations refer to:
   * S. Spicher and S. Grimme, J. Chem. Theory Comput., 2021, 17, 1701-1714
     DOI: 10.1021/acs.jctc.0c01306
   
   for ONIOM refer to:
   * C. Plett, A. Katbashev, S. Ehlert, S. Grimme, M. Bursch,
     Phys. Chem. Chem. Phys., 2023, 25, 17860-17868. DOI: 10.1039/D3CP02178E
   
   for DIPRO refer to:
   * J. Kohn, N. Gildemeister, S. Grimme, D. Fazzi, A. Hansen,
     J. Chem. Phys., 2023, just accepted.
   
   for PTB refer to:
   * S. Grimme, M. Mueller, A. Hansen, J. Chem. Phys., 2023, 158, 124111.
     DOI: 10.1063/5.0137838
   
   with help from (in alphabetical order)
   P. Atkinson, C. Bannwarth, F. Bohle, G. Brandenburg, E. Caldeweyher
   M. Checinski, S. Dohm, S. Ehlert, S. Ehrlich, I. Gerasimov, C. Hölzer
   A. Katbashev, J. Kohn, J. Koopman, C. Lavigne, S. Lehtola, F. März, M. Müller,
   F. Musil, H. Neugebauer, J. Pisarek, C. Plett, P. Pracht, F. Pultar,
   J. Seibert, P. Shushkov, S. Spicher, M. Stahn, M. Steiner, T. Strunk,
   J. Stückrath, T. Rose, and J. Unsleber
   
 * started run on 2026/01/12 at 13:46:46.371     
   ID    Z sym.   atoms
    1   26 Fe     1
    2    7 N      2-5, 71, 76
    3    6 C      6-22, 24, 26, 28, 30, 34, 38, 42, 44, 47, 51, 53, 56, 60,
                  67, 73, 74, 77
    4    1 H      23, 25, 27, 29, 31-33, 35-37, 39-41, 43, 45, 46, 48-50, 52,
                  54, 55, 57-59, 61-63, 65, 66, 68-70, 72, 75, 78
    5    8 O      64

           -------------------------------------------------
          |                Calculation Setup                |
           -------------------------------------------------

          program call               : xtb 1a2f_system_protonated.xyz --opt vtight --gfn 2 --input 1a2f_xtb_opt_q1_m2_20260112_134538.inp
          coordinate file            : 1a2f_system_protonated.xyz
          omp threads                :                    32


molecular fragmentation (1/2 indicates fragments):
111111111111111111111111111111111111111111111111111111111111111112222222
222222
# atoms in fragment 1/2:    65    13
 fragment masses (1/2) :      517.42       83.11
CMA distance (Bohr)    :   7.018
constraining FC (au)   :  0.0500

           -------------------------------------------------
          |                 G F N 2 - x T B                 |
           -------------------------------------------------

        Reference                      10.1021/acs.jctc.8b01176
      * Hamiltonian:
        H0-scaling (s, p, d)           1.850000    2.230000    2.230000
        zeta-weighting                 0.500000
      * Dispersion:
        s8                             2.700000
        a1                             0.520000
        a2                             5.000000
        s9                             5.000000
      * Repulsion:
        kExp                           1.500000    1.000000
        rExp                           1.000000
      * Coulomb:
        alpha                          2.000000
        third order                    shell-resolved
        anisotropic                    true
        a3                             3.000000
        a5                             4.000000
        cn-shift                       1.200000
        cn-exp                         4.000000
        max-rad                        5.000000


          ...................................................
          :                      SETUP                      :
          :.................................................:
          :  # basis functions                 210          :
          :  # atomic orbitals                 209          :
          :  # shells                          121          :
          :  # electrons                       215          :
          :  max. iterations                   250          :
          :  Hamiltonian                  GFN2-xTB          :
          :  restarted?                      false          :
          :  GBSA solvation                  false          :
          :  PC potential                    false          :
          :  electronic temp.          300.0000000     K    :
          :  accuracy                    1.0000000          :
          :  -> integral cutoff          0.2500000E+02      :
          :  -> integral neglect         0.1000000E-07      :
          :  -> SCF convergence          0.1000000E-05 Eh   :
          :  -> wf. convergence          0.1000000E-03 e    :
          :  Broyden damping             0.4000000          :
          :  net charge                          1          :
          :  unpaired electrons                  1          :
          ...................................................

 iter      E             dE          RMSdq      gap      omega  full diag
   1   -117.2310709 -0.117231E+03  0.397E+00    1.33       0.0  T
   2   -117.3562497 -0.125179E+00  0.260E+00    1.05       1.0  T
   3   -117.2454388  0.110811E+00  0.245E+00    1.38       1.0  T
   4   -115.0491614  0.219628E+01  0.517E+00    0.05       1.0  T
   5   -117.3152815 -0.226612E+01  0.124E+00    1.50       1.0  T
   6   -117.2801579  0.351235E-01  0.927E-01    1.30       1.0  T
   7   -117.3957485 -0.115591E+00  0.338E-01    1.43       1.0  T
   8   -117.3979876 -0.223905E-02  0.143E-01    1.44       1.0  T
   9   -117.3994126 -0.142497E-02  0.108E-01    1.45       1.0  T
  10   -117.3997566 -0.344066E-03  0.698E-02    1.45       1.0  T
  11   -117.3990957  0.660951E-03  0.978E-02    1.45       1.0  T
  12   -117.3997693 -0.673624E-03  0.480E-02    1.45       1.0  T
  13   -117.3998054 -0.361281E-04  0.389E-02    1.45       1.0  T
  14   -117.3998979 -0.924844E-04  0.182E-02    1.44       1.0  T
  15   -117.3999105 -0.126247E-04  0.984E-03    1.44       1.2  T
  16   -117.3999130 -0.241892E-05  0.606E-03    1.44       1.9  T
  17   -117.3999140 -0.108389E-05  0.225E-03    1.44       5.0  T
  18   -117.3999140  0.182748E-07  0.236E-03    1.44       4.8  T
  19   -117.3999142 -0.168113E-06  0.766E-04    1.44      14.8  T
  20   -117.3999142 -0.294248E-07  0.292E-04    1.44      38.7  T

   *** convergence criteria satisfied after 20 iterations ***

         #    Occupation            Energy/Eh            Energy/eV
      -------------------------------------------------------------
         1        2.0000           -0.8276126             -22.5205
       ...           ...                  ...                  ...
       102        2.0000           -0.4615792             -12.5602
       103        2.0000           -0.4540777             -12.3561
       104        2.0000           -0.4496752             -12.2363
       105        1.9912           -0.4418053             -12.0221
       106        1.7817           -0.4385236             -11.9328
       107        1.6513           -0.4379054             -11.9160
       108        1.5758           -0.4376023             -11.9078 (HOMO)
       109                         -0.3848509             -10.4723 (LUMO)
       110                         -0.3835210             -10.4361
       111                         -0.3779949             -10.2858
       112                         -0.3550238              -9.6607
       113                         -0.3439610              -9.3597
       ...                                ...                  ...
       209                          1.1448749              31.1536
      -------------------------------------------------------------
                  HL-Gap            0.0527513 Eh            1.4354 eV
             Fermi-level           -0.4241457 Eh          -11.5416 eV

 SCC (total)                   0 d,  0 h,  0 min,  0.528 sec
 SCC setup                      ...        0 min,  0.001 sec (  0.203%)
 Dispersion                     ...        0 min,  0.003 sec (  0.657%)
 classical contributions        ...        0 min,  0.001 sec (  0.229%)
 integral evaluation            ...        0 min,  0.009 sec (  1.726%)
 iterations                     ...        0 min,  0.477 sec ( 90.258%)
 molecular gradient             ...        0 min,  0.025 sec (  4.732%)
 printout                       ...        0 min,  0.012 sec (  2.185%)

         :::::::::::::::::::::::::::::::::::::::::::::::::::::
         ::                     SUMMARY                     ::
         :::::::::::::::::::::::::::::::::::::::::::::::::::::
         :: total energy            -115.578372282039 Eh    ::
         :: gradient norm              0.363546089574 Eh/a0 ::
         :: HOMO-LUMO gap              1.435437035359 eV    ::
         ::.................................................::
         :: SCC energy              -117.397334477431 Eh    ::
         :: -> isotropic ES            0.079862507417 Eh    ::
         :: -> anisotropic ES          0.016942666050 Eh    ::
         :: -> anisotropic XC          0.064740339240 Eh    ::
         :: -> dispersion             -0.099184555855 Eh    ::
         :: repulsion energy           1.818962195392 Eh    ::
         :: add. restraining           0.000000000000 Eh    ::
         :: total charge               1.000000000473 e     ::
         :::::::::::::::::::::::::::::::::::::::::::::::::::::

      ----------------------------------------------------------- 
     |                   =====================                   |
     |                        A N C O P T                        |
     |                   =====================                   |
     |               Approximate Normal Coordinate               |
     |                Rational Function Optimizer                |
      ----------------------------------------------------------- 
      ----------------------------------------------------------- 
     |                   =====================                   |
     |                        A N C O P T                        |
     |                   =====================                   |
     |               Approximate Normal Coordinate               |
     |                Rational Function Optimizer                |
      ----------------------------------------------------------- 

          ...................................................
          :                      SETUP                      :
          :.................................................:
          :   optimization level         verytight          :
          :   max. optcycles                  1560          :
          :   ANC micro-cycles                  20          :
          :   degrees of freedom               228          :
          :.................................................:
          :   RF solver                   davidson          :
          :   write xtbopt.log                true          :
          :   linear?                        false          :
          :   energy convergence         0.1000000E-06 Eh   :
          :   grad. convergence          0.2000000E-03 Eh/α :
          :   maxmium RF displ.          1.0000000          :
          :   Hlow (freq-cutoff)         0.1000000E-01      :
          :   Hmax (freq-cutoff)         5.0000000          :
          :   S6 in model hess.         20.0000000          :
          ...................................................

generating ANC from exact Hessian ...
Using Lindh-Hessian (1995)
 Shifting diagonal of input Hessian by    9.8687391763346184E-003
 Lowest  eigenvalues of input Hessian
    0.000000    0.000000    0.000000    0.000000    0.000000    0.000000
    0.010000    0.010038    0.010144    0.010185    0.010247    0.010355
    0.010416    0.010505    0.010601    0.010707    0.011090    0.011191
 Highest eigenvalues
    2.196738    2.212487    2.226904    2.241958    2.315459    2.359594


........................................................................
.............................. CYCLE    1 ..............................
........................................................................

 iter      E             dE          RMSdq      gap      omega  full diag
   1   -117.3999142 -0.117400E+03  0.186E-04    1.44       0.0  T
   2   -117.3999142  0.242881E-07  0.695E-04    1.44      16.3  T
   3   -117.3999142 -0.214975E-07  0.241E-04    1.44      47.0  T
     SCC iter.                  ...        0 min,  0.073 sec
     gradient                   ...        0 min,  0.033 sec
 * total energy  :  -115.5783723 Eh     change       -0.1578712E-08 Eh
   gradient norm :     0.3635425 Eh/α   predicted     0.0000000E+00 (-100.00%)
   displ. norm   :     0.3898929 α      lambda       -0.1118324E+00
   maximum displ.:     0.1372129 α      in ANC's #138, #160, #117, ...

........................................................................
.............................. CYCLE    2 ..............................
........................................................................

 iter      E             dE          RMSdq      gap      omega  full diag
   1   -117.4763386 -0.117476E+03  0.485E-01    1.45       0.0  T
   2   -117.3797724  0.965662E-01  0.118E+00    1.59       1.0  T
   3   -117.4717766 -0.920041E-01  0.393E-01    1.33       1.0  T
   4   -117.4795881 -0.781151E-02  0.231E-01    1.49       1.0  T
   5   -117.4808330 -0.124497E-02  0.160E-01    1.54       1.0  T
   6   -117.4669773  0.138557E-01  0.442E-01    1.66       1.0  T
   7   -117.4797566 -0.127793E-01  0.198E-01    1.61       1.0  T
   8   -117.4811101 -0.135347E-02  0.115E-01    1.57       1.0  T
   9   -117.4811232 -0.130965E-04  0.396E-02    1.57       1.0  T
  10   -117.4811070  0.162161E-04  0.605E-02    1.56       1.0  T
  11   -117.4811309 -0.238843E-04  0.259E-02    1.57       1.0  T
  12   -117.4811503 -0.194186E-04  0.159E-02    1.57       1.0  T
  13   -117.4811650 -0.146779E-04  0.632E-03    1.57       1.8  T
  14   -117.4811658 -0.795681E-06  0.546E-03    1.57       2.1  T
  15   -117.4811668 -0.106410E-05  0.309E-03    1.58       3.7  T
  16   -117.4811672 -0.386388E-06  0.175E-03    1.58       6.5  T
  17   -117.4811674 -0.165342E-06  0.484E-04    1.58      23.4  T
  18   -117.4811674 -0.157891E-08  0.185E-04    1.58      61.3  T
     SCC iter.                  ...        0 min,  0.472 sec
     gradient                   ...        0 min,  0.025 sec
 * total energy  :  -115.6567738 Eh     change       -0.7840152E-01 Eh
   gradient norm :     0.1462202 Eh/α   predicted    -0.6442646E-01 ( -17.82%)
   displ. norm   :     0.3730201 α      lambda       -0.3364372E-01
   maximum displ.:     0.0993195 α      in ANC's #117, #20, #41, ...

........................................................................
.............................. CYCLE    3 ..............................
........................................................................

 iter      E             dE          RMSdq      gap      omega  full diag
   1   -117.5295748 -0.117530E+03  0.364E-01    1.58       0.0  T
   2   -117.4752008  0.543739E-01  0.958E-01    1.74       1.0  T
   3   -117.5272177 -0.520169E-01  0.282E-01    1.50       1.0  T
   4   -117.5314598 -0.424210E-02  0.175E-01    1.62       1.0  T
   5   -117.5318007 -0.340870E-03  0.120E-01    1.64       1.0  T
   6   -117.5270543  0.474638E-02  0.267E-01    1.74       1.0  T
   7   -117.5317626 -0.470829E-02  0.926E-02    1.69       1.0  T
   8   -117.5319209 -0.158276E-03  0.377E-02    1.67       1.0  T
   9   -117.5319070  0.138990E-04  0.261E-02    1.66       1.0  T
  10   -117.5319256 -0.186500E-04  0.201E-02    1.66       1.0  T
  11   -117.5319352 -0.957367E-05  0.829E-03    1.67       1.4  T
  12   -117.5319376 -0.237190E-05  0.413E-03    1.67       2.7  T
  13   -117.5319381 -0.515669E-06  0.293E-03    1.67       3.9  T
  14   -117.5319385 -0.439489E-06  0.201E-03    1.67       5.6  T
  15   -117.5319386 -0.982840E-07  0.107E-03    1.67      10.5  T
  16   -117.5319387 -0.443589E-07  0.281E-04    1.67      40.3  T
  17   -117.5319387 -0.496878E-08  0.608E-05    1.67     186.1  T
     SCC iter.                  ...        0 min,  0.444 sec
     gradient                   ...        0 min,  0.031 sec
 * total energy  :  -115.6759535 Eh     change       -0.1917970E-01 Eh
   gradient norm :     0.0466452 Eh/α   predicted    -0.1916251E-01 (  -0.09%)
   displ. norm   :     0.4544853 α      lambda       -0.7324886E-02
   maximum displ.:     0.1968455 α      in ANC's #33, #20, #9, ...

........................................................................
.............................. CYCLE    4 ..............................
........................................................................

 iter      E             dE          RMSdq      gap      omega  full diag
   1   -117.5246252 -0.117525E+03  0.223E-01    1.67       0.0  T
   2   -117.5203284  0.429682E-02  0.400E-01    1.74       1.0  T
   3   -117.5241001 -0.377166E-02  0.218E-01    1.63       1.0  T
   4   -117.5250410 -0.940970E-03  0.843E-02    1.68       1.0  T
   5   -117.5240067  0.103438E-02  0.156E-01    1.73       1.0  T
   6   -117.5251828 -0.117611E-02  0.241E-02    1.68       1.0  T
   7   -117.5251989 -0.161326E-04  0.988E-03    1.69       1.1  T
   8   -117.5252061 -0.718677E-05  0.302E-03    1.69       3.8  T
   9   -117.5252059  0.185149E-06  0.281E-03    1.69       4.0  T
  10   -117.5252061 -0.227747E-06  0.166E-03    1.69       6.8  T
  11   -117.5252062 -0.374517E-07  0.377E-04    1.69      30.0  T
  12   -117.5252062 -0.105725E-07  0.146E-04    1.69      77.6  T
     SCC iter.                  ...        0 min,  0.315 sec
     gradient                   ...        0 min,  0.031 sec
 * total energy  :  -115.6810565 Eh     change       -0.5103023E-02 Eh
   gradient norm :     0.0289027 Eh/α   predicted    -0.4419049E-02 ( -13.40%)
   displ. norm   :     0.4347198 α      lambda       -0.3706988E-02
   maximum displ.:     0.1733627 α      in ANC's #9, #20, #41, ...

........................................................................
.............................. CYCLE    5 ..............................
........................................................................

 iter      E             dE          RMSdq      gap      omega  full diag
   1   -117.5252876 -0.117525E+03  0.131E-01    1.70       0.0  T
   2   -117.5252539  0.337135E-04  0.111E-01    1.71       1.0  T
   3   -117.5251654  0.885334E-04  0.110E-01    1.68       1.0  T
   4   -117.5250729  0.924724E-04  0.104E-01    1.72       1.0  T
   5   -117.5253089 -0.236001E-03  0.204E-02    1.69       1.0  T
   6   -117.5253288 -0.198798E-04  0.696E-03    1.70       1.6  T
   7   -117.5253294 -0.658177E-06  0.211E-03    1.70       5.4  T
   8   -117.5253294  0.115836E-07  0.127E-03    1.70       8.9  T
   9   -117.5253296 -0.136804E-06  0.128E-03    1.70       8.8  T
  10   -117.5253296 -0.368941E-07  0.178E-04    1.70      63.6  T
  11   -117.5253296 -0.115665E-08  0.834E-05    1.70     135.8  T
     SCC iter.                  ...        0 min,  0.294 sec
     gradient                   ...        0 min,  0.031 sec
 * total energy  :  -115.6836175 Eh     change       -0.2561006E-02 Eh
   gradient norm :     0.0184882 Eh/α   predicted    -0.2203866E-02 ( -13.95%)
   displ. norm   :     0.4870255 α      lambda       -0.2488929E-02
   maximum displ.:     0.2124719 α      in ANC's #9, #20, #6, ...

........................................................................
.............................. CYCLE    6 ..............................
........................................................................

 iter      E             dE          RMSdq      gap      omega  full diag
   1   -117.5252202 -0.117525E+03  0.162E-01    1.71       0.0  T
   2   -117.5251556  0.645569E-04  0.118E-01    1.70       1.0  T
   3   -117.5252035 -0.478555E-04  0.859E-02    1.71       1.0  T
   4   -117.5249838  0.219636E-03  0.154E-01    1.68       1.0  T
   5   -117.5253079 -0.324058E-03  0.173E-02    1.70       1.0  T
   6   -117.5253406 -0.326813E-04  0.612E-03    1.70       1.9  T
   7   -117.5253410 -0.390716E-06  0.785E-03    1.70       1.4  T
   8   -117.5253433 -0.236208E-05  0.274E-03    1.70       4.1  T
   9   -117.5253435 -0.180140E-06  0.596E-04    1.70      19.0  T
  10   -117.5253435  0.287268E-08  0.418E-04    1.70      27.1  T
     SCC iter.                  ...        0 min,  0.249 sec
     gradient                   ...        0 min,  0.030 sec
 * total energy  :  -115.6848774 Eh     change       -0.1259901E-02 Eh
   gradient norm :     0.0267678 Eh/α   predicted    -0.1539660E-02 (  22.20%)
   displ. norm   :     0.4347129 α      lambda       -0.2376677E-02
   maximum displ.:     0.2094538 α      in ANC's #9, #20, #15, ...

........................................................................
.............................. CYCLE    7 ..............................
........................................................................

 iter      E             dE          RMSdq      gap      omega  full diag
   1   -117.5364268 -0.117536E+03  0.142E-01    1.69       0.0  T
   2   -117.5358439  0.582962E-03  0.165E-01    1.67       1.0  T
   3   -117.5362982 -0.454355E-03  0.145E-01    1.70       1.0  T
   4   -117.5361174  0.180846E-03  0.671E-02    1.69       1.0  T
   5   -117.5366056 -0.488195E-03  0.222E-02    1.69       1.0  T
   6   -117.5366467 -0.411437E-04  0.139E-02    1.69       1.0  T
   7   -117.5366506 -0.383730E-05  0.349E-03    1.69       3.2  T
   8   -117.5366508 -0.210376E-06  0.207E-03    1.69       5.5  T
   9   -117.5366509 -0.122099E-06  0.119E-03    1.69       9.5  T
  10   -117.5366509 -0.393230E-07  0.453E-04    1.69      25.0  T
  11   -117.5366509 -0.100738E-07  0.356E-04    1.69      31.8  T
     SCC iter.                  ...        0 min,  0.261 sec
     gradient                   ...        0 min,  0.029 sec
 * total energy  :  -115.6854700 Eh     change       -0.5925617E-03 Eh
   gradient norm :     0.0312264 Eh/α   predicted    -0.1412906E-02 ( 138.44%)
   displ. norm   :     0.3307583 α      lambda       -0.2223922E-02
   maximum displ.:     0.1806586 α      in ANC's #15, #33, #9, ...

........................................................................
.............................. CYCLE    8 ..............................
........................................................................

 iter      E             dE          RMSdq      gap      omega  full diag
   1   -117.5370886 -0.117537E+03  0.116E-01    1.69       0.0  T
   2   -117.5370527  0.359041E-04  0.802E-02    1.69       1.0  T
   3   -117.5369751  0.775917E-04  0.766E-02    1.69       1.0  T
   4   -117.5368355  0.139584E-03  0.118E-01    1.70       1.0  T
   5   -117.5371207 -0.285180E-03  0.140E-02    1.69       1.0  T
   6   -117.5371372 -0.165439E-04  0.406E-03    1.69       2.8  T
   7   -117.5371374 -0.158559E-06  0.402E-03    1.69       2.8  T
   8   -117.5371381 -0.713199E-06  0.215E-03    1.69       5.3  T
   9   -117.5371382 -0.789531E-07  0.859E-04    1.69      13.2  T
  10   -117.5371382 -0.107038E-07  0.667E-04    1.69      17.0  T
     SCC iter.                  ...        0 min,  0.261 sec
     gradient                   ...        0 min,  0.031 sec
 * total energy  :  -115.6863474 Eh     change       -0.8773671E-03 Eh
   gradient norm :     0.0257757 Eh/α   predicted    -0.1233611E-02 (  40.60%)
   displ. norm   :     0.2443027 α      lambda       -0.1375714E-02
   maximum displ.:     0.1141695 α      in ANC's #9, #48, #3, ...

........................................................................
.............................. CYCLE    9 ..............................
........................................................................

 iter      E             dE          RMSdq      gap      omega  full diag
   1   -117.5368950 -0.117537E+03  0.723E-02    1.70       0.0  T
   2   -117.5368233  0.717249E-04  0.685E-02    1.71       1.0  T
   3   -117.5367688  0.544566E-04  0.946E-02    1.69       1.0  T
   4   -117.5368379 -0.691414E-04  0.352E-02    1.70       1.0  T
   5   -117.5369117 -0.737731E-04  0.729E-03    1.70       1.6  T
   6   -117.5369144 -0.272794E-05  0.403E-03    1.70       2.8  T
   7   -117.5369147 -0.237444E-06  0.195E-03    1.70       5.8  T
   8   -117.5369148 -0.957695E-07  0.688E-04    1.70      16.4  T
   9   -117.5369148 -0.450363E-08  0.348E-04    1.70      32.6  T
     SCC iter.                  ...        0 min,  0.240 sec
     gradient                   ...        0 min,  0.029 sec
 * total energy  :  -115.6872458 Eh     change       -0.8984566E-03 Eh
   gradient norm :     0.0126139 Eh/α   predicted    -0.7289146E-03 ( -18.87%)
   displ. norm   :     0.4093755 α      lambda       -0.9795956E-03
   maximum displ.:     0.1689018 α      in ANC's #9, #4, #3, ...

........................................................................
.............................. CYCLE   10 ..............................
........................................................................

 iter      E             dE          RMSdq      gap      omega  full diag
   1   -117.5354108 -0.117535E+03  0.110E-01    1.71       0.0  T
   2   -117.5354113 -0.543336E-06  0.668E-02    1.71       1.0  T
   3   -117.5353445  0.668314E-04  0.596E-02    1.70       1.0  T
   4   -117.5353734 -0.289352E-04  0.484E-02    1.72       1.0  T
   5   -117.5354170 -0.435548E-04  0.804E-03    1.71       1.4  T
   6   -117.5354192 -0.215626E-05  0.202E-03    1.71       5.6  T
   7   -117.5354193 -0.170591E-06  0.132E-03    1.71       8.6  T
   8   -117.5354194 -0.465955E-07  0.659E-04    1.71      17.2  T
   9   -117.5354194 -0.105775E-07  0.170E-04    1.71      66.6  T
     SCC iter.                  ...        0 min,  0.225 sec
     gradient                   ...        0 min,  0.031 sec
 * total energy  :  -115.6879602 Eh     change       -0.7143485E-03 Eh
   gradient norm :     0.0125848 Eh/α   predicted    -0.5718841E-03 ( -19.94%)
   displ. norm   :     0.5512665 α      lambda       -0.1155931E-02
   maximum displ.:     0.2153894 α      in ANC's #9, #4, #24, ...

........................................................................
.............................. CYCLE   11 ..............................
........................................................................

 iter      E             dE          RMSdq      gap      omega  full diag
   1   -117.5350098 -0.117535E+03  0.141E-01    1.72       0.0  T
   2   -117.5350123 -0.249089E-05  0.875E-02    1.72       1.0  T
   3   -117.5349288  0.835573E-04  0.915E-02    1.73       1.0  T
   4   -117.5349120  0.167303E-04  0.821E-02    1.70       1.0  T
   5   -117.5350217 -0.109651E-03  0.632E-03    1.72       1.8  T
   6   -117.5350232 -0.151294E-05  0.225E-03    1.72       5.0  T
   7   -117.5350233 -0.123829E-06  0.189E-03    1.72       6.0  T
   8   -117.5350234 -0.874530E-07  0.154E-03    1.72       7.3  T
   9   -117.5350235 -0.710086E-07  0.473E-04    1.72      24.0  T
  10   -117.5350235 -0.729447E-08  0.112E-04    1.72     101.4  T
     SCC iter.                  ...        0 min,  0.253 sec
     gradient                   ...        0 min,  0.033 sec
 * total energy  :  -115.6887174 Eh     change       -0.7572693E-03 Eh
   gradient norm :     0.0152587 Eh/α   predicted    -0.7536075E-03 (  -0.48%)
   displ. norm   :     0.4865674 α      lambda       -0.9471902E-03
   maximum displ.:     0.2079099 α      in ANC's #4, #9, #3, ...

........................................................................
.............................. CYCLE   12 ..............................
........................................................................

 iter      E             dE          RMSdq      gap      omega  full diag
   1   -117.5358554 -0.117536E+03  0.120E-01    1.72       0.0  T
   2   -117.5358397  0.157044E-04  0.810E-02    1.72       1.0  T
   3   -117.5357546  0.851395E-04  0.909E-02    1.73       1.0  T
   4   -117.5357388  0.157109E-04  0.935E-02    1.71       1.0  T
   5   -117.5358716 -0.132774E-03  0.862E-03    1.73       1.3  T
   6   -117.5358776 -0.598860E-05  0.256E-03    1.72       4.4  T
   7   -117.5358779 -0.273942E-06  0.249E-03    1.73       4.5  T
   8   -117.5358780 -0.170501E-06  0.160E-03    1.72       7.1  T
   9   -117.5358781 -0.538745E-07  0.708E-04    1.72      16.0  T
  10   -117.5358781 -0.156621E-07  0.170E-04    1.72      66.7  T
     SCC iter.                  ...        0 min,  0.252 sec
     gradient                   ...        0 min,  0.030 sec
 * total energy  :  -115.6892970 Eh     change       -0.5795810E-03 Eh
   gradient norm :     0.0113796 Eh/α   predicted    -0.5857205E-03 (   1.06%)
   displ. norm   :     0.3594475 α      lambda       -0.5745696E-03
   maximum displ.:     0.1825924 α      in ANC's #4, #6, #7, ...

........................................................................
.............................. CYCLE   13 ..............................
........................................................................

 iter      E             dE          RMSdq      gap      omega  full diag
   1   -117.5394766 -0.117539E+03  0.886E-02    1.73       0.0  T
   2   -117.5394719  0.467793E-05  0.552E-02    1.73       1.0  T
   3   -117.5393912  0.806730E-04  0.522E-02    1.73       1.0  T
   4   -117.5394207 -0.295001E-04  0.550E-02    1.74       1.0  T
   5   -117.5394836 -0.628527E-04  0.542E-03    1.73       2.1  T
   6   -117.5394854 -0.177419E-05  0.209E-03    1.73       5.4  T
   7   -117.5394855 -0.159261E-06  0.141E-03    1.73       8.1  T
   8   -117.5394856 -0.570869E-07  0.454E-04    1.73      25.0  T
   9   -117.5394856 -0.568070E-08  0.135E-04    1.73      83.8  T
     SCC iter.                  ...        0 min,  0.234 sec
     gradient                   ...        0 min,  0.032 sec
 * total energy  :  -115.6896298 Eh     change       -0.3327909E-03 Eh
   gradient norm :     0.0107678 Eh/α   predicted    -0.3244072E-03 (  -2.52%)
   displ. norm   :     0.3958998 α      lambda       -0.5332428E-03
   maximum displ.:     0.2156605 α      in ANC's #4, #6, #3, ...

........................................................................
.............................. CYCLE   14 ..............................
........................................................................

 iter      E             dE          RMSdq      gap      omega  full diag
   1   -117.5388542 -0.117539E+03  0.106E-01    1.74       0.0  T
   2   -117.5388238  0.303973E-04  0.744E-02    1.72       1.0  T
   3   -117.5384584  0.365331E-03  0.145E-01    1.75       1.0  T
   4   -117.5388041 -0.345649E-03  0.474E-02    1.73       1.0  T
   5   -117.5388625 -0.584447E-04  0.105E-02    1.73       1.1  T
   6   -117.5388696 -0.705214E-05  0.291E-03    1.73       3.9  T
   7   -117.5388698 -0.260266E-06  0.137E-03    1.73       8.3  T
   8   -117.5388699 -0.143298E-07  0.129E-03    1.73       8.8  T
   9   -117.5388699 -0.343761E-07  0.431E-04    1.73      26.3  T
  10   -117.5388699 -0.402586E-08  0.217E-04    1.73      52.2  T
     SCC iter.                  ...        0 min,  0.231 sec
     gradient                   ...        0 min,  0.031 sec
 * total energy  :  -115.6898902 Eh     change       -0.2603763E-03 Eh
   gradient norm :     0.0116456 Eh/α   predicted    -0.3084120E-03 (  18.45%)
   displ. norm   :     0.2797243 α      lambda       -0.4988980E-03
   maximum displ.:     0.1603130 α      in ANC's #4, #7, #6, ...

........................................................................
.............................. CYCLE   15 ..............................
........................................................................

 iter      E             dE          RMSdq      gap      omega  full diag
   1   -117.5483637 -0.117548E+03  0.643E-02    1.73       0.0  T
   2   -117.5483629  0.794875E-06  0.455E-02    1.73       1.0  T
   3   -117.5483650 -0.204390E-05  0.307E-02    1.73       1.0  T
   4   -117.5483212  0.437196E-04  0.467E-02    1.74       1.0  T
   5   -117.5483715 -0.502454E-04  0.456E-03    1.73       2.5  T
   6   -117.5483728 -0.135373E-05  0.201E-03    1.73       5.6  T
   7   -117.5483731 -0.286450E-06  0.115E-03    1.73       9.8  T
   8   -117.5483732 -0.339828E-07  0.480E-04    1.73      23.6  T
   9   -117.5483732 -0.195679E-08  0.174E-04    1.73      65.2  T
     SCC iter.                  ...        0 min,  0.231 sec
     gradient                   ...        0 min,  0.032 sec
 * total energy  :  -115.6900493 Eh     change       -0.1590915E-03 Eh
   gradient norm :     0.0146100 Eh/α   predicted    -0.2689694E-03 (  69.07%)
   displ. norm   :     0.3060699 α      lambda       -0.5626639E-03
   maximum displ.:     0.1612515 α      in ANC's #4, #6, #12, ...

........................................................................
.............................. CYCLE   16 ..............................
........................................................................

 iter      E             dE          RMSdq      gap      omega  full diag
   1   -117.5429864 -0.117543E+03  0.776E-02    1.73       0.0  T
   2   -117.5429778  0.858109E-05  0.499E-02    1.73       1.0  T
   3   -117.5429040  0.738308E-04  0.546E-02    1.73       1.0  T
   4   -117.5429377 -0.336675E-04  0.537E-02    1.74       1.0  T
   5   -117.5429961 -0.584118E-04  0.560E-03    1.73       2.0  T
   6   -117.5429984 -0.232820E-05  0.232E-03    1.73       4.9  T
   7   -117.5429986 -0.255163E-06  0.112E-03    1.73      10.1  T
   8   -117.5429987 -0.923554E-08  0.718E-04    1.73      15.8  T
   9   -117.5429987 -0.153873E-07  0.203E-04    1.73      55.8  T
     SCC iter.                  ...        0 min,  0.209 sec
     gradient                   ...        0 min,  0.029 sec
 * total energy  :  -115.6902775 Eh     change       -0.2282333E-03 Eh
   gradient norm :     0.0129104 Eh/α   predicted    -0.3076923E-03 (  34.81%)
   displ. norm   :     0.1963874 α      lambda       -0.3937003E-03
   maximum displ.:     0.0947775 α      in ANC's #4, #7, #10, ...

........................................................................
.............................. CYCLE   17 ..............................
........................................................................

 iter      E             dE          RMSdq      gap      omega  full diag
   1   -117.5459994 -0.117546E+03  0.401E-02    1.73       0.0  T
   2   -117.5459787  0.207215E-04  0.406E-02    1.73       1.0  T
   3   -117.5459756  0.309597E-05  0.455E-02    1.74       1.0  T
   4   -117.5459971 -0.215590E-04  0.156E-02    1.73       1.0  T
   5   -117.5460029 -0.571532E-05  0.795E-03    1.73       1.4  T
   6   -117.5460063 -0.340063E-05  0.124E-03    1.73       9.1  T
   7   -117.5460063 -0.223906E-07  0.929E-04    1.73      12.2  T
   8   -117.5460063 -0.328948E-07  0.455E-04    1.73      24.9  T
     SCC iter.                  ...        0 min,  0.199 sec
     gradient                   ...        0 min,  0.031 sec
 * total energy  :  -115.6904317 Eh     change       -0.1542295E-03 Eh
   gradient norm :     0.0138203 Eh/α   predicted    -0.2044465E-03 (  32.56%)
   displ. norm   :     0.3030698 α      lambda       -0.5114417E-03
   maximum displ.:     0.1821027 α      in ANC's #4, #7, #12, ...

........................................................................
.............................. CYCLE   18 ..............................
........................................................................

 iter      E             dE          RMSdq      gap      omega  full diag
   1   -117.5396800 -0.117540E+03  0.763E-02    1.73       0.0  T
   2   -117.5396177  0.622730E-04  0.720E-02    1.71       1.0  T
   3   -117.5395359  0.817815E-04  0.972E-02    1.74       1.0  T
   4   -117.5396786 -0.142721E-03  0.311E-02    1.73       1.0  T
   5   -117.5396891 -0.104842E-04  0.943E-03    1.73       1.2  T
   6   -117.5396919 -0.279325E-05  0.176E-03    1.73       6.4  T
   7   -117.5396921 -0.230753E-06  0.964E-04    1.73      11.7  T
   8   -117.5396922 -0.614450E-07  0.392E-04    1.73      28.9  T
     SCC iter.                  ...        0 min,  0.215 sec
     gradient                   ...        0 min,  0.032 sec
 * total energy  :  -115.6906208 Eh     change       -0.1890583E-03 Eh
   gradient norm :     0.0111842 Eh/α   predicted    -0.2792108E-03 (  47.69%)
   displ. norm   :     0.2589082 α      lambda       -0.4055260E-03
   maximum displ.:     0.1421212 α      in ANC's #4, #7, #12, ...

........................................................................
.............................. CYCLE   19 ..............................
........................................................................

 iter      E             dE          RMSdq      gap      omega  full diag
   1   -117.5418105 -0.117542E+03  0.464E-02    1.73       0.0  T
   2   -117.5418012  0.927302E-05  0.310E-02    1.73       1.0  T
   3   -117.5417799  0.213201E-04  0.299E-02    1.72       1.0  T
   4   -117.5417808 -0.920987E-06  0.414E-02    1.73       1.0  T
   5   -117.5418143 -0.335310E-04  0.667E-03    1.73       1.7  T
   6   -117.5418213 -0.699362E-05  0.238E-03    1.72       4.8  T
   7   -117.5418214 -0.119945E-06  0.110E-03    1.73      10.3  T
   8   -117.5418215 -0.321568E-07  0.442E-04    1.73      25.6  T
   9   -117.5418215 -0.764406E-08  0.200E-04    1.73      56.5  T
     SCC iter.                  ...        0 min,  0.203 sec
     gradient                   ...        0 min,  0.030 sec
 * total energy  :  -115.6908737 Eh     change       -0.2528554E-03 Eh
   gradient norm :     0.0093409 Eh/α   predicted    -0.2163561E-03 ( -14.43%)
   displ. norm   :     0.4109375 α      lambda       -0.3873583E-03
   maximum displ.:     0.2352683 α      in ANC's #4, #7, #12, ...

........................................................................
.............................. CYCLE   20 ..............................
........................................................................

 iter      E             dE          RMSdq      gap      omega  full diag
   1   -117.5430717 -0.117543E+03  0.721E-02    1.73       0.0  T
   2   -117.5430484  0.232886E-04  0.514E-02    1.72       1.0  T
   3   -117.5428679  0.180538E-03  0.999E-02    1.74       1.0  T
   4   -117.5430465 -0.178623E-03  0.284E-02    1.72       1.0  T
   5   -117.5430777 -0.311330E-04  0.927E-03    1.73       1.2  T
   6   -117.5430864 -0.876536E-05  0.174E-03    1.73       6.5  T
   7   -117.5430865 -0.819260E-07  0.110E-03    1.73      10.3  T
   8   -117.5430865 -0.462776E-08  0.442E-04    1.73      25.6  T
   9   -117.5430865 -0.217840E-08  0.281E-04    1.73      40.2  T
     SCC iter.                  ...        0 min,  0.201 sec
     gradient                   ...        0 min,  0.031 sec
 * total energy  :  -115.6910795 Eh     change       -0.2058650E-03 Eh
   gradient norm :     0.0075716 Eh/α   predicted    -0.2263898E-03 (   9.97%)
   displ. norm   :     0.3784245 α      lambda       -0.2678724E-03
   maximum displ.:     0.2277709 α      in ANC's #4, #7, #12, ...
 * RMSD in coord.:     0.5875208 α      energy gain  -0.1127072E+00 Eh

generating ANC from exact Hessian ...
Using Lindh-Hessian (1995)
 Shifting diagonal of input Hessian by    9.8346477079644685E-003
 Lowest  eigenvalues of input Hessian
    0.000000    0.000000    0.000000    0.000000    0.000000    0.000000
    0.010000    0.010042    0.010178    0.010327    0.010414    0.010475
    0.010526    0.010563    0.010829    0.010861    0.011200    0.011932
 Highest eigenvalues
    2.103597    2.129326    2.137334    2.142591    2.143014    2.190494


........................................................................
.............................. CYCLE   21 ..............................
........................................................................

 iter      E             dE          RMSdq      gap      omega  full diag
   1   -117.5407917 -0.117541E+03  0.556E-02    1.73       0.0  T
   2   -117.5407754  0.163209E-04  0.408E-02    1.72       1.0  T
   3   -117.5406606  0.114821E-03  0.824E-02    1.74       1.0  T
   4   -117.5407725 -0.111896E-03  0.202E-02    1.73       1.0  T
   5   -117.5407958 -0.232554E-04  0.737E-03    1.73       1.5  T
   6   -117.5408007 -0.496459E-05  0.158E-03    1.72       7.2  T
   7   -117.5408008 -0.557212E-07  0.947E-04    1.73      12.0  T
   8   -117.5408008 -0.504480E-08  0.335E-04    1.73      33.8  T
     SCC iter.                  ...        0 min,  0.208 sec
     gradient                   ...        0 min,  0.029 sec
 * total energy  :  -115.6912702 Eh     change       -0.1907106E-03 Eh
   gradient norm :     0.0066885 Eh/α   predicted     0.0000000E+00 (-100.00%)
   displ. norm   :     0.0745782 α      lambda       -0.1445834E-03
   maximum displ.:     0.0388248 α      in ANC's #8, #36, #28, ...

........................................................................
.............................. CYCLE   22 ..............................
........................................................................

 iter      E             dE          RMSdq      gap      omega  full diag
   1   -117.5435758 -0.117544E+03  0.211E-02    1.73       0.0  T
   2   -117.5435424  0.334336E-04  0.408E-02    1.72       1.0  T
   3   -117.5435803 -0.379490E-04  0.131E-02    1.73       1.0  T
   4   -117.5435758  0.453168E-05  0.127E-02    1.73       1.0  T
   5   -117.5435804 -0.459338E-05  0.250E-03    1.73       4.5  T
   6   -117.5435809 -0.573254E-06  0.132E-03    1.73       8.6  T
   7   -117.5435810 -0.791574E-07  0.849E-04    1.73      13.3  T
   8   -117.5435810 -0.211997E-07  0.190E-04    1.73      59.5  T
     SCC iter.                  ...        0 min,  0.224 sec
     gradient                   ...        0 min,  0.031 sec
 * total energy  :  -115.6913836 Eh     change       -0.1133519E-03 Eh
   gradient norm :     0.0024594 Eh/α   predicted    -0.7457879E-04 ( -34.21%)
   displ. norm   :     0.1580317 α      lambda       -0.1593965E-03
   maximum displ.:     0.0878754 α      in ANC's #8, #28, #16, ...

........................................................................
.............................. CYCLE   23 ..............................
........................................................................

 iter      E             dE          RMSdq      gap      omega  full diag
   1   -117.5461749 -0.117546E+03  0.350E-02    1.73       0.0  T
   2   -117.5461194  0.554762E-04  0.551E-02    1.72       1.0  T
   3   -117.5461768 -0.573592E-04  0.289E-02    1.73       1.0  T
   4   -117.5461787 -0.193972E-05  0.151E-02    1.73       1.0  T
   5   -117.5461825 -0.379154E-05  0.410E-03    1.73       2.8  T
   6   -117.5461844 -0.187848E-05  0.172E-03    1.73       6.6  T
   7   -117.5461845 -0.125757E-06  0.126E-03    1.73       9.0  T
   8   -117.5461846 -0.461234E-07  0.245E-04    1.73      46.2  T
   9   -117.5461846 -0.439891E-08  0.105E-04    1.73     108.2  T
     SCC iter.                  ...        0 min,  0.229 sec
     gradient                   ...        0 min,  0.030 sec
 * total energy  :  -115.6914966 Eh     change       -0.1130491E-03 Eh
   gradient norm :     0.0031025 Eh/α   predicted    -0.8169115E-04 ( -27.74%)
   displ. norm   :     0.1854782 α      lambda       -0.1140047E-03
   maximum displ.:     0.1049856 α      in ANC's #8, #28, #2, ...

........................................................................
.............................. CYCLE   24 ..............................
........................................................................

 iter      E             dE          RMSdq      gap      omega  full diag
   1   -117.5465223 -0.117547E+03  0.355E-02    1.74       0.0  T
   2   -117.5465088  0.134332E-04  0.326E-02    1.73       1.0  T
   3   -117.5464928  0.160674E-04  0.437E-02    1.74       1.0  T
   4   -117.5465239 -0.311094E-04  0.137E-02    1.73       1.0  T
   5   -117.5465249 -0.102736E-05  0.349E-03    1.73       3.2  T
   6   -117.5465265 -0.154651E-05  0.102E-03    1.73      11.1  T
   7   -117.5465265 -0.591832E-07  0.963E-04    1.73      11.8  T
   8   -117.5465265 -0.280032E-07  0.183E-04    1.73      61.9  T
     SCC iter.                  ...        0 min,  0.216 sec
     gradient                   ...        0 min,  0.022 sec
 * total energy  :  -115.6915872 Eh     change       -0.9054384E-04 Eh
   gradient norm :     0.0041967 Eh/α   predicted    -0.5896349E-04 ( -34.88%)
   displ. norm   :     0.2742157 α      lambda       -0.1460958E-03
   maximum displ.:     0.1543198 α      in ANC's #8, #28, #2, ...

........................................................................
.............................. CYCLE   25 ..............................
........................................................................

 iter      E             dE          RMSdq      gap      omega  full diag
   1   -117.5450797 -0.117545E+03  0.483E-02    1.73       0.0  T
   2   -117.5450799 -0.125862E-06  0.296E-02    1.73       1.0  T
   3   -117.5450719  0.799683E-05  0.227E-02    1.74       1.0  T
   4   -117.5450622  0.963126E-05  0.294E-02    1.73       1.0  T
   5   -117.5450823 -0.201109E-04  0.393E-03    1.73       2.9  T
   6   -117.5450839 -0.151706E-05  0.117E-03    1.74       9.7  T
   7   -117.5450839 -0.271493E-07  0.105E-03    1.74      10.8  T
   8   -117.5450840 -0.688901E-07  0.298E-04    1.74      38.0  T
   9   -117.5450840 -0.202584E-08  0.750E-05    1.74     151.0  T
     SCC iter.                  ...        0 min,  0.223 sec
     gradient                   ...        0 min,  0.031 sec
 * total energy  :  -115.6917002 Eh     change       -0.1130612E-03 Eh
   gradient norm :     0.0040391 Eh/α   predicted    -0.7854128E-04 ( -30.53%)
   displ. norm   :     0.3024986 α      lambda       -0.1447201E-03
   maximum displ.:     0.1709522 α      in ANC's #8, #2, #28, ...

........................................................................
.............................. CYCLE   26 ..............................
........................................................................

 iter      E             dE          RMSdq      gap      omega  full diag
   1   -117.5428787 -0.117543E+03  0.504E-02    1.73       0.0  T
   2   -117.5428526  0.261123E-04  0.461E-02    1.74       1.0  T
   3   -117.5428118  0.408005E-04  0.676E-02    1.72       1.0  T
   4   -117.5428659 -0.541299E-04  0.219E-02    1.73       1.0  T
   5   -117.5428851 -0.191528E-04  0.492E-03    1.74       2.3  T
   6   -117.5428854 -0.372708E-06  0.185E-03    1.74       6.1  T
   7   -117.5428854  0.239740E-07  0.154E-03    1.73       7.3  T
   8   -117.5428855 -0.130602E-06  0.264E-04    1.74      42.9  T
   9   -117.5428855 -0.360892E-08  0.657E-05    1.74     172.4  T
     SCC iter.                  ...        0 min,  0.230 sec
     gradient                   ...        0 min,  0.032 sec
 * total energy  :  -115.6918080 Eh     change       -0.1077265E-03 Eh
   gradient norm :     0.0041819 Eh/α   predicted    -0.7898367E-04 ( -26.68%)
   displ. norm   :     0.2806977 α      lambda       -0.1399319E-03
   maximum displ.:     0.1569799 α      in ANC's #8, #2, #6, ...

........................................................................
.............................. CYCLE   27 ..............................
........................................................................

 iter      E             dE          RMSdq      gap      omega  full diag
   1   -117.5418172 -0.117542E+03  0.455E-02    1.73       0.0  T
   2   -117.5417527  0.645240E-04  0.599E-02    1.74       1.0  T
   3   -117.5418078 -0.551027E-04  0.408E-02    1.73       1.0  T
   4   -117.5417941  0.136528E-04  0.291E-02    1.73       1.0  T
   5   -117.5418254 -0.312590E-04  0.721E-03    1.73       1.6  T
   6   -117.5418275 -0.208144E-05  0.207E-03    1.74       5.5  T
   7   -117.5418276 -0.979725E-07  0.769E-04    1.73      14.7  T
   8   -117.5418276 -0.308465E-07  0.625E-04    1.73      18.1  T
     SCC iter.                  ...        0 min,  0.211 sec
     gradient                   ...        0 min,  0.027 sec
 * total energy  :  -115.6919137 Eh     change       -0.1057831E-03 Eh
   gradient norm :     0.0049456 Eh/α   predicted    -0.7548630E-04 ( -28.64%)
   displ. norm   :     0.2928002 α      lambda       -0.1532418E-03
   maximum displ.:     0.1578830 α      in ANC's #8, #2, #5, ...

........................................................................
.............................. CYCLE   28 ..............................
........................................................................

 iter      E             dE          RMSdq      gap      omega  full diag
   1   -117.5423042 -0.117542E+03  0.486E-02    1.73       0.0  T
   2   -117.5422155  0.886612E-04  0.716E-02    1.74       1.0  T
   3   -117.5422984 -0.829289E-04  0.411E-02    1.73       1.0  T
   4   -117.5423104 -0.119577E-04  0.218E-02    1.73       1.0  T
   5   -117.5423177 -0.729000E-05  0.347E-03    1.73       3.3  T
   6   -117.5423184 -0.734652E-06  0.205E-03    1.73       5.5  T
   7   -117.5423186 -0.206794E-06  0.719E-04    1.73      15.7  T
   8   -117.5423186 -0.854831E-08  0.328E-04    1.73      34.6  T
     SCC iter.                  ...        0 min,  0.201 sec
     gradient                   ...        0 min,  0.032 sec
 * total energy  :  -115.6920259 Eh     change       -0.1121570E-03 Eh
   gradient norm :     0.0053796 Eh/α   predicted    -0.8319046E-04 ( -25.83%)
   displ. norm   :     0.3096515 α      lambda       -0.1287037E-03
   maximum displ.:     0.1645515 α      in ANC's #8, #2, #5, ...

........................................................................
.............................. CYCLE   29 ..............................
........................................................................

 iter      E             dE          RMSdq      gap      omega  full diag
   1   -117.5428111 -0.117543E+03  0.506E-02    1.73       0.0  T
   2   -117.5427888  0.222910E-04  0.504E-02    1.74       1.0  T
   3   -117.5427848  0.399690E-05  0.486E-02    1.73       1.0  T
   4   -117.5428094 -0.245575E-04  0.286E-02    1.74       1.0  T
   5   -117.5428184 -0.908043E-05  0.317E-03    1.73       3.6  T
   6   -117.5428189 -0.432056E-06  0.155E-03    1.73       7.3  T
   7   -117.5428190 -0.951387E-07  0.711E-04    1.73      15.9  T
   8   -117.5428190  0.436309E-08  0.553E-04    1.73      20.5  T
     SCC iter.                  ...        0 min,  0.195 sec
     gradient                   ...        0 min,  0.030 sec
 * total energy  :  -115.6921228 Eh     change       -0.9693391E-04 Eh
   gradient norm :     0.0047749 Eh/α   predicted    -0.7052307E-04 ( -27.25%)
   displ. norm   :     0.2979012 α      lambda       -0.1265993E-03
   maximum displ.:     0.1489475 α      in ANC's #8, #2, #5, ...

........................................................................
.............................. CYCLE   30 ..............................
........................................................................

 iter      E             dE          RMSdq      gap      omega  full diag
   1   -117.5454280 -0.117545E+03  0.515E-02    1.73       0.0  T
   2   -117.5454270  0.103757E-05  0.398E-02    1.73       1.0  T
   3   -117.5454300 -0.302628E-05  0.253E-02    1.73       1.0  T
   4   -117.5453963  0.336921E-04  0.443E-02    1.74       1.0  T
   5   -117.5454337 -0.373560E-04  0.295E-03    1.73       3.8  T
   6   -117.5454339 -0.257687E-06  0.126E-03    1.73       9.0  T
   7   -117.5454340 -0.474809E-07  0.525E-04    1.73      21.6  T
   8   -117.5454340  0.661386E-08  0.318E-04    1.73      35.6  T
     SCC iter.                  ...        0 min,  0.213 sec
     gradient                   ...        0 min,  0.031 sec
 * total energy  :  -115.6922137 Eh     change       -0.9090569E-04 Eh
   gradient norm :     0.0032132 Eh/α   predicted    -0.6893622E-04 ( -24.17%)
   displ. norm   :     0.4368681 α      lambda       -0.1146088E-03
   maximum displ.:     0.2315713 α      in ANC's #8, #2, #5, ...

........................................................................
.............................. CYCLE   31 ..............................
........................................................................

 iter      E             dE          RMSdq      gap      omega  full diag
   1   -117.5427056 -0.117543E+03  0.687E-02    1.74       0.0  T
   2   -117.5427051  0.503761E-06  0.456E-02    1.73       1.0  T
   3   -117.5427030  0.214298E-05  0.347E-02    1.74       1.0  T
   4   -117.5426818  0.211419E-04  0.459E-02    1.73       1.0  T
   5   -117.5427153 -0.334223E-04  0.400E-03    1.74       2.8  T
   6   -117.5427155 -0.213503E-06  0.159E-03    1.73       7.1  T
   7   -117.5427155 -0.214080E-07  0.674E-04    1.73      16.8  T
   8   -117.5427155 -0.217645E-08  0.219E-04    1.73      51.7  T
     SCC iter.                  ...        0 min,  0.205 sec
     gradient                   ...        0 min,  0.025 sec
 * total energy  :  -115.6922721 Eh     change       -0.5840101E-04 Eh
   gradient norm :     0.0048895 Eh/α   predicted    -0.6824153E-04 (  16.85%)
   displ. norm   :     0.1905145 α      lambda       -0.1287180E-03
   maximum displ.:     0.0870402 α      in ANC's #2, #5, #8, ...

........................................................................
.............................. CYCLE   32 ..............................
........................................................................

 iter      E             dE          RMSdq      gap      omega  full diag
   1   -117.5476429 -0.117548E+03  0.387E-02    1.74       0.0  T
   2   -117.5476211  0.217705E-04  0.393E-02    1.73       1.0  T
   3   -117.5476152  0.595378E-05  0.465E-02    1.74       1.0  T
   4   -117.5476454 -0.302351E-04  0.154E-02    1.74       1.0  T
   5   -117.5476477 -0.232863E-05  0.295E-03    1.74       3.8  T
   6   -117.5476480 -0.326693E-06  0.183E-03    1.74       6.2  T
   7   -117.5476482 -0.172458E-06  0.536E-04    1.74      21.1  T
   8   -117.5476482 -0.239230E-08  0.396E-04    1.74      28.6  T
     SCC iter.                  ...        0 min,  0.195 sec
     gradient                   ...        0 min,  0.023 sec
 * total energy  :  -115.6923378 Eh     change       -0.6563833E-04 Eh
   gradient norm :     0.0034757 Eh/α   predicted    -0.6671587E-04 (   1.64%)
   displ. norm   :     0.1961044 α      lambda       -0.4702733E-04
   maximum displ.:     0.0929162 α      in ANC's #8, #2, #5, ...

........................................................................
.............................. CYCLE   33 ..............................
........................................................................

 iter      E             dE          RMSdq      gap      omega  full diag
   1   -117.5464824 -0.117546E+03  0.295E-02    1.74       0.0  T
   2   -117.5464819  0.432351E-06  0.199E-02    1.74       1.0  T
   3   -117.5464752  0.672110E-05  0.263E-02    1.73       1.0  T
   4   -117.5464752  0.305823E-07  0.193E-02    1.74       1.0  T
   5   -117.5464838 -0.861957E-05  0.139E-03    1.74       8.1  T
   6   -117.5464839 -0.646895E-07  0.608E-04    1.74      18.6  T
   7   -117.5464839  0.219094E-08  0.345E-04    1.74      32.9  T
     SCC iter.                  ...        0 min,  0.183 sec
     gradient                   ...        0 min,  0.026 sec
 * total energy  :  -115.6923742 Eh     change       -0.3637901E-04 Eh
   gradient norm :     0.0026478 Eh/α   predicted    -0.2442457E-04 ( -32.86%)
   displ. norm   :     0.2321978 α      lambda       -0.6337766E-04
   maximum displ.:     0.1087796 α      in ANC's #2, #8, #5, ...

........................................................................
.............................. CYCLE   34 ..............................
........................................................................

 iter      E             dE          RMSdq      gap      omega  full diag
   1   -117.5453293 -0.117545E+03  0.362E-02    1.74       0.0  T
   2   -117.5453283  0.109012E-05  0.251E-02    1.74       1.0  T
   3   -117.5453187  0.958264E-05  0.306E-02    1.73       1.0  T
   4   -117.5453212 -0.251803E-05  0.255E-02    1.74       1.0  T
   5   -117.5453312 -0.100483E-04  0.452E-03    1.74       2.5  T
   6   -117.5453316 -0.342816E-06  0.803E-04    1.74      14.1  T
   7   -117.5453316  0.210078E-07  0.575E-04    1.74      19.7  T
     SCC iter.                  ...        0 min,  0.191 sec
     gradient                   ...        0 min,  0.030 sec
 * total energy  :  -115.6924150 Eh     change       -0.4079645E-04 Eh
   gradient norm :     0.0022525 Eh/α   predicted    -0.3340177E-04 ( -18.13%)
   displ. norm   :     0.1226502 α      lambda       -0.2596639E-04
   maximum displ.:     0.0607526 α      in ANC's #2, #5, #1, ...

........................................................................
.............................. CYCLE   35 ..............................
........................................................................

 iter      E             dE          RMSdq      gap      omega  full diag
   1   -117.5455634 -0.117546E+03  0.189E-02    1.74       0.0  T
   2   -117.5455634  0.847070E-07  0.124E-02    1.74       1.0  T
   3   -117.5455627  0.613337E-06  0.100E-02    1.74       1.1  T
   4   -117.5455606  0.213898E-05  0.138E-02    1.74       1.0  T
   5   -117.5455638 -0.321753E-05  0.274E-03    1.74       4.1  T
   6   -117.5455640 -0.201990E-06  0.402E-04    1.74      28.1  T
   7   -117.5455640  0.324107E-08  0.312E-04    1.74      36.3  T
     SCC iter.                  ...        0 min,  0.173 sec
     gradient                   ...        0 min,  0.031 sec
 * total energy  :  -115.6924344 Eh     change       -0.1945732E-04 Eh
   gradient norm :     0.0020413 Eh/α   predicted    -0.1318252E-04 ( -32.25%)
   displ. norm   :     0.1408973 α      lambda       -0.2764363E-04
   maximum displ.:     0.0729261 α      in ANC's #2, #1, #5, ...

........................................................................
.............................. CYCLE   36 ..............................
........................................................................

 iter      E             dE          RMSdq      gap      omega  full diag
   1   -117.5460273 -0.117546E+03  0.193E-02    1.74       0.0  T
   2   -117.5460272  0.138260E-06  0.121E-02    1.74       1.0  T
   3   -117.5460244  0.273799E-05  0.133E-02    1.74       1.0  T
   4   -117.5460245 -0.116292E-06  0.144E-02    1.73       1.0  T
   5   -117.5460276 -0.305732E-05  0.186E-03    1.74       6.1  T
   6   -117.5460278 -0.198079E-06  0.434E-04    1.74      26.1  T
   7   -117.5460278  0.518648E-08  0.411E-04    1.74      27.5  T
     SCC iter.                  ...        0 min,  0.196 sec
     gradient                   ...        0 min,  0.030 sec
 * total energy  :  -115.6924544 Eh     change       -0.2003893E-04 Eh
   gradient norm :     0.0013712 Eh/α   predicted    -0.1409858E-04 ( -29.64%)
   displ. norm   :     0.2314257 α      lambda       -0.2247586E-04
   maximum displ.:     0.1210040 α      in ANC's #2, #1, #5, ...

........................................................................
.............................. CYCLE   37 ..............................
........................................................................

 iter      E             dE          RMSdq      gap      omega  full diag
   1   -117.5462261 -0.117546E+03  0.280E-02    1.74       0.0  T
   2   -117.5462243  0.178034E-05  0.180E-02    1.73       1.0  T
   3   -117.5461613  0.630086E-04  0.503E-02    1.75       1.0  T
   4   -117.5462194 -0.581378E-04  0.111E-02    1.74       1.0  T
   5   -117.5462271 -0.766260E-05  0.247E-03    1.74       4.6  T
   6   -117.5462273 -0.153380E-06  0.775E-04    1.74      14.6  T
   7   -117.5462272  0.163541E-07  0.590E-04    1.74      19.2  T
     SCC iter.                  ...        0 min,  0.169 sec
     gradient                   ...        0 min,  0.030 sec
 * total energy  :  -115.6924750 Eh     change       -0.2051270E-04 Eh
   gradient norm :     0.0020945 Eh/α   predicted    -0.1150625E-04 ( -43.91%)
   displ. norm   :     0.0792035 α      lambda       -0.1920325E-04
   maximum displ.:     0.0407198 α      in ANC's #1, #2, #28, ...

........................................................................
.............................. CYCLE   38 ..............................
........................................................................

 iter      E             dE          RMSdq      gap      omega  full diag
   1   -117.5472899 -0.117547E+03  0.106E-02    1.74       0.0  T
   2   -117.5472889  0.109286E-05  0.959E-03    1.73       1.2  T
   3   -117.5472873  0.154567E-05  0.135E-02    1.74       1.0  T
   4   -117.5472900 -0.271356E-05  0.370E-03    1.74       3.1  T
   5   -117.5472902 -0.198515E-06  0.157E-03    1.74       7.2  T
   6   -117.5472904 -0.135838E-06  0.383E-04    1.74      29.6  T
   7   -117.5472904 -0.873143E-08  0.245E-04    1.74      46.2  T
     SCC iter.                  ...        0 min,  0.174 sec
     gradient                   ...        0 min,  0.029 sec
 * total energy  :  -115.6924885 Eh     change       -0.1348886E-04 Eh
   gradient norm :     0.0018119 Eh/α   predicted    -0.9662137E-05 ( -28.37%)
   displ. norm   :     0.3047023 α      lambda       -0.3386854E-04
   maximum displ.:     0.1603646 α      in ANC's #2, #1, #8, ...

........................................................................
.............................. CYCLE   39 ..............................
........................................................................

 iter      E             dE          RMSdq      gap      omega  full diag
   1   -117.5464345 -0.117546E+03  0.415E-02    1.74       0.0  T
   2   -117.5464300  0.455848E-05  0.291E-02    1.73       1.0  T
   3   -117.5463941  0.358558E-04  0.450E-02    1.74       1.0  T
   4   -117.5464334 -0.393232E-04  0.239E-02    1.73       1.0  T
   5   -117.5464379 -0.441233E-05  0.336E-03    1.73       3.4  T
   6   -117.5464381 -0.211531E-06  0.903E-04    1.73      12.5  T
   7   -117.5464380  0.246256E-07  0.992E-04    1.74      11.4  T
     SCC iter.                  ...        0 min,  0.189 sec
     gradient                   ...        0 min,  0.030 sec
 * total energy  :  -115.6925175 Eh     change       -0.2905751E-04 Eh
   gradient norm :     0.0018146 Eh/α   predicted    -0.1763446E-04 ( -39.31%)
   displ. norm   :     0.1704984 α      lambda       -0.2435737E-04
   maximum displ.:     0.0834156 α      in ANC's #1, #2, #28, ...

........................................................................
.............................. CYCLE   40 ..............................
........................................................................

 iter      E             dE          RMSdq      gap      omega  full diag
   1   -117.5468694 -0.117547E+03  0.306E-02    1.73       0.0  T
   2   -117.5468675  0.184321E-05  0.208E-02    1.73       1.0  T
   3   -117.5468495  0.180316E-04  0.310E-02    1.74       1.0  T
   4   -117.5468651 -0.155868E-04  0.213E-02    1.73       1.0  T
   5   -117.5468706 -0.548802E-05  0.223E-03    1.73       5.1  T
   6   -117.5468707 -0.165251E-06  0.495E-04    1.73      22.9  T
   7   -117.5468707 -0.983768E-08  0.379E-04    1.73      29.9  T
     SCC iter.                  ...        0 min,  0.169 sec
     gradient                   ...        0 min,  0.031 sec
 * total energy  :  -115.6925361 Eh     change       -0.1861159E-04 Eh
   gradient norm :     0.0023549 Eh/α   predicted    -0.1234024E-04 ( -33.70%)
   displ. norm   :     0.0947692 α      lambda       -0.2242885E-04
   maximum displ.:     0.0438440 α      in ANC's #1, #2, #8, ...

........................................................................
.............................. CYCLE   41 ..............................
........................................................................

 iter      E             dE          RMSdq      gap      omega  full diag
   1   -117.5465339 -0.117547E+03  0.192E-02    1.73       0.0  T
   2   -117.5465329  0.954625E-06  0.147E-02    1.73       1.0  T
   3   -117.5465312  0.169072E-05  0.156E-02    1.73       1.0  T
   4   -117.5465306  0.601017E-06  0.153E-02    1.74       1.0  T
   5   -117.5465344 -0.378322E-05  0.150E-03    1.73       7.6  T
   6   -117.5465345 -0.117227E-06  0.398E-04    1.73      28.4  T
   7   -117.5465345 -0.297511E-08  0.173E-04    1.73      65.5  T
     SCC iter.                  ...        0 min,  0.179 sec
     gradient                   ...        0 min,  0.032 sec
 * total energy  :  -115.6925538 Eh     change       -0.1768408E-04 Eh
   gradient norm :     0.0015546 Eh/α   predicted    -0.1131812E-04 ( -36.00%)
   displ. norm   :     0.2384162 α      lambda       -0.2768526E-04
   maximum displ.:     0.1092254 α      in ANC's #1, #2, #28, ...

........................................................................
.............................. CYCLE   42 ..............................
........................................................................

 iter      E             dE          RMSdq      gap      omega  full diag
   1   -117.5455813 -0.117546E+03  0.498E-02    1.73       0.0  T
   2   -117.5455735  0.779898E-05  0.379E-02    1.73       1.0  T
   3   -117.5455560  0.174427E-04  0.442E-02    1.72       1.0  T
   4   -117.5455649 -0.885611E-05  0.366E-02    1.73       1.0  T
   5   -117.5455847 -0.198518E-04  0.392E-03    1.73       2.9  T
   6   -117.5455857 -0.983629E-06  0.121E-03    1.73       9.4  T
   7   -117.5455858 -0.327608E-07  0.396E-04    1.73      28.6  T
   8   -117.5455858  0.212452E-09  0.308E-04    1.73      36.8  T
     SCC iter.                  ...        0 min,  0.206 sec
     gradient                   ...        0 min,  0.027 sec
 * total energy  :  -115.6925697 Eh     change       -0.1586137E-04 Eh
   gradient norm :     0.0020569 Eh/α   predicted    -0.1419661E-04 ( -10.50%)
   displ. norm   :     0.0286471 α      lambda       -0.1245807E-04
   maximum displ.:     0.0122333 α      in ANC's #15, #4, #5, ...
 * RMSD in coord.:     0.4432314 α      energy gain  -0.1490150E-02 Eh

generating ANC from exact Hessian ...
Using Lindh-Hessian (1995)
 Shifting diagonal of input Hessian by    9.8147857951079494E-003
 Lowest  eigenvalues of input Hessian
    0.000000    0.000000    0.000000    0.000000    0.000000    0.000000
    0.010000    0.010027    0.010152    0.010306    0.010410    0.010458
    0.010559    0.010631    0.010813    0.010849    0.011188    0.012019
 Highest eigenvalues
    2.112218    2.129886    2.138509    2.143080    2.144770    2.198561


........................................................................
.............................. CYCLE   43 ..............................
........................................................................

 iter      E             dE          RMSdq      gap      omega  full diag
   1   -117.5462284 -0.117546E+03  0.694E-03    1.73       0.0  T
   2   -117.5462284 -0.494119E-07  0.468E-03    1.73       2.4  T
   3   -117.5462277  0.744968E-06  0.747E-03    1.73       1.5  T
   4   -117.5462283 -0.633952E-06  0.356E-03    1.73       3.2  T
   5   -117.5462285 -0.209784E-06  0.436E-04    1.73      26.0  T
   6   -117.5462285 -0.147004E-08  0.221E-04    1.73      51.2  T
     SCC iter.                  ...        0 min,  0.157 sec
     gradient                   ...        0 min,  0.031 sec
 * total energy  :  -115.6925762 Eh     change       -0.6583477E-05 Eh
   gradient norm :     0.0013729 Eh/α   predicted     0.0000000E+00 (-100.00%)
   displ. norm   :     0.0227593 α      lambda       -0.1833620E-05
   maximum displ.:     0.0090558 α      in ANC's #15, #4, #11, ...

........................................................................
.............................. CYCLE   44 ..............................
........................................................................

 iter      E             dE          RMSdq      gap      omega  full diag
   1   -117.5464322 -0.117546E+03  0.654E-03    1.73       0.0  T
   2   -117.5464321  0.112706E-06  0.508E-03    1.73       2.2  T
   3   -117.5464318  0.260335E-06  0.573E-03    1.73       2.0  T
   4   -117.5464321 -0.302772E-06  0.405E-03    1.73       2.8  T
   5   -117.5464323 -0.186048E-06  0.596E-04    1.73      19.0  T
   6   -117.5464323 -0.229796E-07  0.303E-04    1.73      37.3  T
     SCC iter.                  ...        0 min,  0.154 sec
     gradient                   ...        0 min,  0.029 sec
 * total energy  :  -115.6925830 Eh     change       -0.6730514E-05 Eh
   gradient norm :     0.0005626 Eh/α   predicted    -0.3595755E-05 ( -46.58%)
   displ. norm   :     0.0444808 α      lambda       -0.7219793E-05
   maximum displ.:     0.0189678 α      in ANC's #4, #15, #11, ...

........................................................................
.............................. CYCLE   45 ..............................
........................................................................

 iter      E             dE          RMSdq      gap      omega  full diag
   1   -117.5465564 -0.117547E+03  0.991E-03    1.73       0.0  T
   2   -117.5465564  0.411725E-07  0.707E-03    1.73       1.6  T
   3   -117.5465562  0.134637E-06  0.603E-03    1.73       1.9  T
   4   -117.5465553  0.887825E-06  0.896E-03    1.73       1.3  T
   5   -117.5465566 -0.130249E-05  0.723E-04    1.73      15.7  T
   6   -117.5465567 -0.212042E-07  0.257E-04    1.73      44.0  T
   7   -117.5465567 -0.140220E-08  0.171E-04    1.73      66.2  T
     SCC iter.                  ...        0 min,  0.175 sec
     gradient                   ...        0 min,  0.033 sec
 * total energy  :  -115.6925886 Eh     change       -0.5574956E-05 Eh
   gradient norm :     0.0010550 Eh/α   predicted    -0.3626036E-05 ( -34.96%)
   displ. norm   :     0.0430086 α      lambda       -0.4901020E-05
   maximum displ.:     0.0189282 α      in ANC's #4, #11, #15, ...

........................................................................
.............................. CYCLE   46 ..............................
........................................................................

 iter      E             dE          RMSdq      gap      omega  full diag
   1   -117.5464124 -0.117546E+03  0.817E-03    1.73       0.0  T
   2   -117.5464123  0.122867E-06  0.578E-03    1.73       2.0  T
   3   -117.5464118  0.498259E-06  0.704E-03    1.73       1.6  T
   4   -117.5464119 -0.126697E-06  0.559E-03    1.73       2.0  T
   5   -117.5464125 -0.578727E-06  0.874E-04    1.73      13.0  T
   6   -117.5464126 -0.666326E-07  0.200E-04    1.73      56.7  T
     SCC iter.                  ...        0 min,  0.155 sec
     gradient                   ...        0 min,  0.030 sec
 * total energy  :  -115.6925937 Eh     change       -0.5126203E-05 Eh
   gradient norm :     0.0008792 Eh/α   predicted    -0.2456382E-05 ( -52.08%)
   displ. norm   :     0.0625107 α      lambda       -0.5158253E-05
   maximum displ.:     0.0280830 α      in ANC's #4, #2, #11, ...

........................................................................
.............................. CYCLE   47 ..............................
........................................................................

 iter      E             dE          RMSdq      gap      omega  full diag
   1   -117.5462446 -0.117546E+03  0.113E-02    1.73       0.0  T
   2   -117.5462437  0.945086E-06  0.956E-03    1.73       1.2  T
   3   -117.5462427  0.934289E-06  0.119E-02    1.73       1.0  T
   4   -117.5462441 -0.136949E-05  0.575E-03    1.73       2.0  T
   5   -117.5462448 -0.705263E-06  0.139E-03    1.73       8.2  T
   6   -117.5462451 -0.253910E-06  0.320E-04    1.73      35.4  T
   7   -117.5462451 -0.150114E-08  0.141E-04    1.73      80.4  T
     SCC iter.                  ...        0 min,  0.188 sec
     gradient                   ...        0 min,  0.030 sec
 * total energy  :  -115.6925995 Eh     change       -0.5845776E-05 Eh
   gradient norm :     0.0006228 Eh/α   predicted    -0.2590482E-05 ( -55.69%)
   displ. norm   :     0.0906867 α      lambda       -0.5860303E-05
   maximum displ.:     0.0407104 α      in ANC's #4, #2, #11, ...

........................................................................
.............................. CYCLE   48 ..............................
........................................................................

 iter      E             dE          RMSdq      gap      omega  full diag
   1   -117.5461638 -0.117546E+03  0.155E-02    1.73       0.0  T
   2   -117.5461625  0.126075E-05  0.120E-02    1.73       1.0  T
   3   -117.5461602  0.237796E-05  0.158E-02    1.73       1.0  T
   4   -117.5461625 -0.236226E-05  0.924E-03    1.73       1.2  T
   5   -117.5461642 -0.166653E-05  0.175E-03    1.73       6.5  T
   6   -117.5461645 -0.326062E-06  0.430E-04    1.73      26.3  T
   7   -117.5461645 -0.257957E-08  0.177E-04    1.73      63.8  T
     SCC iter.                  ...        0 min,  0.194 sec
     gradient                   ...        0 min,  0.022 sec
 * total energy  :  -115.6926055 Eh     change       -0.5923608E-05 Eh
   gradient norm :     0.0005393 Eh/α   predicted    -0.2942227E-05 ( -50.33%)
   displ. norm   :     0.0673742 α      lambda       -0.3328291E-05
   maximum displ.:     0.0293566 α      in ANC's #4, #2, #35, ...

........................................................................
.............................. CYCLE   49 ..............................
........................................................................

 iter      E             dE          RMSdq      gap      omega  full diag
   1   -117.5462598 -0.117546E+03  0.107E-02    1.73       0.0  T
   2   -117.5462594  0.489576E-06  0.739E-03    1.73       1.5  T
   3   -117.5462585  0.845072E-06  0.768E-03    1.73       1.5  T
   4   -117.5462588 -0.285377E-06  0.905E-03    1.73       1.3  T
   5   -117.5462601 -0.133126E-05  0.115E-03    1.73       9.9  T
   6   -117.5462603 -0.133126E-06  0.269E-04    1.73      42.1  T
   7   -117.5462603 -0.598547E-09  0.138E-04    1.73      81.8  T
     SCC iter.                  ...        0 min,  0.182 sec
     gradient                   ...        0 min,  0.023 sec
 * total energy  :  -115.6926090 Eh     change       -0.3533672E-05 Eh
   gradient norm :     0.0004882 Eh/α   predicted    -0.1671021E-05 ( -52.71%)
   displ. norm   :     0.0644484 α      lambda       -0.2934028E-05
   maximum displ.:     0.0295910 α      in ANC's #2, #4, #35, ...

........................................................................
.............................. CYCLE   50 ..............................
........................................................................

 iter      E             dE          RMSdq      gap      omega  full diag
   1   -117.5463972 -0.117546E+03  0.952E-03    1.73       0.0  T
   2   -117.5463967  0.504534E-06  0.747E-03    1.73       1.5  T
   3   -117.5463965  0.162445E-06  0.758E-03    1.73       1.5  T
   4   -117.5463965  0.108922E-08  0.763E-03    1.73       1.5  T
   5   -117.5463975 -0.946015E-06  0.965E-04    1.73      11.7  T
   6   -117.5463976 -0.904481E-07  0.218E-04    1.73      51.9  T
     SCC iter.                  ...        0 min,  0.147 sec
     gradient                   ...        0 min,  0.031 sec
 * total energy  :  -115.6926122 Eh     change       -0.3182613E-05 Eh
   gradient norm :     0.0004408 Eh/α   predicted    -0.1471114E-05 ( -53.78%)
   displ. norm   :     0.0602340 α      lambda       -0.2761498E-05
   maximum displ.:     0.0292811 α      in ANC's #2, #12, #15, ...

........................................................................
.............................. CYCLE   51 ..............................
........................................................................

 iter      E             dE          RMSdq      gap      omega  full diag
   1   -117.5464788 -0.117546E+03  0.916E-03    1.73       0.0  T
   2   -117.5464781  0.726606E-06  0.837E-03    1.73       1.4  T
   3   -117.5464784 -0.374326E-06  0.734E-03    1.73       1.5  T
   4   -117.5464785 -0.101193E-06  0.640E-03    1.73       1.8  T
   5   -117.5464791 -0.599200E-06  0.110E-03    1.73      10.3  T
   6   -117.5464793 -0.110160E-06  0.267E-04    1.73      42.5  T
   7   -117.5464793 -0.172247E-08  0.139E-04    1.73      81.4  T
     SCC iter.                  ...        0 min,  0.167 sec
[...]
       108        1.5243           -0.4395530             -11.9608 (HOMO)
       109                         -0.3761273             -10.2349 (LUMO)
       110                         -0.3759475             -10.2301
       111                         -0.3683051             -10.0221
       112                         -0.3375766              -9.1859
       113                         -0.3276540              -8.9159
       114                         -0.3248558              -8.8398
       115                         -0.2990270              -8.1369
       116                         -0.2902564              -7.8983
       117                         -0.2877445              -7.8299
       118                         -0.2718424              -7.3972
       119                         -0.2438697              -6.6360
       ...                                ...                  ...
       209                          1.1461586              31.1886
      -------------------------------------------------------------
                  HL-Gap            0.0634256 Eh            1.7259 eV
             Fermi-level           -0.4236504 Eh          -11.5281 eV

     #   Z          covCN         q      C6AA      α(0)
     1  26 Fe       4.166     0.613     5.117     7.297
     2   7 N        2.632    -0.218    25.762     7.538
     3   7 N        2.624    -0.231    26.070     7.583
     4   7 N        2.626    -0.226    25.942     7.565
     5   7 N        2.635    -0.210    25.582     7.512
     6   6 C        3.144     0.064    26.320     8.394
     7   6 C        3.058    -0.013    28.280     8.721
     8   6 C        3.056    -0.016    28.342     8.731
     9   6 C        3.144     0.058    26.455     8.416
    10   6 C        3.135     0.056    26.522     8.430
    11   6 C        3.052    -0.010    28.221     8.712
    12   6 C        3.063    -0.018    28.387     8.737
    13   6 C        3.131     0.061    26.424     8.416
    14   6 C        3.135     0.060    26.448     8.418
    15   6 C        3.053    -0.008    28.164     8.703
    16   6 C        3.063    -0.018    28.399     8.739
    17   6 C        3.133     0.062    26.407     8.412
    18   6 C        3.144     0.062    26.369     8.402
    19   6 C        3.057    -0.013    28.279     8.721
    20   6 C        3.057    -0.012    28.258     8.718
    21   6 C        3.145     0.065    26.301     8.391
    22   6 C        2.902    -0.061    29.522     8.909
    23   1 H        0.926     0.066     2.132     2.283
    24   6 C        2.902    -0.071    29.760     8.945
    25   1 H        0.926     0.061     2.185     2.311
    26   6 C        2.902    -0.065    29.622     8.924
    27   1 H        0.926     0.060     2.195     2.317
    28   6 C        2.901    -0.066    29.645     8.927
    29   1 H        0.926     0.062     2.180     2.309
    30   6 C        3.754    -0.109    22.651     6.787
    31   1 H        0.925     0.054     2.267     2.355
    32   1 H        0.925     0.050     2.314     2.379
    33   1 H        0.925     0.054     2.277     2.360
    34   6 C        3.754    -0.110    22.666     6.789
    35   1 H        0.925     0.056     2.246     2.343
    36   1 H        0.925     0.052     2.295     2.369
    37   1 H        0.925     0.054     2.270     2.356
    38   6 C        3.754    -0.111    22.673     6.790
    39   1 H        0.925     0.050     2.323     2.384
    40   1 H        0.924     0.054     2.269     2.356
    41   1 H        0.925     0.060     2.194     2.316
    42   6 C        2.888    -0.029    28.721     8.786
    43   1 H        0.925     0.040     2.449     2.447
    44   6 C        2.840    -0.085    30.108     8.992
    45   1 H        0.926     0.049     2.327     2.386
    46   1 H        0.926     0.051     2.307     2.375
    47   6 C        3.754    -0.111    22.673     6.790
    48   1 H        0.925     0.049     2.327     2.385
    49   1 H        0.924     0.056     2.243     2.342
    50   1 H        0.925     0.060     2.193     2.316
    51   6 C        2.888    -0.030    28.735     8.788
    52   1 H        0.925     0.041     2.442     2.444
    53   6 C        2.840    -0.085    30.113     8.993
    54   1 H        0.926     0.051     2.303     2.373
    55   1 H        0.926     0.049     2.330     2.387
    56   6 C        3.754    -0.110    22.658     6.788
    57   1 H        0.925     0.055     2.264     2.353
    58   1 H        0.925     0.053     2.287     2.365
    59   1 H        0.925     0.055     2.263     2.352
    60   6 C        3.754    -0.110    22.667     6.789
    61   1 H        0.925     0.055     2.264     2.353
    62   1 H        0.925     0.052     2.290     2.367
    63   1 H        0.925     0.056     2.247     2.344
    64   8 O        1.958    -0.481    22.424     6.395
    65   1 H        0.805     0.331     0.634     1.250
    66   1 H        0.805     0.332     0.633     1.250
    67   6 C        3.754    -0.127    22.989     6.837
    68   1 H        0.925     0.074     2.043     2.235
    69   1 H        0.925     0.074     2.040     2.234
    70   1 H        0.925     0.076     2.025     2.225
    71   7 N        2.829    -0.067    22.529     7.050
    72   1 H        0.860     0.196     1.129     1.664
    73   6 C        3.068     0.051    26.785     8.486
    74   6 C        3.109     0.077    26.135     8.376
    75   1 H        0.926     0.078     2.001     2.212
    76   7 N        2.686    -0.147    24.179     7.303
    77   6 C        3.132    -0.003    27.896     8.646
    78   1 H        0.926     0.073     2.054     2.241

 Mol. C6AA /au·bohr⁶  :      69625.976245
 Mol. C8AA /au·bohr⁸  :    1695066.395293
 Mol. α(0) /au        :        420.981124


Wiberg/Mayer (AO) data.
largest (>0.10) Wiberg bond orders for each atom

 ---------------------------------------------------------------------------
     #   Z sym  total        # sym  WBO       # sym  WBO       # sym  WBO
 ---------------------------------------------------------------------------
     1  26 Fe   3.800 --     5 N    0.629     2 N    0.622     4 N    0.608
                             3 N    0.608    76 N    0.538    64 O    0.292
     2   7 N    3.422 --     6 C    1.244     9 C    1.225     1 Fe   0.622
     3   7 N    3.413 --    13 C    1.239    10 C    1.228     1 Fe   0.608
     4   7 N    3.417 --    17 C    1.245    14 C    1.225     1 Fe   0.608
     5   7 N    3.428 --    21 C    1.236    18 C    1.233     1 Fe   0.629
     6   6 C    3.922 --    22 C    1.357     2 N    1.244     7 C    1.132
     7   6 C    3.945 --     8 C    1.584     6 C    1.132    34 C    1.037
     8   6 C    3.946 --     7 C    1.584     9 C    1.133    30 C    1.036
     9   6 C    3.924 --    24 C    1.375     2 N    1.225     8 C    1.133
    10   6 C    3.923 --    24 C    1.341     3 N    1.228    11 C    1.164
    11   6 C    3.942 --    12 C    1.508    10 C    1.164    38 C    1.040
    12   6 C    3.941 --    11 C    1.508    13 C    1.126    42 C    1.104
    13   6 C    3.929 --    26 C    1.365     3 N    1.239    12 C    1.126
    14   6 C    3.927 --    26 C    1.353     4 N    1.225    15 C    1.159
    15   6 C    3.939 --    16 C    1.512    14 C    1.159    47 C    1.041
    16   6 C    3.944 --    15 C    1.512    17 C    1.128    51 C    1.101
    17   6 C    3.926 --    28 C    1.353     4 N    1.245    16 C    1.128
    18   6 C    3.924 --    28 C    1.366     5 N    1.233    19 C    1.131
    19   6 C    3.943 --    20 C    1.581    18 C    1.131    56 C    1.037
    20   6 C    3.944 --    19 C    1.581    21 C    1.133    60 C    1.037
    21   6 C    3.923 --    22 C    1.364     5 N    1.236    20 C    1.133
    22   6 C    3.935 --    21 C    1.364     6 C    1.357    23 H    0.958
    23   1 H    0.994 --    22 C    0.958
    24   6 C    3.929 --     9 C    1.375    10 C    1.341    25 H    0.957
    25   1 H    0.995 --    24 C    0.957
    26   6 C    3.929 --    13 C    1.365    14 C    1.353    27 H    0.955
    27   1 H    0.995 --    26 C    0.955
    28   6 C    3.934 --    18 C    1.366    17 C    1.353    29 H    0.957
    29   1 H    0.995 --    28 C    0.957
    30   6 C    3.992 --     8 C    1.036    31 H    0.978    33 H    0.968
                            32 H    0.968
    31   1 H    0.996 --    30 C    0.978
    32   1 H    0.994 --    30 C    0.968
    33   1 H    0.993 --    30 C    0.968
    34   6 C    3.992 --     7 C    1.037    37 H    0.978    36 H    0.968
                            35 H    0.966
    35   1 H    0.992 --    34 C    0.966
    36   1 H    0.993 --    34 C    0.968
    37   1 H    0.996 --    34 C    0.978
    38   6 C    3.991 --    11 C    1.040    41 H    0.974    39 H    0.973
                            40 H    0.961
    39   1 H    0.995 --    38 C    0.973
    40   1 H    0.992 --    38 C    0.961
    41   1 H    0.995 --    38 C    0.974
    42   6 C    3.986 --    44 C    1.888    12 C    1.104    43 H    0.956
    43   1 H    0.996 --    42 C    0.956
    44   6 C    3.954 --    42 C    1.888    45 H    0.977    46 H    0.974
    45   1 H    0.997 --    44 C    0.977
    46   1 H    0.997 --    44 C    0.974
    47   6 C    3.991 --    15 C    1.041    50 H    0.974    48 H    0.972
                            49 H    0.960
    48   1 H    0.995 --    47 C    0.972
    49   1 H    0.991 --    47 C    0.960
    50   1 H    0.995 --    47 C    0.974
    51   6 C    3.987 --    53 C    1.891    16 C    1.101    52 H    0.956
    52   1 H    0.996 --    51 C    0.956
    53   6 C    3.956 --    51 C    1.891    55 H    0.977    54 H    0.974
    54   1 H    0.997 --    53 C    0.974
    55   1 H    0.997 --    53 C    0.977
    56   6 C    3.992 --    19 C    1.037    59 H    0.978    57 H    0.967
                            58 H    0.967
    57   1 H    0.993 --    56 C    0.967
    58   1 H    0.993 --    56 C    0.967
    59   1 H    0.996 --    56 C    0.978
    60   6 C    3.992 --    20 C    1.037    61 H    0.978    62 H    0.968
                            63 H    0.966
    61   1 H    0.996 --    60 C    0.978
    62   1 H    0.993 --    60 C    0.968
    63   1 H    0.992 --    60 C    0.966
    64   8 O    2.103 --    65 H    0.882    66 H    0.881     1 Fe   0.292
    65   1 H    0.890 --    64 O    0.882
    66   1 H    0.890 --    64 O    0.881
    67   6 C    3.987 --    73 C    1.037    70 H    0.979    68 H    0.965
                            69 H    0.965
    68   1 H    0.994 --    67 C    0.965
    69   1 H    0.994 --    67 C    0.965
    70   1 H    0.994 --    67 C    0.979
    71   7 N    3.610 --    74 C    1.293    73 C    1.196    72 H    0.934
    72   1 H    0.962 --    71 N    0.934
    73   6 C    3.948 --    77 C    1.553    71 N    1.196    67 C    1.037
                            74 C    0.105
    74   6 C    3.952 --    76 N    1.467    71 N    1.293    75 H    0.953
                            73 C    0.105
    75   1 H    0.993 --    74 C    0.953
    76   7 N    3.458 --    74 C    1.467    77 C    1.243     1 Fe   0.538
    77   6 C    3.958 --    73 C    1.553    76 N    1.243    78 H    0.957
    78   1 H    0.994 --    77 C    0.957
 ---------------------------------------------------------------------------

Topologies differ in total number of bonds
Writing topology from bond orders to xtbtopo.mol

molecular dipole:
                 x           y           z       tot (Debye)
 q only:      -12.379     107.324     210.018
   full:      -12.494     107.589     210.158     600.939
molecular quadrupole (traceless):
                xx          xy          yy          xz          yz          zz
 q only:   -27659.128   -1991.751  -10613.753   -3901.837   33812.671   38272.881
  q+dip:   -27712.381   -2016.982  -10586.546   -3946.379   33916.863   38298.926
   full:   -27710.921   -2014.019  -10588.165   -3941.271   33918.912   38299.086

           -------------------------------------------------
          |                Geometry Summary                 |
           -------------------------------------------------

      molecular mass/u    :      600.5356562
   center of mass at/Å    :       -5.9194518      57.0703134     111.3482233
  moments of inertia/u·Å² :        0.5371368E+04   0.5499506E+04   0.8538436E+04
rotational constants/cm⁻¹ :        0.3138425E-02   0.3065300E-02   0.1974323E-02

 * 78 selected distances

     #   Z          #   Z                                           value/Å
     2   7 N        6   6 C                                       1.3592306
     6   6 C        7   6 C                                       1.4457615
     7   6 C        8   6 C                                       1.3623845
     2   7 N        9   6 C                                       1.3642014
     8   6 C        9   6 C                                       1.4455817
     3   7 N       10   6 C                                       1.3644503
    10   6 C       11   6 C                                       1.4378558
    11   6 C       12   6 C                                       1.3735664
     3   7 N       13   6 C                                       1.3616454
    12   6 C       13   6 C                                       1.4473000
     4   7 N       14   6 C                                       1.3645505
    14   6 C       15   6 C                                       1.4394710
    15   6 C       16   6 C                                       1.3730406
     4   7 N       17   6 C                                       1.3599347
    16   6 C       17   6 C                                       1.4465125
     5   7 N       18   6 C                                       1.3618744
    18   6 C       19   6 C                                       1.4458857
    19   6 C       20   6 C                                       1.3626527
     5   7 N       21   6 C                                       1.3608829
    20   6 C       21   6 C                                       1.4452918
     6   6 C       22   6 C                                       1.3817697
    21   6 C       22   6 C                                       1.3806517
    22   6 C       23   1 H                                       1.0782906
     9   6 C       24   6 C                                       1.3799886
    10   6 C       24   6 C                                       1.3856734
    24   6 C       25   1 H                                       1.0784687
    13   6 C       26   6 C                                       1.3812256
    14   6 C       26   6 C                                       1.3832805
    26   6 C       27   1 H                                       1.0782124
    17   6 C       28   6 C                                       1.3834595
    18   6 C       28   6 C                                       1.3812871
    28   6 C       29   1 H                                       1.0784471
     8   6 C       30   6 C                                       1.4872577 (max)
    30   6 C       31   1 H                                       1.0859201
    30   6 C       32   1 H                                       1.0897918
    30   6 C       33   1 H                                       1.0894151
     7   6 C       34   6 C                                       1.4865982
    34   6 C       35   1 H                                       1.0895539
    34   6 C       36   1 H                                       1.0893557
    34   6 C       37   1 H                                       1.0860697
    11   6 C       38   6 C                                       1.4858364
    38   6 C       39   1 H                                       1.0882408
    38   6 C       40   1 H                                       1.0906536
    38   6 C       41   1 H                                       1.0874425
    42   6 C       43   1 H                                       1.0826620
    42   6 C       44   6 C                                       1.3288548
    44   6 C       45   1 H                                       1.0761612
    44   6 C       46   1 H                                       1.0758183
    15   6 C       47   6 C                                       1.4853484
    47   6 C       48   1 H                                       1.0882823
    47   6 C       49   1 H                                       1.0905362
    47   6 C       50   1 H                                       1.0873899
    51   6 C       52   1 H                                       1.0828911
    51   6 C       53   6 C                                       1.3285510
    53   6 C       54   1 H                                       1.0759206
    53   6 C       55   1 H                                       1.0761974
    19   6 C       56   6 C                                       1.4867529
    56   6 C       57   1 H                                       1.0894345
    56   6 C       58   1 H                                       1.0897737
    56   6 C       59   1 H                                       1.0859562
    20   6 C       60   6 C                                       1.4865996
    60   6 C       61   1 H                                       1.0860269
    60   6 C       62   1 H                                       1.0893380
    60   6 C       63   1 H                                       1.0895923
    64   8 O       65   1 H                                       0.9627857 (min)
    64   8 O       66   1 H                                       0.9628946
    67   6 C       68   1 H                                       1.0892633
    67   6 C       69   1 H                                       1.0893009
    67   6 C       70   1 H                                       1.0852270
    71   7 N       72   1 H                                       1.0081706
    67   6 C       73   6 C                                       1.4818266
    71   7 N       73   6 C                                       1.3690224
    71   7 N       74   6 C                                       1.3449901
    74   6 C       75   1 H                                       1.0711862
    74   6 C       76   7 N                                       1.3147272
    73   6 C       77   6 C                                       1.3664135
    76   7 N       77   6 C                                       1.3651976
    77   6 C       78   1 H                                       1.0703738

 * 5 distinct bonds (by element types)

   Z      Z             #   av. dist./Å        max./Å        min./Å
   1 H    6 C          33     1.0842786     1.0906536     1.0703738
   6 C    6 C          30     1.4168893     1.4872577     1.3285510
   1 H    7 N           1     1.0081706     1.0081706     1.0081706
   6 C    7 N          12     1.3575590     1.3690224     1.3147272
   1 H    8 O           2     0.9628402     0.9628946     0.9627857


optimized geometry written to: xtbopt.xyz


           -------------------------------------------------
          | TOTAL ENERGY             -115.692657231317 Eh   |
          | GRADIENT NORM               0.000060951971 Eh/α |
          | HOMO-LUMO GAP               1.725899517832 eV   |
           -------------------------------------------------

------------------------------------------------------------------------
 * finished run on 2026/01/12 at 13:47:17.769     
------------------------------------------------------------------------
 total:
 * wall-time:     0 d,  0 h,  0 min, 31.397 sec
 *  cpu-time:     0 d,  0 h,  4 min, 29.853 sec
 * ratio c/w:     8.595 speedup
 SCF:
 * wall-time:     0 d,  0 h,  0 min,  0.530 sec
 *  cpu-time:     0 d,  0 h,  0 min,  3.968 sec
 * ratio c/w:     7.493 speedup
 ANC optimizer:
 * wall-time:     0 d,  0 h,  0 min, 30.841 sec
 *  cpu-time:     0 d,  0 h,  4 min, 25.525 sec
 * ratio c/w:     8.609 speedup


=== STDERR ===
normal termination of xtb
Note: The following floating-point exceptions are signalling: IEEE_UNDERFLOW_FLAG IEEE_DENORMAL
