78
 energy: -115.980169754391 gnorm: 0.255464504641 xtb: 6.7.1 (edcfbbe)
Fe          11.49400000000000       -2.36800000000000        1.26500000000000
N           12.05400000000000       -0.62700000000000        2.17800000000000
N            9.73500000000000       -2.35700000000000        2.35400000000000
N           10.84600000000000       -3.99400000000000        0.28100000000000
N           13.13700000000000       -2.25800000000000        0.04800000000000
C           13.22200000000000        0.06800000000000        1.93300000000000
C           13.20300000000000        1.26900000000000        2.74300000000000
C           12.08500000000000        1.26200000000000        3.47400000000000
C           11.33400000000000        0.06500000000000        3.13900000000000
C            9.42700000000000       -1.46300000000000        3.36800000000000
C            8.23000000000000       -1.91500000000000        4.04200000000000
C            7.87600000000000       -3.08100000000000        3.47300000000000
C            8.80700000000000       -3.36100000000000        2.38800000000000
C            9.66200000000000       -4.66500000000000        0.51200000000000
C            9.49200000000000       -5.67500000000000       -0.52700000000000
C           10.56300000000000       -5.60500000000000       -1.34700000000000
C           11.42600000000000       -4.54900000000000       -0.85500000000000
C           13.47000000000000       -3.22600000000000       -0.88300000000000
C           14.83100000000000       -3.01700000000000       -1.31200000000000
C           15.32500000000000       -1.81500000000000       -0.56300000000000
C           14.21200000000000       -1.39600000000000        0.25200000000000
C           14.22400000000000       -0.29500000000000        1.07200000000000
H           15.10600000000000        0.34500000000000        1.03500000000000
C           10.12300000000000       -0.31000000000000        3.65500000000000
H            9.66200000000000        0.37500000000000        4.36700000000000
C            8.78900000000000       -4.43600000000000        1.54600000000000
H            8.01000000000000       -5.18000000000000        1.71000000000000
C           12.65200000000000       -4.21400000000000       -1.35900000000000
H           13.00900000000000       -4.78500000000000       -2.21600000000000
C           11.64900000000000        2.34200000000000        4.48100000000000
H           10.89800000000000        3.00900000000000        4.00700000000000
H           12.52900000000000        2.94900000000000        4.78500000000000
H           11.19200000000000        1.86100000000000        5.37300000000000
C           14.31400000000000        2.32800000000000        2.72000000000000
H           14.66000000000000        2.48000000000000        1.67500000000000
H           15.17200000000000        1.98500000000000        3.33700000000000
H           13.92300000000000        3.29000000000000        3.11400000000000
C            7.56000000000000       -1.17900000000000        5.22800000000000
H            7.74800000000000       -0.08700000000000        5.14100000000000
H            7.98900000000000       -1.54300000000000        6.18600000000000
H            6.46400000000000       -1.35900000000000        5.21000000000000
C            6.68900000000000       -3.99500000000000        3.80300000000000
H            6.24400000000000       -4.60700000000000        3.00500000000000
C            6.15000000000000       -4.09600000000000        5.02500000000000
H            6.55200000000000       -3.50800000000000        5.86300000000000
H            5.29800000000000       -4.76800000000000        5.20600000000000
C            8.27600000000000       -6.61800000000000       -0.64600000000000
H            7.37400000000000       -6.11300000000000       -0.23900000000000
H            8.46200000000000       -7.54600000000000       -0.06400000000000
H            8.09800000000000       -6.86800000000000       -1.71400000000000
C           10.85800000000000       -6.41200000000000       -2.62200000000000
H           11.31100000000000       -5.89800000000000       -3.48300000000000
C           10.60200000000000       -7.70600000000000       -2.76300000000000
H           10.15000000000000       -8.27900000000000       -1.94000000000000
H           10.83900000000000       -8.22300000000000       -3.70500000000000
C           15.64400000000000       -3.85600000000000       -2.28500000000000
H           15.24200000000000       -3.72500000000000       -3.31300000000000
H           15.57400000000000       -4.92900000000000       -2.00500000000000
H           16.70500000000000       -3.52700000000000       -2.26800000000000
C           16.70800000000000       -1.16600000000000       -0.62900000000000
H           17.21600000000000       -1.47100000000000       -1.56800000000000
H           17.32000000000000       -1.49800000000000        0.23600000000000
H           16.60400000000000       -0.06000000000000       -0.61800000000000
O           10.52500000000000       -1.08100000000000       -0.10500000000000
H           10.70100000000000       -0.19100000000000        0.19900000000000
H           10.04800000000000       -1.30700000000000       -0.82100000000000
C           14.70800000000000       -6.15000000000000        3.91000000000000
H           14.23800000000000       -7.13200000000000        4.13000000000000
H           15.26700000000000       -5.80800000000000        4.80800000000000
H           15.40400000000000       -6.26800000000000        3.05200000000000
N           12.63000000000000       -4.80200000000000        4.42900000000000
H           12.51600000000000       -5.18200000000000        5.34700000000000
C           13.64000000000000       -5.14800000000000        3.56400000000000
C           11.85100000000000       -3.90300000000000        3.86000000000000
H           10.98600000000000       -3.44600000000000        4.33800000000000
N           12.30100000000000       -3.66800000000000        2.64100000000000
C           13.41300000000000       -4.43900000000000        2.42900000000000
H           13.94400000000000       -4.41300000000000        1.48600000000000
78
 energy: -116.030343564257 gnorm: 0.101141232500 xtb: 6.7.1 (edcfbbe)
Fe          11.47479297797253       -2.37265126632289        1.26649275099974
N           12.05979566897918       -0.64265424728174        2.18728273042800
N            9.74402117447793       -2.36501291369530        2.37441971576064
N           10.83316344978716       -3.98354780012906        0.25862220563765
N           13.14262343035739       -2.27769049325070        0.08111400546419
C           13.20980942897189        0.06368082909347        1.93617577356849
C           13.21477754585071        1.27260757202695        2.74054969776533
C           12.08102016309854        1.27010253300823        3.47739348729183
C           11.34556870433966        0.06602413936470        3.12560352189992
C            9.41627349823235       -1.46828698419409        3.36008707265608
C            8.22348296246656       -1.91694265685225        4.05066569332470
C            7.85432426400369       -3.09603744915396        3.47299771168642
C            8.81180599053517       -3.35896058399663        2.40360447208033
C            9.67247336083670       -4.67083946235236        0.49500486460383
C            9.49220200069274       -5.68868315617359       -0.53079317362683
C           10.56631289838200       -5.60950665549140       -1.36605507988125
C           11.41830505585534       -4.54683164231219       -0.85349858647788
C           13.49373545362913       -3.20316805728924       -0.86671979963328
C           14.85330006312399       -2.98214710441530       -1.29413813804750
C           15.31213407419297       -1.84496836795938       -0.58638478970909
C           14.21060744426393       -1.42777351326413        0.24288239528454
C           14.21659178163107       -0.31024020593344        1.06794994489839
H           15.09478788238098        0.32779560712071        1.03337659697401
C           10.12418463691978       -0.31075534762754        3.64880517230532
H            9.67631704701791        0.36482817099901        4.37116337134034
C            8.79341941639104       -4.43891975358044        1.54265420386348
H            8.00719344769088       -5.17063736018514        1.69531163925971
C           12.65932967182683       -4.20399180745049       -1.35283998880294
H           13.01717934693382       -4.77925908965849       -2.20140412135703
C           11.64660345209941        2.32703257903384        4.46982972106432
H           10.90582024902639        2.99579203973089        4.01517810512999
H           12.50632711803569        2.92931600139796        4.78123401210372
H           11.20016028968214        1.86784575125491        5.35755908508510
C           14.30576931953738        2.31679775698176        2.71686345164579
H           14.65492551836334        2.47816967979529        1.69191812699126
H           15.15745069395550        1.99189078164760        3.32600905764536
H           13.93412815194346        3.26940845275242        3.10678002289948
C            7.56981272997121       -1.18572049424331        5.20792137830865
H            7.74644521788309       -0.10736334852570        5.13801738738006
H            7.98126157375765       -1.53561337031290        6.16312243880388
H            6.48868638173138       -1.35860428371618        5.20525286494018
C            6.70273646924072       -3.97817029537175        3.80603986321252
H            6.27846713436334       -4.58242614708136        3.00477990899745
C            6.15944531354599       -4.08758565574639        5.01638523833957
H            6.54537477323460       -3.52843651046869        5.85874380508065
H            5.31868097767097       -4.75038784709133        5.20019174000322
C            8.29055842669777       -6.60375210244419       -0.64255681454440
H            7.39264500489499       -6.11823078008250       -0.24568750334889
H            8.45957095654562       -7.52710779493088       -0.07556561269218
H            8.10966253660120       -6.86320754902379       -1.69121967045360
C           10.85138317277297       -6.40084017189077       -2.60021658507425
H           11.30601860276496       -5.87748290850712       -3.44205994720326
C           10.59578131154610       -7.69485126149886       -2.75098165466548
H           10.15910638114548       -8.27970133123434       -1.95086308502187
H           10.82985774169594       -8.21117059877594       -3.67853350997664
C           15.63206636309772       -3.83160941871875       -2.26659045165425
H           15.24570205524203       -3.72256129614559       -3.28968503715232
H           15.57322845603975       -4.89671572764816       -2.00439951315696
H           16.68525866804812       -3.53478722995191       -2.26809943377212
C           16.67512313494051       -1.19016514828227       -0.63836697337857
H           17.20496510515841       -1.46909314005310       -1.55490096248448
H           17.29547062495684       -1.49459032582195        0.21629872434210
H           16.59474190320475       -0.09546430830026       -0.61869502925663
O           10.52747987053958       -1.07057925260528       -0.10162381232967
H           10.68747422954178       -0.17102480977173        0.17943599523001
H           10.02162716579723       -1.29260347787848       -0.86133607344900
C           14.70147325353721       -6.15137993135601        3.91162362406654
H           14.25047780613767       -7.12565359119408        4.13026323981268
H           15.26291905997760       -5.81992114116123        4.79302363172054
H           15.39004228528771       -6.26369064580057        3.07033398467170
N           12.64422749639643       -4.81153955229769        4.43765447238782
H           12.52502066140189       -5.19254388963001        5.35991147196632
C           13.64262747994190       -5.15915143469066        3.56559566415276
C           11.86224635379670       -3.89843990958258        3.84924575734520
H           11.00330716188805       -3.44930705942894        4.31898714624627
N           12.30800408320114       -3.64317128617261        2.63748301643188
C           13.40726304185000       -4.43019636528518        2.43685505499872
H           13.93504140046782       -4.40594458291496        1.50152032905369
78
 energy: -116.043788366815 gnorm: 0.033608482472 xtb: 6.7.1 (edcfbbe)
Fe          11.46644556194037       -2.37627078275146        1.27167505830439
N           12.05930257052082       -0.65383595735464        2.19051251740396
N            9.75709450884553       -2.37173790042771        2.38407306128516
N           10.82393072332214       -3.97222082322207        0.24628640635424
N           13.14671947901995       -2.29950438836850        0.11125051537654
C           13.20003894386307        0.05042410128770        1.94226961856389
C           13.21916851829910        1.26715690100645        2.73359170113638
C           12.07532916800667        1.26864428790086        3.47361496369843
C           11.35460939362051        0.05895743363102        3.11660812847838
C            9.41992641084869       -1.47836701600383        3.35464885498827
C            8.22885930591658       -1.91772978616613        4.05125313367486
C            7.85242039840125       -3.10658105897350        3.47097986348362
C            8.82180955047260       -3.35639954748926        2.40934278815874
C            9.67733188416058       -4.66575387932478        0.48129643417296
C            9.49599167977538       -5.69373809057214       -0.52601386837556
C           10.57310820970432       -5.60763502851686       -1.37056280058950
C           11.40897673583797       -4.53260997495883       -0.85044065932340
C           13.50494954553501       -3.19880424453621       -0.84380027926819
C           14.86414891328525       -2.95700278031096       -1.27865993589106
C           15.29813089243562       -1.87057649088163       -0.60095256877552
C           14.20616930375728       -1.45838718569423        0.25287950286217
C           14.21119317478111       -0.33391423617247        1.07501329934263
H           15.08338323009862        0.30506387452535        1.03396080172811
C           10.13216991846239       -0.31967489072331        3.64997932036668
H            9.69506946297776        0.34891414873816        4.37988330390239
C            8.79538452486360       -4.43338130735756        1.53402430493565
H            8.00079611575699       -5.15355765387347        1.67375621755137
C           12.66289917212891       -4.19617669736827       -1.34086040485919
H           13.02653965981107       -4.77596099356097       -2.17943079432135
C           11.64128406974157        2.30734223217210        4.45623342764270
H           10.90278433427331        2.97697533541365        4.01411027852913
H           12.49118328966676        2.90758626876430        4.77204731251509
H           11.20104639811523        1.85624099121365        5.34154541508709
C           14.29756201722241        2.29994056325577        2.71103972765400
H           14.65014556160174        2.46873476230299        1.69665610326980
H           15.14755315685005        1.98603930510157        3.31695969321241
H           13.93412058510460        3.24665688164929        3.10239569998813
C            7.57990525675661       -1.19250016733715        5.18352362720055
H            7.75208010305506       -0.12119870266396        5.11879660513900
H            7.98102004502044       -1.53362010192658        6.13982805668671
H            6.50606460302405       -1.36630523929682        5.18751856361332
C            6.73081874895681       -3.96087723419673        3.80305323014880
H            6.32362887450560       -4.55624439493342        2.99370511970047
C            6.17508222517899       -4.07872440937370        5.00620781630372
H            6.54618364752570       -3.54520367534743        5.86140950345280
H            5.33660712691770       -4.73228183940300        5.18401078852702
C            8.30924971733601       -6.59181247704267       -0.63819756368781
H            7.41471857120406       -6.11052803143993       -0.25011005649469
H            8.46457785078614       -7.51317161627053       -0.07613139899707
H            8.13266746780961       -6.85790717728643       -1.67850649739973
C           10.85134187249392       -6.38305300735963       -2.56814964488570
H           11.31136892633691       -5.84781758065903       -3.39220646401485
C           10.59017091082350       -7.67657430811837       -2.73228369333296
H           10.16235194759986       -8.27649446188350       -1.94986649671431
H           10.81751997592936       -8.18844094515907       -3.65402545676505
C           15.61956256466283       -3.80814649313686       -2.25156291900692
H           15.22937401854380       -3.70432151310372       -3.26562410636378
H           15.55655695137146       -4.86439505098879       -1.98600489808174
H           16.67019953040069       -3.52907559476602       -2.26441241241726
C           16.64310592946294       -1.21109869572884       -0.64768001076761
H           17.18150330244454       -1.48087609542073       -1.55322657107060
H           17.25678159721178       -1.50687848407275        0.20691554725166
H           16.55949772142784       -0.12456090028665       -0.62260630213678
O           10.52189371297332       -1.05982703611312       -0.11083370074315
H           10.65460828401408       -0.14205212439916        0.13191997243873
H           10.00391703293714       -1.26558284252286       -0.88765431381991
C           14.69691271430319       -6.15431354349657        3.90913972590673
H           14.25674528797555       -7.12509269114205        4.12926715506165
H           15.25809877309426       -5.82732513226040        4.78306168389500
H           15.38232490548929       -6.26236677221102        3.07651473744586
N           12.65457290746701       -4.81668557841034        4.44428464959395
H           12.53037211666794       -5.19745763594054        5.36837016115612
C           13.64432846472260       -5.16627316386895        3.56520240293276
C           11.87661596771206       -3.88962244954457        3.84499299255660
H           11.02256504042611       -3.44429927451026        4.30972624358467
N           12.31394550434314       -3.62753180023526        2.63648492541085
C           13.40826906554819       -4.41907852247370        2.44519238397718
H           13.93731436651506       -4.39823960802299        1.51579047245235
78
 energy: -116.047452023594 gnorm: 0.020115192714 xtb: 6.7.1 (edcfbbe)
Fe          11.46247186644040       -2.36990436840635        1.27029603244669
N           12.06193189494960       -0.66650246205997        2.19778920854714
N            9.77161237880062       -2.37570542067925        2.38593906651087
N           10.81779104212174       -3.95853307965770        0.24588703256305
N           13.15025288434823       -2.31932594606766        0.13605378835859
C           13.19919602120676        0.03631457203541        1.95071061322095
C           13.21934532225519        1.25540174874935        2.73237958400864
C           12.07416009797088        1.25865676724125        3.47108541695398
C           11.35900590791764        0.04899816159495        3.11763470927237
C            9.43297000763526       -1.48418828530753        3.35495374126909
C            8.24439108552532       -1.91878826571607        4.04926515762827
C            7.86821409288000       -3.10800318140926        3.46987065366843
C            8.83296962376663       -3.35496973531307        2.40850840261588
C            9.67516467896480       -4.65550980535360        0.47980445852496
C            9.49926857094953       -5.68825096236623       -0.51603370947581
C           10.57788181668679       -5.60127870132664       -1.35819057083277
C           11.40538260998768       -4.52293224108068       -0.84139280576916
C           13.50158341197144       -3.21195018428325       -0.82543438570337
C           14.85704637456968       -2.96485978159944       -1.27300670797210
C           15.29219756776794       -1.87424733683805       -0.59079176172723
C           14.20322196711370       -1.47363322463411        0.27544241669949
C           14.21198729840057       -0.35046031648004        1.08925905198511
H           15.08373642150836        0.28616609879180        1.04496304388392
C           10.14124121100262       -0.32752289853673        3.65665624677715
H            9.71332106082446        0.33316898824867        4.39779412166906
C            8.79286086195352       -4.42480819240949        1.52840930965549
H            7.98628958265261       -5.13381294288839        1.65379024608175
C           12.66289306635828       -4.20022610143188       -1.32753270135574
H           13.03265624994567       -4.78495153040295       -2.15864609293338
C           11.63103861565635        2.29161387091603        4.45014678637145
H           10.88777378386967        2.95681919890577        4.00867762834821
H           12.47753083416296        2.89503068784096        4.76875626186978
H           11.19237573856884        1.83422331223530        5.33338000008212
C           14.29656267273948        2.28536246055398        2.70570606747531
H           14.64767505384224        2.45554491907991        1.69065888108145
H           15.14821800881765        1.97106286037115        3.30967787521729
H           13.93298100524561        3.23091762588402        3.10000393364064
C            7.58675323850612       -1.19081443830805        5.16832309675168
H            7.75564934358848       -0.11948640801262        5.09569046237899
H            7.98280352094440       -1.52569373266178        6.12925535154637
H            6.51434768429992       -1.37346871379468        5.16374832442108
C            6.74901645814855       -3.95576509803620        3.79587827936294
H            6.35305492586752       -4.54777398656191        2.97900512196291
C            6.18441042280879       -4.07763763978738        4.99506602217301
H            6.55597472632606       -3.56236471672436        5.86269713303405
H            5.34147500330243       -4.72668985009282        5.16108359284463
C            8.31891066245290       -6.58700910664113       -0.63185012977519
H            7.42197129196556       -6.10144882729680       -0.25455517584146
H            8.46917786223297       -7.50587155899333       -0.06403238749491
H            8.15600974479534       -6.85871290563610       -1.67323618829106
C           10.85951574474623       -6.37038101558325       -2.54842719873935
H           11.33486679835010       -5.82808729516868       -3.35890314885246
C           10.58588630975011       -7.66033805261110       -2.72086198214456
H           10.15839662796364       -8.26602456335677       -1.94202237215530
H           10.80952419705503       -8.16791570314007       -3.64416704895356
C           15.60399880009295       -3.80604085357804       -2.25290225029602
H           15.20153466637490       -3.69334520585683       -3.25950933122812
H           15.53756049939590       -4.85858937136658       -1.98066628631811
H           16.65434836984705       -3.52652629802672       -2.27060876799596
C           16.62805400604337       -1.21268560164982       -0.64765210817927
H           17.16122542799638       -1.48847046152780       -1.55371006156547
H           17.23564449025119       -1.50911188985759        0.20913527843986
H           16.53067522287084       -0.12928757815846       -0.62723691971354
O           10.50931682444056       -1.04276425473908       -0.13769171418054
H           10.61551744218451       -0.11182111513758        0.07701172992952
H            9.98546903358226       -1.24298935321367       -0.91478338592237
C           14.69479333839804       -6.15722003172806        3.90377074332018
H           14.25493791261633       -7.12857710041890        4.12365569002727
H           15.25862587491605       -5.83436305456225        4.77793565438017
H           15.37969725581374       -6.26497436492278        3.07055036312675
N           12.66096010728276       -4.81087790445843        4.44622041044968
H           12.53417422096388       -5.19354718436038        5.36944022565379
C           13.64643649588986       -5.16355514393205        3.56332885262253
C           11.88960463986723       -3.87467537083680        3.84792557549851
H           11.03770480248989       -3.42761268233583        4.31317386452220
N           12.32528405072320       -3.60957109186882        2.64013518523627
C           13.41506906105479       -4.40759807234420        2.44839922333253
H           13.94842220442148       -4.38822871091254        1.52191527597475
78
 energy: -116.049959994951 gnorm: 0.013406825507 xtb: 6.7.1 (edcfbbe)
Fe          11.46555617430181       -2.36385008552696        1.27602705772566
N           12.06191784983740       -0.67800534704652        2.19824285503744
N            9.78961578520620       -2.37520449754523        2.38028046219812
N           10.81482258110825       -3.94181260560926        0.25245014656367
N           13.14248917239601       -2.33173690491550        0.15790740063658
C           13.19955796004719        0.02131151791551        1.95776683854261
C           13.22066584718225        1.24066602513493        2.73246013637970
C           12.07493261952625        1.24603022876223        3.46868447741549
C           11.36368622375900        0.03770553049896        3.11853220052715
C            9.45106482439038       -1.48958982703850        3.35507920631164
C            8.26571356136904       -1.92052405843814        4.04675655381466
C            7.88899762143701       -3.10723320411445        3.46599196515359
C            8.84654379517844       -3.34999283218920        2.40319304103773
C            9.67179665330761       -4.64130385241385        0.48021241162207
C            9.50465007302708       -5.68026365995468       -0.50297169671445
C           10.58717163734896       -5.59448288918200       -1.33940210050978
C           11.40443059034956       -4.51231982802617       -0.82645940018696
C           13.49178872270188       -3.22243101973096       -0.80481428944263
C           14.84284702659542       -2.97186454058006       -1.26285633962930
C           15.28099643885065       -1.88051459953096       -0.57681196116427
C           14.19538146085278       -1.48795065334087        0.29828102764738
C           14.21667884781467       -0.36939296369932        1.10627746894925
H           15.09328237667810        0.25878647041825        1.06437418831626
C           10.15434161853728       -0.33731376496415        3.66879541236275
H            9.73595256948114        0.31334678741360        4.42258034533873
C            8.78662852570255       -4.41116859887791        1.51986989239468
H            7.96897551301811       -5.10833745392894        1.63198875070043
C           12.66456387389207       -4.20656828983944       -1.30967089541338
H           13.04207577387256       -4.79863043626084       -2.13092963177038
C           11.61764656580054        2.27356636461388        4.44595353446030
H           10.86503265894500        2.92841530524554        4.00284402925671
H           12.45587968097418        2.88754639169593        4.76865233872407
H           11.18086730307964        1.80613217400590        5.32650314864459
C           14.29946934944899        2.26787594896178        2.70065081208242
H           14.64382553945065        2.43903966857700        1.68233104693849
H           15.15533247930733        1.94903693055744        3.29802090547203
H           13.93803372821135        3.21300053056253        3.10032164893726
C            7.59369343787278       -1.18727585392795        5.15291269887166
H            7.75366428355607       -0.11461937741638        5.06712651814528
H            7.98266843836480       -1.50778816216465        6.12251943415445
H            6.52268167490250       -1.38269114127647        5.13665658962513
C            6.76893897208252       -3.95595509937166        3.78558491863795
H            6.37544580896816       -4.53681037394544        2.95959003362885
C            6.19908974175220       -4.08531391283221        4.98143706738198
H            6.56093454056396       -3.57455948453318        5.85608229484250
H            5.34675133305701       -4.72657298453760        5.13195031772765
C            8.32853523620536       -6.58302833590892       -0.62335684144772
H            7.42465512873263       -6.09354008575052       -0.26495971056208
H            8.47192606737736       -7.49579079392057       -0.04241571204914
H            8.18425900950921       -6.86652203717472       -1.66562734123212
C           10.87830744202406       -6.36033925600657       -2.52742712887663
H           11.36980641991329       -5.81223376011480       -3.32449345469385
C           10.58545605697996       -7.64458690429756       -2.70970910543736
H           10.13812456694290       -8.24800103378348       -1.93924829789584
H           10.80572679613124       -8.14802863776207       -3.63595486473138
C           15.57903186633949       -3.80416227883896       -2.25473854786660
H           15.16269097445115       -3.68276739703496       -3.25444840579193
H           15.51292923798829       -4.85690394568605       -1.98493721532668
H           16.62997771790347       -3.52512113810176       -2.28426128684897
C           16.61028702478383       -1.21399405562527       -0.64522179378529
H           17.14049268384723       -1.49797532030317       -1.55089082855781
H           17.21937456013267       -1.49970723491812        0.21381948436558
H           16.50244071618403       -0.13207286635417       -0.63747176876131
O           10.50341007352642       -1.01970088202525       -0.17795141970818
H           10.55686301259120       -0.07429538122273        0.00542140858252
H            9.95837013527536       -1.21120788044737       -0.94378557629404
C           14.69486561697792       -6.16194521380900        3.89695721587661