78
 energy: -116.058077854121 gnorm: 0.000054924185 xtb: 6.7.1 (edcfbbe)
Fe          11.47849500627379       -2.36735290835753        1.23344491197384
N           12.08297417796627       -0.70327696523171        2.19227534916014
N            9.78646112468477       -2.36744699633896        2.33069530932109
N           10.84359480570910       -3.97990426665078        0.24846143486577
N           13.12806290540763       -2.31808225138358        0.11907672109016
C           13.25749449117663       -0.04144008277876        2.01564001893395
C           13.35344151494087        1.08064457061543        2.92110271863054
C           12.20740876357045        1.08077287698185        3.65468650734759
C           11.42839037336900       -0.04435330627397        3.18962152724182
C            9.43903489682124       -1.48288473667244        3.30883670538493
C            8.18028309117722       -1.84549601090680        3.90388332199526
C            7.77108806461400       -2.99140830302315        3.27194079200770
C            8.79042653849901       -3.29131313501845        2.28689733386580
C            9.69790503069077       -4.67835753763187        0.47481173773925
C            9.59672617244040       -5.80342041774943       -0.42128299965707
C           10.71992790559199       -5.77295568138348       -1.20313155599974
C           11.47984170956556       -4.61734247264364       -0.76446294689702
C           13.46417464175943       -3.18169300981469       -0.87298409638237
C           14.74851791106917       -2.83391318211649       -1.44358674935379
C           15.18065786255160       -1.73791670200797       -0.76666747851610
C           14.15345673865100       -1.43149461598539        0.20652094174929
C           14.22958677799092       -0.37269155121963        1.09032596664090
H           15.11292419289308        0.24618360020119        1.05393507291223
C           10.19571886493335       -0.39239855333012        3.70735215573113
H            9.80283905812429        0.22087013005172        4.50390949901322
C            8.74705188534080       -4.37593404444742        1.43274136897841
H            7.90374460011965       -5.04347910228554        1.52073804827970
C           12.70595465275724       -4.25757343804222       -1.29227589468410
H           13.10568793072164       -4.86583665296838       -2.08934924885012
C           11.77492545268395        2.01604198629986        4.73186319493854
H           10.83765115349388        2.50443482797055        4.46353574468055
H           12.52468746598531        2.78521525025283        4.89948843827294
H           11.61929630271077        1.47963718278057        5.66847725301828
C           14.51193660908870        2.01602599693349        2.98031360630090
H           14.65065594396533        2.51533027761379        2.02108607745768
H           15.42895045422012        1.47504407718817        3.21456584261569
H           14.35813971272334        2.77604523042735        3.74250229214698
C            7.46607081481945       -1.05873688531526        4.94740894570200
H            7.59536243387457        0.00987970052873        4.78161625253297
H            7.84581105769485       -1.29366966954732        5.94340358450534
H            6.40265507239924       -1.28819987701799        4.92386669387343
C            6.56651030935219       -3.76504206144988        3.47438037608764
H            6.16344355754251       -4.24352260288355        2.58935747539956
C            5.94219305181545       -3.93284641558618        4.63573741793144
H            6.32088463945013       -3.52254045398747        5.55556072626482
H            5.03783731698519       -4.51371854282135        4.70979371974073
C            8.44082777692407       -6.73875665658549       -0.49712602570310
H            7.50221016595982       -6.20307967086360       -0.36295662633450
H            8.50676595121853       -7.50363450829381        0.27854802169326
H            8.42366077813930       -7.23239769808428       -1.46659187635493
C           11.11148642458342       -6.65724631351345       -2.27850003917521
H           11.65094067361925       -6.19065884020914       -3.09459736557454
C           10.86908057025416       -7.96304588656599       -2.32969204120960
H           10.37944139135133       -8.48653021463262       -1.52702072695326
H           11.17732160710708       -8.56106777246285       -3.17130637518713
C           15.40249749377650       -3.57731255291306       -2.55723800375705
H           14.77217075409467       -3.56437813346016       -3.44653860132625
H           15.57173701019613       -4.61762974970129       -2.27797225070659
H           16.36079080573160       -3.13062441437748       -2.81071321304828
C           16.43767026071377       -0.95575948571313       -0.93737925299504
H           17.05381683769828       -1.38132457725652       -1.72557130591449
H           17.01622033340731       -0.95267805913091       -0.01323339957981
H           16.21271208524844        0.07844090070790       -1.19897709605518
O           10.37598208964816       -0.96754165100929       -0.21151595646840
H           10.72044533266506       -0.12184783199203        0.09570529464493
H            9.47955336069703       -1.04962749286041        0.13169322426621
C           14.41897957826322       -6.30429362262842        3.86362932905389
H           13.87085432770832       -7.02193191354171        4.47396968392767
H           15.31148141643068       -6.00228503700338        4.41155797953477
H           14.72369808846649       -6.79185129297399        2.94299530744712
N           13.04355574930618       -4.31528616777847        4.51450378493750
H           13.16762234922130       -4.42665581937240        5.50735936850512
C           13.57158385555089       -5.12740093593296        3.54528184855522
C           12.32896662012491       -3.34929115509246        3.89487241192258
H           11.80252401715980       -2.57064197826508        4.40685794967259
N           12.37261729015237       -3.50008264769759        2.59351240196349
C           13.14234799819069       -4.60191015427713        2.36032695175720
H           13.33355396817313       -4.94055194150376        1.36300248448036
