87
 energy: -124.720698165928 gnorm: 0.000022231134 xtb: 6.7.1 (edcfbbe)
Fe          13.15957104879099       66.81505646764228       26.83345142408711
N           11.87455080682669       66.79499059735075       28.36558941095337
N           13.21208745598157       64.82097709558232       26.85360279247682
N           14.40448227282205       66.83327660208808       25.26649029721174
N           13.08124835873048       68.81610423060377       26.79194617535861
C           11.23813784297723       67.86472172868243       28.91186820604704
C           10.37760299667741       67.44662305377571       29.99677877552811
C           10.52019030588493       66.09810110434049       30.09785821132055
C           11.45148626139338       65.70968470736914       29.06179026200758
C           12.62536769745339       63.99771209567228       27.75972524484041
C           12.91349998950115       62.61312077462836       27.45429385762540
C           13.67431904865359       62.62195985651321       26.32801699641127
C           13.85413500977628       64.01274196008688       25.97201321319023
C           14.85791506850170       65.75949777394342       24.57473681665624
C           15.73589639300398       66.17583099200952       23.49932837100747
C           15.79294521040636       67.54288530812725       23.56546490731005
C           14.94462739613846       67.92812567092638       24.66376290817151
C           13.80153020414093       69.64577614625144       25.99409996898585
C           13.48071120846825       71.03228532848244       26.27447424237494
C           12.50619865407226       71.00430984014358       27.23726812153623
C           12.28098545462586       69.61637139225789       27.54653681506066
C           11.40398204345760       69.17926686346166       28.52475178843024
H           10.83088669287021       69.92771883522035       29.05030933378882
C           11.81713934483733       64.40111203637323       28.80541680495076
H           11.41472085285521       63.63505702950049       29.45046585373927
C           14.60300298285679       64.43729305397636       24.89217905445522
H           15.05287544800625       63.67860930073542       24.27011263244240
C           14.70136319284478       69.24238791820812       25.02628700510356
H           15.22890689735093       70.01183252430451       24.48344631399342
C            9.53696276139586       68.37202258590207       30.80820081188686
H            8.84377127720640       68.92001404237860       30.16948662416422
H           10.15984444278076       69.09843368130667       31.33122154149743
H            8.95962965049327       67.82227792032809       31.54751042920864
C            9.87767755567867       65.14828218396995       31.04975379867897
H           10.63471882773112       64.60742622640304       31.61760121295204
H            9.27098022489522       64.41706136696176       30.51438112585338
H            9.23640315619439       65.67698475304523       31.75075977671092
C           11.75821054759158       72.14686703917906       27.83008146918061
H           10.70943401669295       71.88872458319656       27.96943487010521
H           11.81975104669410       73.01356357577168       27.17492674146086
H           12.17048064988643       72.42099355725146       28.80284766395105
C           14.07591404033067       72.16955193043843       25.60923012702845
H           14.36294510371851       72.01277704457547       24.57572655573810
C           14.29997969944517       73.35667651525542       26.16374931676641
H           14.08115801482128       73.55703349507593       27.19806901960903
H           14.73745906580946       74.16627580395031       25.60342301705789
C           16.50259817981405       68.48472497664488       22.65629810698474
H           17.43749531799829       68.82817864471612       23.10289685140028
H           15.88807652393358       69.35973683340529       22.44883419452940
H           16.73314574636099       67.99121957245653       21.71438860005740
C           16.38024886568979       65.27652521992439       22.56814889441394
H           15.81463730166730       64.38907058035390       22.30793832252142
C           17.58437052944752       65.45315707244433       22.03417850210051
H           18.20883996006644       66.29013463219636       22.29394416763366
H           17.99993638184907       64.74715180523475       21.33435420423814
C           14.25158795838925       61.47804931387429       25.56718929771979
H           13.97269222287479       60.53057508020261       26.02178457037946
H           15.33978404803615       61.54217402270036       25.54737260560222
H           13.89424467015277       61.48287327699148       24.53705087768725
C           12.43024386397817       61.45629752338122       28.26014839578046
H           12.79737896328884       60.51878429375403       27.84986689554033
H           11.34017273577563       61.42197033011463       28.27125791842773
H           12.77585573420910       61.53903120488771       29.29051917441911
C            9.58911963403007       67.63940562369052       22.63224059712032
H            8.60880969527380       68.05388547260455       22.86730617102384
H            9.45386112725726       66.83021196143687       21.91461301077227
H           10.19353669728708       68.41479683294601       22.17215827594009
N            9.72633288014889       66.16624287919613       24.65301699346315
H            8.85258870716809       65.69251358423301       24.49239850707927
C           10.26248651862072       67.14762412182006       23.86076400215343
C           10.58114223822692       65.95477287132672       25.67872763443203
H           10.42097154506196       65.23951534072914       26.45864078862551
N           11.62434777845586       66.74180501445836       25.58373431397294
C           11.44125323510387       67.48966952526276       24.45897739416821
H           12.16406242214912       68.21874353441673       24.15707073238638
C           17.15483212570640       65.76388148698581       27.23233118280055
H           18.11576749155144       65.92797990843937       26.74878757198297
H           16.48834435455859       65.27676203627145       26.52585626996196
H           17.29685892810567       65.10373104002011       28.08466380181381
C           16.56404172885310       67.08559529021001       27.68197558167088
H           16.43149642752985       67.76603703415350       26.84187925743233
H           17.18995688074326       67.55337750449114       28.44249757580143
S           14.91685208168865       66.80756690759716       28.44984751795305
C           14.80267736817800       68.37729054431897       29.36110686718926
H           14.94000687493360       69.21150612572900       28.68053074437930
H           15.55624035106220       68.38816584441120       30.14439994953146
H           13.80941768354892       68.41686853875659       29.79483377197393
