87
 energy: -124.455953180713 gnorm: 0.286372973401 xtb: 6.7.1 (edcfbbe)
Fe          13.13800000000000       66.86499999999999       26.79300000000000
N           11.88800000000000       66.85100000000000       28.34900000000000
N           13.22700000000000       64.81600000000000       26.80700000000000
N           14.48200000000000       66.86799999999999       25.26899999999999
N           13.08900000000000       68.89299999999999       26.74100000000000
C           11.19800000000000       67.93500000000000       28.87000000000000
C           10.32800000000000       67.45699999999999       29.92800000000000
C           10.50200000000000       66.13100000000000       30.03800000000000
C           11.48000000000000       65.74400000000000       29.05099999999999
C           12.75100000000000       64.04800000000000       27.86199999999999
C           13.20300000000000       62.68700000000000       27.70100000000000
C           14.01100000000000       62.67500000000000       26.42200000000000
C           13.97200000000000       64.03500000000000       25.92300000000000
C           14.84700000000000       65.78800000000000       24.46900000000000
C           15.58100000000000       66.27200000000001       23.31100000000000
C           15.63700000000000       67.60899999999999       23.42900000000000
C           14.95900000000000       68.00700000000001       24.64000000000000
C           13.81500000000000       69.73399999999999       25.91900000000000
C           13.35200000000000       71.09399999999999       26.11300000000000
C           12.37900000000000       71.05199999999999       27.04300000000000
C           12.19800000000000       69.67599999999999       27.45499999999999
C           11.30700000000000       69.22600000000000       28.41100000000000
H           10.62800000000000       69.96299999999999       28.84100000000000
C           11.96000000000000       64.47799999999999       28.88000000000000
H           11.68200000000000       63.74000000000000       29.63300000000000
C           14.56400000000000       64.48500000000000       24.76800000000000
H           14.83200000000000       63.73600000000000       24.02300000000000
C           14.80600000000000       69.30800000000001       25.06200000000000
H           15.51500000000000       70.04999999999998       24.69400000000000
C            9.37000000000000       68.35299999999999       30.75300000000000
H            8.83400000000000       68.79200000000000       29.88500000000000
H           10.14200000000000       69.07200000000000       31.10200000000000
H            8.63900000000000       68.15700000000000       31.56600000000000
C            9.78600000000000       65.13300000000000       30.98600000000000
H           10.71400000000000       64.69300000000000       31.41000000000000
H            9.38700000000000       64.45000000000000       30.20600000000000
H            9.04100000000000       65.25600000000000       31.80099999999999
C           11.55600000000000       72.23600000000000       27.59200000000000
H           10.69600000000000       72.47199999999999       28.25500000000000
H           11.31400000000000       72.56300000000000       26.55800000000000
H           12.45400000000000       72.77599999999998       27.96100000000000
C           13.88500000000000       72.36400000000000       25.39900000000000
H           13.24400000000000       72.82599999999999       24.63400000000000
C           14.64100000000000       73.18599999999999       26.17800000000000
H           15.29700000000000       72.77000000000000       26.95700000000000
H           14.60500000000000       74.27600000000000       26.03800000000000
C           16.31600000000000       68.58199999999998       22.43700000000000
H           16.97400000000000       69.06999999999999       23.18800000000000
H           15.42300000000000       69.22199999999999       22.27000000000000
H           16.88000000000000       68.46200000000000       21.48700000000000
C           16.14200000000000       65.44400000000000       22.10600000000000
H           15.40000000000000       64.76200000000000       21.68000000000000
C           17.48900000000000       65.26400000000000       22.00900000000000
H           18.18300000000000       65.98800000000000       22.46000000000000
H           17.89900000000000       64.39200000000000       21.47800000000000
C           14.72300000000000       61.45100000000000       25.80000000000000
H           15.11900000000000       61.10100000000000       26.77700000000000
H           15.45700000000000       61.20200000000000       25.00400000000000
H           13.75700000000000       60.94100000000000       25.59900000000000
C           12.96500000000000       61.49300000000000       28.64000000000000
H           14.03100000000000       61.18200000000000       28.64000000000000
H           12.43000000000000       60.94500000000000       27.83600000000000
H           12.51900000000000       61.24900000000000       29.62800000000000
C            9.40100000000000       68.07899999999998       22.90200000000000
H            8.38300000000000       68.25500000000000       23.31200000000000
H            9.31700000000000       67.45999999999999       21.98300000000000
H            9.86600000000000       69.05800000000001       22.65900000000000
N            9.91400000000000       66.11199999999999       24.44200000000000
H            9.11900000000000       65.57500000000000       24.16000000000000
C           10.24300000000000       67.35400000000000       23.93300000000000
C           10.81600000000000       65.75900000000000       25.35300000000000
H           10.80700000000000       64.81000000000000       25.88800000000000
N           11.70100000000000       66.73900000000000       25.48900000000000
C           11.36100000000000       67.74700000000000       24.60600000000000
H           11.95000000000000       68.65300000000001       24.53900000000000
C           16.58400000000000       64.99700000000000       27.86900000000000
H           17.66000000000000       64.79300000000001       27.68100000000000
H           15.98700000000000       64.53100000000001       27.05600000000000
H           16.30300000000000       64.54600000000001       28.84500000000000
C           16.33500000000000       66.49200000000000       27.90000000000000
H           16.45500000000000       66.89000000000000       26.87100000000000
H           17.10300000000000       66.96299999999999       28.54800000000000
S           14.71000000000000       66.90600000000001       28.51000000000000
C           15.01400000000000       68.58900000000000       29.07800000000000
H           15.35200000000000       69.24100000000000       28.24500000000000
H           15.80400000000000       68.59399999999999       29.85900000000000
H           14.08400000000000       69.02500000000001       29.50000000000000
87
 energy: -124.579061050770 gnorm: 0.159072017098 xtb: 6.7.1 (edcfbbe)
Fe          13.15513869161558       66.86419862881783       26.79944579850419
N           11.86679125924662       66.85043608808495       28.34305983652401
N           13.23701142600323       64.83486785890420       26.81264556161143
N           14.47476687600326       66.86958975045863       25.24648352301261
N           13.08190856639763       68.88471513154118       26.73736458325409
C           11.18559459724128       67.92207237054221       28.86877525046970
C           10.31238968296813       67.45770013392907       29.93804083587673
C           10.48994091534368       66.13089049126606       30.05111948379390
C           11.47523195556347       65.75153992203529       29.05624612577665
C           12.77555427359397       64.05174938709150       27.84154787652983
C           13.23398739117987       62.70702916896435       27.67778652503040
C           13.99452060808354       62.69554514333171       26.44965994598257
C           13.95089379726994       64.03875521191647       25.94596280293694
C           14.83304511278794       65.79424332686328       24.45738268140030
C           15.57368604615569       66.25987962621738       23.29179310776612
C           15.65911753249357       67.60100338543461       23.41495916654987
C           14.97182423771109       67.99204429929627       24.63235988433780
C           13.81306461862752       69.72562056213133       25.93557603869426
C           13.35757686772377       71.08840429005568       26.11852271759836
C           12.36459586753326       71.03446750014511       27.05218355066180
C           12.20106135263675       69.66071631937386       27.44560502368653
C           11.30658224248753       69.21934532144655       28.40947634984363
H           10.64124276472909       69.96223226226262       28.84186030767777
C           11.96362772050692       64.47620800337671       28.87634639475282
H           11.68074948779072       63.73584764268521       29.61930917020547
C           14.55615017372876       64.48306288742593       24.77201095125812
H           14.84516436269111       63.73306165962247       24.03981484104344
C           14.80666278004325       69.30196700196117       25.06417161597932
H           15.49069628117470       70.05282433209513       24.67523542688992
C            9.39173413358321       68.38267327298205       30.72061087103602
H            8.81597784842447       68.82978016197175       29.90221837871168
H           10.11581854843829       69.10609849642616       31.11307176409868
H            8.68777425872437       68.11276564990214       31.52738496803851
C            9.81815668579502       65.11173331837956       30.96207498398052
H           10.69866873573168       64.65479953202694       31.42803498637959
H            9.38119478452447       64.42111922006906       30.23021217440167
H            9.07305826975765       65.30463692541878       31.75316051421996
C           11.59193240206605       72.25204321321107       27.55471734627544
H           10.73252469001671       72.39426075543116       28.23621125621248
H           11.30179539374207       72.62962922438973       26.56672670092960
H           12.43557162413387       72.82795181649017       27.95637810385628
C           13.83970447049557       72.37000224931089       25.46459466403877
H           13.25178671178893       72.80259729297829       24.64534815366430
C           14.63428360452690       73.18138314463562       26.17619783292014
H           15.27494239904324       72.78093649025467       26.95799259226246
H           14.64059634128706       74.25832093572851       26.01381359213782
C           16.30084637880779       68.60941015326588       22.47375041894565
H           16.98637224105486       69.11122671077227       23.16670800687935
H           15.44429791499060       69.25888904288456       22.25539809090019
H           16.84467978273675       68.41249610983849       21.53326546642557
C           16.14772044896447       65.41130558636493       22.17607632667005
H           15.41559476289137       64.76755870033575       21.68587862500418
C           17.46951167850057       65.26404230517038       22.01684765586159
H           18.16744975251733       65.96666969392406       22.46621886950481
H           17.88933688049225       64.42699917585291       21.45739987454007
C           14.67677904582820       61.45185741714783       25.85400311377182
H           15.12432354597254       61.04847330360839       26.77144058133463
H           15.41361357514980       61.28894505687361       25.03782709352672
H           13.77013194970378       60.88616938861658       25.59935620818748
C           12.99697020128484       61.48974099308126       28.58210106309361
H           14.03054926937703       61.12783202499108       28.62964499974135
H           12.43563539083453       60.88718342122207       27.85403356525520
H           12.53207432286092       61.33279410123139       29.57791233992808
C            9.40294745253543       68.07240164622247       22.90780382632775
H            8.39428632502033       68.25322426517143       23.30390640017883
H            9.31724310613786       67.47048367928146       21.99312990367556
H            9.86031727594881       69.03827476103415       22.66358115773003
N            9.90928855849647       66.11804183313716       24.43004030886859
H            9.11304896244803       65.57396918407004       24.15020730358178
C           10.23458136702781       67.35885892586418       23.93293847174913
C           10.82034002018404       65.77401878617759       25.35479076480739
H           10.81330827013123       64.83231374778148       25.88457158793152
N           11.70469419815640       66.74375274209514       25.49534815723631
C           11.35746761388750       67.73638250623659       24.60975343096800
H           11.94252615632339       68.63708139947026       24.53885096706767
C           16.58510955847460       64.99476522555381       27.86989028573679
H           17.64702950302426       64.79160483546504       27.68214045233252
H           15.99385151478244       64.53208730677510       27.07217421580457
H           16.30575346345262       64.54772527402349       28.83207603115786
C           16.35235412494816       66.49503841805934       27.89392820615189
H           16.45721987143939       66.89541697594623       26.87647981222514
H           17.09860836779792       66.96776374594400       28.54706082335141
S           14.71257703394616       66.90396829962219       28.52071922693623
C           15.02139943386383       68.59832203985763       29.07759988316938
H           15.34794818624010       69.23501962371381       28.24746953862026
H           15.79588675696483       68.59167401018391       29.85499396995557
H           14.09422734538929       69.01146817624837       29.49218871405289
87
 energy: -124.649731106527 gnorm: 0.072879874372 xtb: 6.7.1 (edcfbbe)
Fe          13.16364096249262       66.86110600951831       26.80067455250723
N           11.85095915982933       66.84900290201918       28.34080604795708
N           13.25274471625146       64.85000389229060       26.82162207129950
N           14.46981506423245       66.87147709159120       25.22942657518822
N           13.07797403096073       68.87874953059863       26.73927865305243
C           11.17415669482555       67.90819069695262       28.86299388629686
C           10.29817810598509       67.45856331250414       29.94490499814266
C           10.48145777542835       66.12729333216861       30.06190743026144
C           11.47242203844934       65.75573256203128       29.05665954927016
C           12.79902480580242       64.05733157662205       27.83063256851049
C           13.26130224829193       62.71642159572063       27.65087756778087
C           13.97939768711093       62.70394556180092       26.47425690597117
C           13.94196958303013       64.04449953680812       25.96523971566592
C           14.81646124162850       65.80191218061566       24.44955710358319
C           15.57042374122506       66.25238561148562       23.27803923327900
C           15.68249458385302       67.59913846394782       23.40763740205561
C           14.97818036834908       67.97892507843069       24.62745119826378
C           13.81075679425464       69.71586688811897       25.94955888559885
C           13.36582077808986       71.08275144763192       26.12511086819364
C           12.35188331236163       71.02378903033045       27.05932050861012
C           12.20065702332643       69.64919599218265       27.43647895873691
C           11.30374345382560       69.21154035732380       28.40741115468862
H           10.65561756308284       69.96075428609900       28.84488866591581
C           11.96739012820914       64.47582807078295       28.87166098926382
H           11.67912259494652       63.73171977852553       29.60211285374373
C           14.55195540326418       64.48333304283126       24.77747165765789
H           14.86113705123894       63.73153726497932       24.06011541375483
C           14.80067252473678       69.29389387445120       25.06297750695325
H           15.45799176823417       70.05387090361799       24.65272739652021
C            9.41369679057194       68.40781264177494       30.68834344388446
H            8.79880309593243       68.87077582846179       29.91872536695454
H           10.09082150841196       69.14175126977841       31.12190905544700
H            8.73954054020788       68.05825863116176       31.48721729604137
C            9.84926129499478       65.09387321109192       30.93907801622951
H           10.68486338372412       64.61545804994051       31.44582940856614
H            9.37734442469109       64.39005119681913       30.25343571666657
H            9.10585133967928       65.36481845293343       31.70481576562736
C           11.62887419507227       72.26330786415106       27.51691422203487
H           10.77176666158960       72.29883926173460       28.21615715271516
H           11.29292288857593       72.69249598702429       26.57370535047141
H           12.42007343974207       72.87566600443434       27.94993541286537
C           13.80606970244066       72.36393679109102       25.52180535157856
H           13.24822429119083       72.76886343754317       24.67038734921823
C           14.62825505541817       73.17333761638211       26.17704635261260
H           15.25020847940063       72.79446414050118       26.97373179358810
H           14.68243721769893       74.23697538962429       25.97822857513574
C           16.28808577821549       68.63129111181649       22.51067919150666
H           16.99855683326209       69.15579360110380       23.14650588054203
H           15.46469269750753       69.29279022115895       22.24420433598679
H           16.80999877643989       68.35162613742334       21.58154031838394
C           16.14245795397962       65.39437746057440       22.23320674753037
H           15.42901526640782       64.75996869013382       21.70844388597287
C           17.44808284291051       65.26794405168661       22.02464130407057
H           18.15654758563000       65.94275779689792       22.48358317659165
H           17.87326261445970       64.46559833202242       21.43176469216710
C           14.63058181634670       61.45437101249930       25.90431388777529
H           15.12417646941585       61.00426448447892       26.76755790207196
H           15.36743256968896       61.39729508137011       25.07062813466414
H           13.77899436674899       60.83878722916906       25.60273104610634
C           13.02571987228221       61.48565218046262       28.51009976246743
H           14.03071200920839       61.08033221088409       28.65690982804661
H           12.44327566015733       60.83223832973276       27.85606434625493
H           12.54190620893178       61.44070156891141       29.51289972503978
C            9.40473763310430       68.06773321243999       22.91236832954767
H            8.40130708272286       68.25095896601725       23.29885710638750
H            9.31868880931939       67.47538980106194       22.00107506883016
H            9.85864087788106       69.02461307740252       22.66771346073700
N            9.90370704315163       66.12199083043498       24.41976263748042
H            9.10826198201563       65.57119781614009       24.14361927648575
C           10.22695266925319       67.36279092551038       23.93253252851872
C           10.82148411457087       65.78669060265506       25.35467312959755
H           10.81628989626459       64.85230665169760       25.88278992674702
N           11.70322101975847       66.74756317572172       25.49500986805878
C           11.35262516839772       67.72907443734007       24.61243229669585
H           11.93402834577920       68.62636614651672       24.53558990263088
C           16.58946614563826       64.99242775234174       27.86958126113252
H           17.64127734259987       64.78714737417292       27.68153539459354
H           15.99750769944975       64.53485029136667       27.08328711945065
H           16.30826526937390       64.55263221123973       28.82398671970523
C           16.37114628436467       66.49649936077159       27.88805835737257
H           16.45991251294272       66.90069463990551       26.88064912237546
H           17.09704288918848       66.97195209733086       28.54763081697796
S           14.71211916508109       66.90245890455913       28.52515560109408
C           15.02805753187774       68.60757735057824       29.07778488584881
H           15.34601771043386       69.22862962456382       28.24659181988602
H           15.79128110986556       68.58966021543921       29.85226631553718
H           14.10009686271305       68.99955938803673       29.48520894076983
87
 energy: -124.681392970877 gnorm: 0.051627133754 xtb: 6.7.1 (edcfbbe)
Fe          13.16712307182035       66.85769068658352       26.80193543944501
N           11.84065944624624       66.84479389452378       28.32988176372573
N           13.27046931371873       64.85796696702420       26.83249900774852
N           14.45645052100824       66.87410106962037       25.22364049806401
N           13.07239387199452       68.87094691833903       26.74168645742090
C           11.16605955695166       67.89978357300056       28.84813756885034
C           10.29424468071139       67.45904468639907       29.93502190649966
C           10.48380521432795       66.12404170644307       30.05694884768289
C           11.47312909069142       65.75575113221333       29.04897494360822
C           12.81276882295030       64.06492435848661       27.83757613820728
C           13.26669432789725       62.71599115168654       27.64605613924926
C           13.96978799017623       62.70404263451240       26.47059718280513
C           13.94572218727456       64.05352354340594       25.96699255126286
C           14.79754976756503       65.80933891027473       24.44858219493730
C           15.56382482829964       66.25762850382820       23.28494996993296
C           15.69082573907396       67.60639546278991       23.41847490141393
C           14.97518465431021       67.97623263672618       24.63199871047389
C           13.81109153086154       69.70481311275182       25.95941409396958
C           13.37392531806593       71.07011383449438       26.13824054433891
C           12.35009185779576       71.01874619819205       27.06069365381052
C           12.19398257178014       69.64245745271668       27.43173427616617
C           11.29794803287574       69.20468005578087       28.40248381859659
H           10.66813803036379       69.95942194777622       28.85238493604487
C           11.97225727703516       64.47771850921157       28.86939736164966
H           11.67286712853159       63.72592964478667       29.58507002113969
C           14.55037453422453       64.48788679676544       24.78048176570237
H           14.88657756168056       63.73114795904623       24.08196278796067
C           14.79126303009118       69.28860090487004       25.06230588778305
H           15.41503264999307       70.05906689212138       24.62001703185539
C            9.42673339080323       68.42131132305120       30.66648805282468
H            8.78012648143774       68.91185774815018       29.93556997099458
H           10.06670882348245       69.17550815620766       31.12870406358134
H            8.78323527554046       68.00025668457555       31.45439632523699
C            9.86868262402212       65.08505741909129       30.92617121675676
H           10.67071871108928       64.57793976490777       31.46586848339886
H            9.37283762382082       64.35798894642053       30.27820937502970
H            9.13145854257520       65.43091935045986       31.66620504688133
C           11.64975945602483       72.26418887997251       27.49501225278462
H           10.80112292880314       72.20346980155888       28.20143330306414
H           11.28422068692659       72.74897907071832       26.58440824122584
H           12.40166102003201       72.91817218830859       27.94527113695193
C           13.78959202911413       72.35289429561752       25.55796995095053
H           13.23519927220430       72.73279369192430       24.69836881720658
C           14.63106553652103       73.16692769051552       26.18059476621720
H           15.22510020052098       72.80958214679897       27.00909425556945
H           14.74199160251003       74.21674672739054       25.92085530844888
C           16.28500101645378       68.64366176829998       22.53576653025797
H           17.01509778651885       69.20278758816981       23.12504279479985
H           15.48700614088738       69.32554490949200       22.23369365540620
H           16.78526294463802       68.28631741458146       21.62203682565687
C           16.13503993056495       65.37233191092631       22.27557187196095
H           15.43637689758928       64.73260078394324       21.74307536785798
C           17.43746652361846       65.26849621516088       22.03489418798500
H           18.15085394309322       65.92256719561489       22.51361106258043
H           17.85839505718680       64.50840704125433       21.38430919408665
C           14.60065930839032       61.45691559936442       25.92726202187514
H           15.11999664896834       60.96830809335655       26.75700033866980
H           15.32865662636742       61.50629934728673       25.08948175289521
H           13.78793823973422       60.79657390075808       25.60506571049659
C           13.04477210047656       61.48586270325977       28.47438453731242
H           14.02539186297625       61.03407512284039       28.65483899167156
H           12.45551691263099       60.79048061338030       27.86823979047584
H           12.54571911571860       61.54771799774583       29.46663364934355
C            9.40435499496803       68.06531231371821       22.91287293449708
H            8.40019101160973       68.25028367298820       23.29454194431891
H            9.32029966511661       67.47400628600261       22.00188072316962
H            9.86141998419465       69.01936208006268       22.66920641751637
N            9.89943784461710       66.12259226369441       24.41611804232897
H            9.10659508923841       65.56782935196836       24.13917630161583
C           10.22241508866412       67.36374495419876       23.93319706371312
C           10.81844121684195       65.79332247738685       25.35515303587248
H           10.81539278430086       64.86416411967147       25.88671771854509
N           11.69957460805240       66.75176815778855       25.49471281725293
C           11.34830691916867       67.72886200103450       24.61274012772767
H           11.92768485630014       68.62461839232560       24.52843281582027
C           16.59733688515641       64.99397176320747       27.86956631600132
H           17.64550086238659       64.77799383883861       27.67894314711669
H           15.99811055299462       64.53730663999784       27.08919296620836
H           16.31301065875876       64.55873915328297       28.82423538654394
C           16.38707004871933       66.49838372401837       27.88570720469402
H           16.46716534997615       66.90906825031061       26.88174007759594
H           17.10228080512192       66.97835365961413       28.55132718800282
S           14.71710595933988       66.89869307613934       28.52597430971368
C           15.03272459313599       68.60928147359836       29.07604150299441
H           15.34708169476339       69.22412573727121       28.24031040594071
H           15.79150844331101       68.58882927318267       29.85279154546165
H           14.09938221370499       68.98906410422275       29.47875075654717
87
 energy: -124.694723659268 gnorm: 0.037482944992 xtb: 6.7.1 (edcfbbe)
Fe          13.16754627101252       66.85756380231629       26.80236406518601
N           11.83597999863098       66.83949922191010       28.31264026889761
N           13.28698147789542       64.86502164943867       26.84226214522619
N           14.43976036700804       66.87714746893769       25.22762388413140
N           13.06434219693838       68.86490002773665       26.74624191437792
C           11.15927989113907       67.89248749271674       28.82854138663436
C           10.29356491715743       67.45813087092857       29.91663867273163
C           10.48947486418851       66.12041821068664       30.04398707522008
C           11.47455116477813       65.75412419683757       29.03588703116808
C           12.82456493406327       64.07029677449962       27.84391614548067
C           13.26635510504981       62.71503004813072       27.64185357866564
C           13.96170679551546       62.70397274578067       26.46345477049042
C           13.95266478913526       64.06044460040813       25.96907400123958
C           14.78599759202310       65.81575284698239       24.45675034210046
C           15.56324345397603       66.26306041205227       23.30420311455132
C           15.69579409417710       67.61339951527093       23.43848005103924
C           14.96492964700671       67.97720526737260       24.63904952784214
C           13.80919604951826       69.69658283963859       25.96903487380369
C           13.38387736358180       71.06023098168373       26.15734918231006
C           12.35189651163687       71.01946473991791       27.06319843719922
C           12.18512386286197       69.64077897129005       27.43104983302487
C           11.29045094333188       69.19949288273800       28.39667693441050
H           10.67559462052478       69.95566885442508       28.86237167944677
C           11.97663486699522       64.47743520842445       28.86384895130072
H           11.66450806414322       63.71899979976094       29.56644717191390
C           14.55606117667475       64.49161663937997       24.78995458035156
H           14.92062871622787       63.73227059029694       24.10900788288660
C           14.77334065994900       69.28731339551099       25.05737996352152
H           15.36013379143192       70.06642480123563       24.57974577622169
C            9.43194438175650       68.42068244199127       30.65324392453541
H            8.76400876421911       68.92979160335047       29.95246906351149