72
 energy: -105.907337663459 gnorm: 0.214871341118 xtb: 6.7.1 (edcfbbe)
Fe         -16.31700000000000       -4.93300000000000      -20.66100000000000
N          -14.40500000000000       -5.00500000000000      -21.28900000000000
N          -16.47900000000000       -3.01400000000000      -21.46900000000000
N          -18.24600000000000       -4.76100000000000      -19.91800000000000
N          -16.14600000000000       -6.64200000000000      -19.88400000000000
C          -13.55200000000000       -6.08100000000000      -21.23600000000000
C          -12.32400000000000       -5.75400000000000      -21.87300000000000
C          -12.45600000000000       -4.52100000000000      -22.37800000000000
C          -13.74300000000000       -4.05900000000000      -22.04400000000000
C          -15.54300000000000       -2.38300000000000      -22.18300000000000
C          -16.05200000000000       -1.12900000000000      -22.65100000000000
C          -17.36000000000000       -1.05500000000000      -22.23800000000000
C          -17.60700000000000       -2.31100000000000      -21.50200000000000
C          -19.12300000000000       -3.74600000000000      -20.19200000000000
C          -20.39300000000000       -4.03900000000000      -19.65900000000000
C          -20.27600000000000       -5.27200000000000      -19.04799999999999
C          -18.92299999999999       -5.73700000000000      -19.23800000000000
C          -17.06000000000000       -7.29600000000000      -19.15700000000000
C          -16.53100000000000       -8.58700000000000      -18.71600000000000
C          -15.30500000000000       -8.67400000000000      -19.22000000000000
C          -15.06700000000000       -7.45900000000000      -19.96000000000000
C          -13.83100000000000       -7.25600000000000      -20.57100000000000
H          -13.07400000000000       -8.03800000000000      -20.52199999999999
C          -14.22800000000000       -2.81900000000000      -22.42800000000000
H          -13.55200000000000       -2.14200000000000      -22.95000000000000
C          -18.83300000000000       -2.60000000000000      -20.92000000000000
H          -19.63200000000000       -1.86900000000000      -21.04400000000000
C          -18.34600000000000       -6.90300000000000      -18.79799999999999
H          -18.92200000000000       -7.55100000000000      -18.13700000000000
C          -11.43100000000000       -3.73800000000000      -23.13800000000000
H          -10.57400000000000       -4.39700000000000      -23.39200000000000
H          -11.06500000000000       -2.89500000000000      -22.51400000000000
H          -11.87700000000000       -3.34900000000000      -24.07800000000000
C          -11.07200000000000       -6.58900000000000      -22.01400000000000
H          -11.22600000000000       -7.57400000000000      -21.52300000000000
H          -10.21900000000000       -6.07200000000000      -21.52500000000000
H          -10.85000000000000       -6.75300000000000      -23.09000000000000
C          -15.32700000000000       -0.08300000000000      -23.45000000000000
H          -15.60800000000000       -0.17300000000000      -24.52100000000000
H          -14.23000000000000       -0.22900000000000      -23.35200000000000
H          -15.60900000000000        0.92900000000000      -23.08800000000000
C          -18.42200000000000       -0.03800000000000      -22.44900000000000
H          -19.34400000000000       -0.14900000000000      -21.86300000000000
C          -18.39900000000000        1.00300000000000      -23.26700000000000
H          -17.51800000000000        1.19900000000000      -23.89600000000000
H          -19.26000000000000        1.68500000000000      -23.32700000000000
C          -21.65400000000000       -3.21000000000000      -19.77400000000000
H          -21.56000000000000       -2.50900000000000      -20.63000000000000
H          -21.80400000000000       -2.62300000000000      -18.84300000000000
H          -22.52600000000000       -3.87600000000000      -19.94800000000000
C          -21.45400000000000       -5.88400000000000      -18.42800000000000
H          -22.30200000000000       -5.23400000000000      -18.17000000000000
C          -21.59300000000000       -7.15000000000000      -18.14800000000000
H          -20.78800000000000       -7.86400000000000      -18.37600000000000
H          -22.51700000000000       -7.52000000000000      -17.68100000000000
C          -17.18400000000000       -9.65100000000000      -17.87300000000000
H          -18.28300000000000       -9.62900000000000      -18.03400000000000
H          -16.97400000000000       -9.46000000000000      -16.79900000000000
H          -16.79700000000000      -10.65100000000000      -18.16400000000000
C          -14.36600000000000       -9.82900000000000      -19.01400000000000
H          -14.51900000000000      -10.57900000000000      -19.81900000000000
H          -14.56900000000000      -10.30700000000000      -18.03200000000000
H          -13.31500000000000       -9.47000000000000      -19.05100000000000
O          -15.25300000000000       -3.64400000000000      -18.28400000000000
H          -15.25700000000000       -2.70500000000000      -18.46900000000000
H          -14.97700000000000       -4.03100000000000      -17.53300000000000
C          -15.99500000000000       -6.27100000000000      -23.75300000000000
H          -15.09100000000000       -5.62500000000000      -23.78300000000000
H          -16.42000000000000       -6.31400000000000      -24.77800000000000
H          -15.67800000000000       -7.29100000000000      -23.44900000000000
S          -17.22400000000000       -5.62700000000000      -22.59300000000000
H          -17.20100000000000       -4.39300000000000      -23.07400000000000
72
 energy: -105.943990751774 gnorm: 0.080947884716 xtb: 6.7.1 (edcfbbe)
Fe         -16.29302141846410       -4.88700629692730      -20.59970927825059
N          -14.41498806523012       -5.00577393442800      -21.31413138518519
N          -16.47846865645861       -3.01925980819544      -21.45807138497651
N          -18.23963242800876       -4.76138594431581      -19.93437263798449
N          -16.13957755603415       -6.64710332488512      -19.87240405033892
C          -13.54998351327087       -6.06450298750405      -21.22722502966462
C          -12.31184428512846       -5.75613925269267      -21.87864481521936
C          -12.44499533862218       -4.50589343327777      -22.38301383861273
C          -13.75112353463128       -4.04580762551158      -22.03612873670228
C          -15.53836091287208       -2.36009075479454      -22.16729520811221
C          -16.06659144050751       -1.11169132017932      -22.65288307037433
C          -17.37596331289004       -1.04872714846054      -22.24131635565019
C          -17.60635107553702       -2.28609339527962      -21.48799339075437
C          -19.11476440064589       -3.74894752640494      -20.20103284459658
C          -20.39864725270451       -4.04126977722280      -19.65908678946593
C          -20.29253835043271       -5.26730930571357      -19.04533459576914
C          -18.92731506726517       -5.71380295244482      -19.23776404085107
C          -17.06597107396809       -7.30385065769741      -19.13719407378068
C          -16.54354237176905       -8.59484322087126      -18.70626706571667
C          -15.29762460854661       -8.68670070917610      -19.21339256708274
C          -15.05648201614397       -7.46863665176868      -19.94889122577767
C          -13.84028616632338       -7.24165456949235      -20.56864921412193
H          -13.09042305594647       -8.02020779337769      -20.52973624514378
C          -14.24227016046791       -2.80890625264553      -22.41204272634773
H          -13.57245322416338       -2.15169258527688      -22.95080624735546
C          -18.82311326350824       -2.59755643626294      -20.91452387839303
H          -19.62331263956658       -1.88162137661399      -21.03825235981992
C          -18.34495708100012       -6.88838215803280      -18.79665602686461
H          -18.91476937889920       -7.53735005711028      -18.14758875623438
C          -11.42601028445753       -3.73095465158364      -23.14368505950167
H          -10.57952613084792       -4.37510311292321      -23.39512257615212
H          -11.06256368123839       -2.89577137797949      -22.53597498724390
H          -11.85864393738264       -3.34021655686824      -24.06979566125450
C          -11.08086648141264       -6.60056437148846      -22.00714956311860
H          -11.21530947274463       -7.57286073697748      -21.52846995074442
H          -10.23265314841326       -6.09205681494169      -21.53598231734355
H          -10.84731521478740       -6.75954698193673      -23.06555980813819
C          -15.32689285420253       -0.08653271080871      -23.44780903691801
H          -15.59593442228384       -0.16588031939993      -24.50814039267061
H          -14.24491236320175       -0.21741119295025      -23.35621620679909
H          -15.59123747753632        0.91452725725111      -23.09497903731211
C          -18.41172016361168       -0.04077247376021      -22.44629557614423
H          -19.31996858266702       -0.16375337225643      -21.85984485780351
C          -18.38839130038581        1.00260162770247      -23.26927710065421
H          -17.53962539680873        1.20682585892761      -23.90610982689638
H          -19.23500605505411        1.67664113801774      -23.33280756157456
C          -21.64216384720147       -3.21176846919120      -19.77629989980707
H          -21.56697756052865       -2.51667404267716      -20.61653691522030
H          -21.80531894693137       -2.63193045066688      -18.86048073120320
H          -22.51071076525684       -3.85525703869000      -19.94434699889205
C          -21.44343583195655       -5.88798263527161      -18.41241833507768
H          -22.27621122225712       -5.22683365340919      -18.17807368928112
C          -21.59399601964246       -7.17333954444511      -18.13564537658145
H          -20.82368941306044       -7.89133642520058      -18.37705445090112
H          -22.50583664259912       -7.54154420472124      -17.68383151500909
C          -17.20412076601159       -9.64279115706954      -17.87234664136435
H          -18.28584233473476       -9.63789452699239      -18.02144149166245
H          -16.99044036322070       -9.46930226883273      -16.81152664560050
H          -16.81892809425396      -10.62827452048722      -18.15128176246697
C          -14.35755468400978       -9.82987847563313      -19.01947892732649
H          -14.50410170140078      -10.57628628142805      -19.80870015061328
H          -14.55053365204637      -10.30279820916921      -18.05297313770618
H          -13.31935769117646       -9.49083582837857      -19.04416712491447
O          -15.28321521691625       -3.66816589284465      -18.35503249862560
H          -15.26482742413754       -2.72296750043837      -18.48863526602521
H          -14.98344416098656       -4.05143650485013      -17.54835499900711
C          -15.98054036578873       -6.27324144805563      -23.76593731038373
H          -15.09635498111056       -5.63029762826331      -23.78035697210034
H          -16.42032106844157       -6.31941669328072      -24.76716295178396
H          -15.68599409924741       -7.27661104491909      -23.44895097749368
S          -17.20488218862752       -5.64171269572729      -22.58414063343199
H          -17.22325234241262       -4.41438681081794      -23.10419723810410
72
 energy: -105.957937023628 gnorm: 0.031149751891 xtb: 6.7.1 (edcfbbe)
Fe         -16.28355624007555       -4.85349021264681      -20.58192144088535
N          -14.41023199038539       -4.98590778333341      -21.30504620895256
N          -16.46887824552033       -3.00342668540361      -21.41703191254897
N          -18.22454804541080       -4.75150154301949      -19.92652213848276
N          -16.12660765050318       -6.64128518436246      -19.84023028140430
C          -13.55103433858052       -6.04057330178270      -21.21380488167205
C          -12.30577549862787       -5.74883143395459      -21.87889634355671
C          -12.43664396529938       -4.48897690891177      -22.38203691663646
C          -13.75398605700543       -4.02825379409312      -22.02006539003083
C          -15.53144039904213       -2.33115892462460      -22.14002829553410
C          -16.07276279009564       -1.09217784251325      -22.64514681892390
C          -17.38256915757512       -1.03810912203693      -22.23331146449116
C          -17.60121302298476       -2.25557514682250      -21.46393483367705
C          -19.10207838194073       -3.74814817614387      -20.19931116665685
C          -20.39796969768659       -4.04420017052185      -19.65807871214128
C          -20.29716632728607       -5.26746093936134      -19.04262181895569
C          -18.92019078512135       -5.69343540027846      -19.23219097685096
C          -17.06322658477572       -7.30559344936787      -19.10633508529672
C          -16.55101980074001       -8.59842951875767      -18.69303026657949
C          -15.29349897932988       -8.69511600771277      -19.20000812807427
C          -15.04623187214028       -7.47043738946534      -19.92176717212291
C          -13.85104695025053       -7.22160356767055      -20.56392405087682
H          -13.10421705688855       -7.99855672094610      -20.54077085401732
C          -14.25326042619494       -2.79602043211119      -22.39627382048136
H          -13.58956940893444       -2.15754765190408      -22.95800031026741
C          -18.81419181743496       -2.59324409490849      -20.90426711743371
H          -19.62260238797356       -1.89380518503491      -21.03076055434106
C          -18.33989055110247       -6.87341866592538      -18.79209561590757
H          -18.91682939394619       -7.52493399876675      -18.16008387327444
C          -11.42219009177200       -3.71906283768766      -23.14914114940969
H          -10.58156123127625       -4.35622300826801      -23.39959630479380
H          -11.05671303655467       -2.88440692890913      -22.55519048593604
H          -11.84675340829043       -3.32642793847727      -24.06883825345402
C          -11.09322783631921       -6.60828811033818      -21.99942888620422
H          -11.22454037123059       -7.57250747319875      -21.52619352994569
H          -10.24212046225169       -6.11132949951048      -21.53719617941111
H          -10.85114346023206       -6.76995240968134      -23.04840632282048
C          -15.32411793180361       -0.08561653337808      -23.44477254873104
H          -15.58805289631530       -0.16154961238691      -24.49926389892153
H          -14.25157351618263       -0.21838973073771      -23.35389283077210
H          -15.57488604498848        0.91322209426386      -23.10006658798975
C          -18.40093370787607       -0.04273887612388      -22.44618758374761
H          -19.29658011371611       -0.16923446726027      -21.85268047804718
C          -18.37785478432586        0.99700912969540      -23.27884252384450
H          -17.55098547601110        1.21061198463141      -23.92419215488782
H          -19.21186909461866        1.67318502485497      -23.33508470464854
C          -21.62926940892647       -3.21195915970344      -19.78126806589891
H          -21.56119047260329       -2.51814843376868      -20.61176368038305
H          -21.79896310357677       -2.63715960367589      -18.87131334859550
H          -22.49752220306868       -3.84347155155821      -19.94605284026606
C          -21.42628985743747       -5.90406417412271      -18.40633829701444
H          -22.23908560174253       -5.22859732685383      -18.17037226934228
C          -21.59213992554955       -7.19786136543440      -18.13806001415050
H          -20.84530184698390       -7.92580879773290      -18.37807592907834
H          -22.49387281538232       -7.55750364543239      -17.67985455662371
C          -17.22620377707774       -9.63640389779849      -17.86916491045266
H          -18.29902988638516       -9.63441124876065      -18.01332373566054
H          -17.01614209074487       -9.47357407480773      -16.81306874433212
H          -16.84602364914232      -10.61720298932107      -18.14003360466629
C          -14.35104849441277       -9.83357404605975      -19.02204640938071
H          -14.49074326866230      -10.57497385572634      -19.80722462048249
H          -14.53405947321161      -10.31143546184395      -18.06517558461625
H          -13.31967768928635       -9.50205585715587      -19.04239969868049
O          -15.33930339631170       -3.72975650181165      -18.47522409886740
H          -15.28338184681672       -2.77195342126925      -18.53630602639234
H          -15.02034432861693       -4.09124427243821      -17.64171367476756
C          -15.96464825470219       -6.28268606366529      -23.77660815502338
H          -15.09772228775041       -5.63438158896100      -23.77537583024781
H          -16.41484091251265       -6.32641391696650      -24.76191193879815
H          -15.68321854445308       -7.27570899054538      -23.45031975477607
S          -17.21054567810619       -5.66838798273013      -22.59530821708499
H          -17.27008989991868       -4.44434332696343      -23.13822512078005
72
 energy: -105.964547383820 gnorm: 0.025172289131 xtb: 6.7.1 (edcfbbe)
Fe         -16.27097799922451       -4.82027714435676      -20.54765108262614
N          -14.40475737679668       -4.96309538239564      -21.29067801500842
N          -16.46384600457297       -2.99118188938010      -21.39293172377074
N          -18.21161300818342       -4.74039370912937      -19.91314351854118
N          -16.11260167526060       -6.63146026165019      -19.80254825483147
C          -13.55289598370824       -6.01934855595965      -21.19928159179387
C          -12.30643470543783       -5.73626496504921      -21.87431837977599
C          -12.43230244419054       -4.47491754437586      -22.37810704205983
C          -13.75087735465582       -4.01068405907318      -22.00646477556416
C          -15.52725618995530       -2.31269785076504      -22.12107000934850
C          -16.07038266081050       -1.07980343162058      -22.63430553194438
C          -17.38005682739299       -1.02835014029132      -22.22156541957942
C          -17.59700509359191       -2.23652204174654      -21.44653022239056
C          -19.09200271315653       -3.74356020776412      -20.19112997960492
C          -20.39304766119524       -4.04827138900288      -19.65759279977710
C          -20.28920435217292       -5.27165461944097      -19.04168635725293
C          -18.90612021969377       -5.68333510559676      -19.22503332965639
C          -17.05441825747819       -7.30277328579557      -19.07705903652613
C          -16.55056320612858       -8.59823888727724      -18.67761360394126
C          -15.28975436694839       -8.69724083413408      -19.18380368118134
C          -15.03727422666480       -7.46551054821776      -19.89184230739877
C          -13.85394775036008       -7.20186481133862      -20.55155386934743
H          -13.10795742623276       -7.98074519875738      -20.54948239617435
C          -14.25443405089953       -2.78151755970150      -22.38449431192054
H          -13.59748904799582       -2.15410635435427      -22.96695376148709
C          -18.80885203011998       -2.58585991733734      -20.89127696470121
H          -19.62654353802186       -1.89773705109293      -21.02314525236185
C          -18.33139509771798       -6.86279979293523      -18.78097119649543
H          -18.92343967430376       -7.51632229195399      -18.16456916896684
C          -11.42022243173167       -3.70585242427706      -23.15206869549963
H          -10.57916088726163       -4.34266954846652      -23.40369105480362
H          -11.05111429885888       -2.86598943410411      -22.56599244255819
H          -11.84470637153705       -3.31358735181797      -24.07283477983483
C          -11.10567668356929       -6.61178273179267      -21.99140478312950
H          -11.24875064496793       -7.57408017065242      -21.51626475043717
H          -10.24653133895041       -6.12668567259903      -21.52965486102587
H          -10.86120313748565       -6.78121952700777      -23.03926084621243
C          -15.31806967722628       -0.08131028937492      -23.43920930861452
H          -15.58291852256290       -0.15781828836317      -24.49344922456265
H          -14.24673312545426       -0.22349541772198      -23.34839683925535
H          -15.55917531622169        0.92271182091647      -23.09984262737526
C          -18.39210078210546       -0.03294071789084      -22.44066612718205
H          -19.28405846844433       -0.15712196030833      -21.84238304683875
C          -18.36780715314145        0.99974229630230      -23.28280980256375
H          -17.55563830971974        1.20363408708002      -23.95148379761241
H          -19.20236354110517        1.67475532440869      -23.34214013014020
C          -21.62049255870410       -3.21305663920853      -19.78453870508423
H          -21.55003591480903       -2.51753685652658      -20.61352829647989
H          -21.79032372039664       -2.63817119994844      -18.87397859313943
H          -22.49163964372017       -3.84117614761481      -19.95029157584341
C          -21.40495968983260       -5.92106752971587      -18.39669114928435
H          -22.20828215056990       -5.23732003480087      -18.15220825933447
C          -21.58197392945358       -7.21515711481907      -18.13321881540471
H          -20.86148532732632       -7.96394527992923      -18.40118433877364
H          -22.48758681160396       -7.56787827347405      -17.67509204389607
C          -17.24485616824108       -9.63232741122655      -17.86266100985442
H          -18.31762755487411       -9.62090284516302      -18.01354621443022
H          -17.04536878007297       -9.47426103172842      -16.80309901450905
H          -16.87292442667361      -10.61751058480117      -18.13002529476376
C          -14.34550983865805       -9.83784239782090      -19.02186774931065
H          -14.48280271688408      -10.57263938342089      -19.81424040958742
H          -14.52177363267903      -10.32905421521965      -18.06938582581731
H          -13.31377032125745       -9.50432924189850      -19.04236498832161
O          -15.41510694193040       -3.80498958039657      -18.61811907861799
H          -15.31489543848763       -2.84230061675600      -18.62547007326941
H          -15.07425191396233       -4.15664391293199      -17.78317399099400
C          -15.95355609002509       -6.28923355912089      -23.77737466816661
H          -15.09289723642805       -5.63444743210298      -23.77098257517610
H          -16.40751685932531       -6.33600985705527      -24.75997388228750
H          -15.67174808125104       -7.27964814554830      -23.44554896884367
S          -17.20462054977617       -5.67950643187174      -22.58901759862687
H          -17.31831206984149       -4.46879944073799      -23.16706017851102
72
 energy: -105.967605372882 gnorm: 0.018626830620 xtb: 6.7.1 (edcfbbe)
Fe         -16.28845995330238       -4.82980850686074      -20.59095563191515
N          -14.40288110443169       -4.94414504725952      -21.27925078294128
N          -16.46030002028621       -2.97858747884345      -21.37691292859393
N          -18.19888125970414       -4.72929228900953      -19.90171068231975
N          -16.10555989117350       -6.62810228121306      -19.78154434460259
C          -13.55417068649611       -6.00158709534137      -21.18302493649347
C          -12.30873185568730       -5.72205408724170      -21.86396295459232
C          -12.42922744179191       -4.46227262383095      -22.36933647027963
C          -13.74544644503026       -3.99413939560099      -21.99374180338404
C          -15.52338270921723       -2.29820824767009      -22.10392447949474
C          -16.06377437485481       -1.06839060021792      -22.61937544050962
C          -17.37343162999394       -1.01623552713442      -22.20649092912966
C          -17.59149348504060       -2.22073874989900      -21.42858551947786
C          -19.08234852279428       -3.73566195862010      -20.17878042403682
C          -20.38445886709878       -4.05022048233938      -19.65294776640169
C          -20.27512605649110       -5.27509511166128      -19.04042006856718
C          -18.88882821295227       -5.67598685337206      -19.21648523565277
C          -17.04421232435005       -7.29775256521251      -19.05313608665223
C          -16.54524344409317       -8.59497017999758      -18.65973711067509
C          -15.28442034723512       -8.69461517060308      -19.16522616753900
C          -15.02977243771639       -7.45861415023801      -19.86611199696275
C          -13.85238757132829       -7.18492419242211      -20.53548694921679
H          -13.10506231063525       -7.96370033949870      -20.54849191708104
C          -14.25087350696831       -2.76697841646349      -22.37407740796418
H          -13.60005082307434       -2.14432528597563      -22.96875221384683
C          -18.80394327649174       -2.57518337185032      -20.87593374758019
H          -19.62749767232726       -1.89325120702231      -21.01145557010204
C          -18.32188816151882       -6.85423833291531      -18.76736306798913
H          -18.92897971449600       -7.50531437411236      -18.16103244635961
C          -11.42024928586874       -3.69330802338207      -23.15091754563570
H          -10.57689938956225       -4.32972333674326      -23.40446263569159
H          -11.04875032907588       -2.84713971378612      -22.57174415218855
H          -11.84841780838155       -3.30486830691593      -24.07409827574980
C          -11.11805507274125       -6.61313555154381      -21.98167670617420
H          -11.27818251981095       -7.57430904650441      -21.50381271220742
H          -10.25012099729619       -6.14186666738324      -21.51827934027191
H          -10.87581469133829       -6.79063222222600      -23.03017966756218
C          -15.31051612013015       -0.07419616138805      -23.43017769045942
H          -15.57798239805751       -0.15357018731694      -24.48495827935096
H          -14.23819083736493       -0.22352329015569      -23.34115205247955
H          -15.54451782317306        0.93496405096279      -23.09533676719737
C          -18.38649703299073       -0.02007285814286      -22.43634973073651
H          -19.27222326682800       -0.12942226266845      -21.82359449021813
C          -18.36351659791268        0.99782641049460      -23.29577424760155
H          -17.55442260378704        1.19307514062088      -23.97341566743917
H          -19.19357320512702        1.68199557803936      -23.35045029529538
C          -21.61322143328990       -3.21621771811685      -19.78397682902008
H          -21.53886205295163       -2.52056675982115      -20.61480750324004
H          -21.78317485507079       -2.63860859444398      -18.87342539613347
H          -22.48593546924852       -3.84403347675852      -19.95204007094251
C          -21.38515535591968       -5.93755175303237      -18.39451770068337
H          -22.17731921967879       -5.24926196396326      -18.11902832111323
C          -21.57295193876137       -7.23225383779414      -18.14724267223576
H          -20.86808158577833       -7.99475264750221      -18.42738485351796
H          -22.47264011231091       -7.57668253095680      -17.66477781104476
C          -17.25992517310105       -9.62667711851489      -17.85461275400406
H          -18.33316472438452       -9.60084340476919      -18.02073613828582
H          -17.07697980354875       -9.47201519442969      -16.78975278235388
H          -16.89835994171669      -10.61826912347526      -18.11846164513309
C          -14.33995536486746       -9.83959889099778      -19.01993694262377
H          -14.47790178383566      -10.56479287823542      -19.82349907366656
H          -14.51159722178478      -10.34723047295333      -18.07286659119765
H          -13.30653846733358       -9.50364863501997      -19.04081759369554
O          -15.48466626897221       -3.86470807445577      -18.71785025487140
H          -15.34807922772173       -2.91075794718485      -18.71871115723182
H          -15.11258266177303       -4.20396557144901      -17.89101680359215
C          -15.94622398609342       -6.30007915490751      -23.78507336420978
H          -15.09229980529010       -5.63195761414790      -23.75830866866207
H          -16.38065172172304       -6.35111839976579      -24.77648597165954
H          -15.65729035382050       -7.28789503881905      -23.44588534061981
S          -17.24050958206981       -5.71458968109565      -22.62690322436648
H          -17.36516780292507       -4.50562314692551      -23.19424519927762
72
 energy: -105.968881674188 gnorm: 0.016788891634 xtb: 6.7.1 (edcfbbe)
Fe         -16.29353192109653       -4.83080870701003      -20.59550081811257
N          -14.40869782199899       -4.93995878286484      -21.28444784614928
N          -16.46957481677546       -2.98535859591544      -21.40062421034713
N          -18.19754347119162       -4.73046079004933      -19.91396767649107
N          -16.10554483077249       -6.63189589343125      -19.77736421258942
C          -13.55940407853965       -5.99750772591063      -21.18123933236859
C          -12.31249322038705       -5.71453770858583      -21.85617683857111
C          -12.42950281515725       -4.45732978351613      -22.36342670985764
C          -13.74601613585230       -3.99027238965340      -21.99749812120258
C          -15.52740753790983       -2.29987868692946      -22.11215338898437
C          -16.05937948109397       -1.06289482888408      -22.61276270173530
C          -17.36843939042807       -1.00713596282807      -22.19808800106475
C          -17.59456826451513       -2.22102620849239      -21.43635502935493
C          -19.08177181224934       -3.73462318833064      -20.18216575948216
C          -20.37923745332735       -4.05209897134743      -19.65083077789074
C          -20.26354754596951       -5.27760154535101      -19.04113782309039
C          -18.88010960097468       -5.67829759177674      -19.22264203177329
C          -17.04046107744698       -7.29874038616632      -19.04774728704307
C          -16.53956244200910       -8.59334799959316      -18.64778957100732