78
 energy: -116.058025745981 gnorm: 0.000096380159 xtb: 6.7.1 (edcfbbe)
Fe         -34.81492860750232        4.14893143744781       -3.03339538690097
N          -36.68165649128166        3.78996493639292       -2.44092949022284
N          -34.55883693927267        5.41592430485472       -1.51208981439003
N          -32.94747500440995        4.54634996376558       -3.68151547025099
N          -35.08013511218684        2.91795722232588       -4.60128468438833
C          -37.57730684336311        2.94573207456681       -3.01401995376013
C          -38.82861197378870        2.95363692967797       -2.28622696679173
C          -38.66578297697615        3.82744735511978       -1.25837047848030
C          -37.31530833518217        4.33670385327620       -1.37017963233973
C          -35.47269158117246        5.73857151619095       -0.55820454772792
C          -34.92254391196634        6.67885701754539        0.38487350905672
C          -33.63801649751775        6.92330021615084       -0.02147098783904
C          -33.43386607752200        6.11248377590490       -1.20749284671176
C          -32.03291409838961        5.35602567520157       -3.07769234055889
C          -30.79632825411937        5.36977964932701       -3.81397897048315
C          -30.97863868979463        4.54138246492146       -4.89083390438251
C          -32.32861424247900        4.02772075122773       -4.77504622338465
C          -34.17665330817127        2.62225310312312       -5.57579480647668
C          -34.72601975542815        1.66338056599765       -6.50783207078115
C          -35.98061097147526        1.37769201791616       -6.06589478668510
C          -36.18321785504882        2.17113404889760       -4.87486937459995
C          -37.35324626615156        2.17678559399207       -4.14027799716052
H          -38.15600595791383        1.53931459684923       -4.47769151815768
C          -36.76408254889328        5.24408297661839       -0.48829126080601
H          -37.39205887687787        5.60123184935076        0.31378772195825
C          -32.25673231317192        6.09453989742596       -1.92912703776654
H          -31.44768545806765        6.71595779605072       -1.57720680420866
C          -32.90058482862496        3.14574665162572       -5.67477743045981
H          -32.29884675412423        2.82564609516727       -6.51148863863316
C          -39.63194108773106        4.23119660752817       -0.19771224159395
H          -40.58420249948565        3.72303813420423       -0.32807397503140
H          -39.80922868099149        5.30610892688250       -0.23244644651465
H          -39.24456400914638        3.98442824700110        0.79146476667821
C          -40.02165940612971        2.14050608014371       -2.65570416399460
H          -39.77800874846263        1.07777263799430       -2.65241998906460
H          -40.36971227702218        2.40425812829767       -3.65457722705675
H          -40.83600416209121        2.30736789687503       -1.95491647580456
C          -35.62740766821251        7.19942854702900        1.58882988838454
H          -36.23921833361352        6.42273059741663        2.04570771734374
H          -36.28181603559342        8.03178121760316        1.32543028870971
H          -34.90424754511143        7.55013274463048        2.32246564487269
C          -32.63523107019923        7.77478625037895        0.57916351278127
H          -31.61224158118041        7.42641725639716        0.49294643664860
C          -32.87226916151956        8.92357590767117        1.20419807557907
H          -33.86056401970821        9.34250554446594        1.27709647123822
H          -32.07518725605158        9.50187016806388        1.64150930731756
C          -29.56458410423758        6.09994893782034       -3.40669999854407
H          -29.43395223141346        6.06054823893776       -2.32632738433980
H          -29.61740454639033        7.14935127473026       -3.70178727298852
H          -28.69221714999605        5.65350681354195       -3.87961496743686
C          -30.04935166648140        4.18802562256648       -5.94103508723311
H          -30.13945599737609        3.17900723038148       -6.32697997984890
C          -29.12690437465279        4.99335388558700       -6.45778977474439
H          -29.02292612641336        6.01873269907261       -6.14864405515728
H          -28.45642231879410        4.65821262525778       -7.23171791137540
C          -33.99850708089393        1.13348769620958       -7.69582153203911
H          -33.09661753143039        0.60299742732952       -7.38870140871049
H          -33.70221103639627        1.94626489314757       -8.35947893131958
H          -34.62508115524657        0.44488002256320       -8.25721828873691
C          -36.99636002483187        0.45177679035927       -6.64159409288729
H          -37.26699755776304       -0.31687764221716       -5.91746923397391
H          -36.61303558512542       -0.03771315941344       -7.53355604069151
H          -37.90211388084187        0.99568548870428       -6.91095099899167
O          -35.49419444826209        5.84840613541970       -4.41694338638162
H          -34.65519488940901        6.29739175591984       -4.56688386638967
H          -35.69104110835909        5.34237320356671       -5.21283156071966
C          -32.15592054878639       -0.36897202099983       -1.13510170483817
H          -32.74960455576895       -1.25573882550118       -0.91319669234681
H          -31.42950593655951       -0.23584812365863       -0.33352189938507
H          -31.62125639271634       -0.53206473173602       -2.06552776173736
N          -33.81390686461619        1.28033899289606       -0.23942433077271
H          -33.88558100597957        0.86544308374389        0.67511293223552
C          -33.02423730975650        0.82848627882194       -1.26408760901962
C          -34.47008341725019        2.37727627287735       -0.68048948086934
H          -35.16089793449057        2.94282288691485       -0.08941577985771
N          -34.14403773616800        2.64684281359817       -1.92145566910627
C          -33.24580839272107        1.69222701022842       -2.29808830163032
H          -32.82168301771326        1.69038719381422       -3.28039732733124
