78
 energy: -115.991832857779 gnorm: 0.233939534043 xtb: 6.7.1 (edcfbbe)
Fe         -34.73900000000000        4.01700000000000       -2.99000000000000
N          -36.68400000000000        3.79200000000000       -2.47700000000000
N          -34.52900000000000        5.35800000000000       -1.50200000000000
N          -32.86000000000000        4.42400000000000       -3.66800000000000
N          -35.02600000000000        2.82000000000000       -4.62300000000000
C          -37.57700000000000        2.94200000000000       -3.07100000000000
C          -38.77800000000000        2.98600000000000       -2.30900000000000
C          -38.63100000000000        3.84000000000000       -1.26600000000000
C          -37.29500000000000        4.33300000000000       -1.37700000000000
C          -35.42900000000000        5.67600000000000       -0.52100000000000
C          -34.83400000000000        6.62000000000000        0.42800000000000
C          -33.59100000000000        6.84300000000000        0.00400000000000
C          -33.37900000000000        6.07400000000000       -1.19700000000000
C          -31.96200000000000        5.34200000000000       -3.11400000000000
C          -30.81700000000000        5.46700000000000       -3.96400000000000
C          -30.99000000000000        4.61900000000000       -5.02200000000000
C          -32.25100000000000        3.97500000000000       -4.83900000000000
C          -34.10900000000000        2.54500000000000       -5.61800000000000
C          -34.64999999999999        1.66700000000000       -6.56700000000000
C          -35.98299999999999        1.49900000000000       -6.19800000000000
C          -36.23000000000000        2.19600000000000       -4.93800000000000
C          -37.38300000000000        2.21900000000000       -4.20000000000000
H          -38.21300000000000        1.60500000000000       -4.55000000000000
C          -36.73399999999999        5.21600000000000       -0.45500000000000
H          -37.35999999999999        5.56500000000000        0.36600000000000
C          -32.21700000000000        6.06900000000000       -1.93400000000000
H          -31.40500000000000        6.69600000000000       -1.56500000000000
C          -32.84500000000000        3.02700000000000       -5.68500000000000
H          -32.21900000000000        2.63400000000000       -6.48600000000000
C          -39.60700000000000        4.20100000000000       -0.18100000000000
H          -40.55499999999999        3.64300000000000       -0.33400000000000
H          -39.82099999999999        5.29100000000000       -0.21600000000000
H          -39.18500000000000        3.92800000000000        0.81000000000000
C          -40.05399999999999        2.10500000000000       -2.59700000000000
H          -39.74400000000000        1.14100000000000       -3.05300000000000
H          -40.72600000000000        2.63800000000000       -3.30300000000000
H          -40.59000000000000        1.89800000000000       -1.64600000000000
C          -35.57100000000000        7.17000000000000        1.62100000000000
H          -36.18000000000000        6.36500000000000        2.08400000000000
H          -36.24600000000000        7.99200000000000        1.29900000000000
H          -34.84300000000000        7.54800000000000        2.37100000000000
C          -32.57900000000000        7.79600000000000        0.56400000000000
H          -31.51800000000000        7.50700000000000        0.55800000000000
C          -32.88100000000000        9.01800000000000        1.09100000000000
H          -33.92300000000000        9.36800000000000        1.12800000000000
H          -32.08600000000000        9.66800000000000        1.48500000000000
C          -29.64000000000000        6.35600000000000       -3.69800000000000
H          -29.60700000000000        6.61500000000000       -2.61800000000000
H          -29.73500000000000        7.29200000000000       -4.29000000000000
H          -28.70100000000000        5.82800000000000       -3.97100000000000
C          -30.15300000000000        4.38700000000000       -6.27000000000000
H          -30.51200000000000        3.65700000000000       -7.01000000000000
C          -29.01100000000000        4.99400000000000       -6.55300000000000
H          -28.58700000000000        5.73700000000000       -5.86100000000000
H          -28.47100000000000        4.76300000000000       -7.48300000000000
C          -33.96900000000000        1.12200000000000       -7.80300000000000
H          -33.06400000000000        0.55000000000000       -7.50600000000000
H          -33.66400000000000        1.96100000000000       -8.46500000000000
H          -34.66200000000000        0.44300000000000       -8.34500000000000
C          -37.07300000000000        0.71800000000000       -6.95800000000000
H          -37.07999999999999       -0.33800000000000       -6.61400000000000
H          -36.85999999999999        0.74100000000000       -8.04800000000000
H          -38.06800000000000        1.16900000000000       -6.75600000000000
O          -35.17500000000000        5.52900000000000       -4.35700000000000
H          -34.33200000000000        5.90000000000000       -4.61700000000000
H          -35.97500000000000        5.78600000000000       -4.64700000000000
C          -32.00200000000000       -0.19800000000000       -0.33600000000000
H          -32.31100000000000       -1.21400000000000       -0.66200000000000
H          -31.91600000000000       -0.18500000000000        0.77200000000000
H          -31.02000000000000        0.04500000000000       -0.79600000000000
N          -34.32500000000000        0.75800000000000       -0.38500000000000
H          -34.70800000000000        0.09800000000000        0.26100000000000
C          -33.02400000000000        0.79700000000000       -0.77400000000000
C          -34.99399999999999        1.74100000000000       -1.00800000000000
H          -36.05600000000000        1.93600000000000       -0.86300000000000
N          -34.17400000000000        2.41700000000000       -1.80600000000000
C          -32.95800000000000        1.83000000000000       -1.63900000000000
H          -32.10400000000000        2.21900000000000       -2.17900000000000
78
 energy: -116.032054182853 gnorm: 0.088182309599 xtb: 6.7.1 (edcfbbe)
Fe         -34.72963562301972        4.01627755688170       -2.99227211945052
N          -36.67153724962204        3.78700507757963       -2.46806653441971
N          -34.51110154441310        5.34850551612792       -1.49033360744446
N          -32.84724601801695        4.42298593851104       -3.66769790006790
N          -35.02746978800198        2.82039133873521       -4.60824704768940
C          -37.57670530343362        2.94846274200892       -3.06115501651084
C          -38.80068634771395        2.96366942487187       -2.30538756591802
C          -38.63695931478345        3.82887800302653       -1.26757626012729
C          -37.29012992433009        4.32925074616083       -1.38051114118264
C          -35.41865433745468        5.67495297349306       -0.52643569837200
C          -34.84199196306150        6.62164915777862        0.42124467512052
C          -33.57762989198497        6.86394977043271       -0.00476981460276
C          -33.37007102068568        6.06000661590353       -1.19786425396727
C          -31.96699216579921        5.33512261503411       -3.12340514360591
C          -30.80927667614827        5.45892836716836       -3.96359381536463
C          -30.98737343670302        4.61377936802386       -5.03548155163282
C          -32.25419980857702        3.96879487234266       -4.82519380300164
C          -34.11661037003279        2.52800078656541       -5.58800229504541
C          -34.68610434196060        1.66376219147794       -6.57204765143896
C          -35.99521715735962        1.48376826330084       -6.20477024154221
C          -36.20057571171796        2.18986725278957       -4.95101850365590
C          -37.36764917941397        2.21734548171657       -4.21070828362288
H          -38.19718427050073        1.61243526537907       -4.56209227938628
C          -36.72239640777950        5.21081678614930       -0.46740267327306
H          -37.34859488836470        5.55750451235107        0.34704232439674
C          -32.21189779855157        6.05449245354751       -1.94578780378400
H          -31.41019103670127        6.69021665358208       -1.58412115190737
C          -32.83721310999767        3.02333396350898       -5.66477060835390
H          -32.22710818824104        2.65333404985542       -6.48279384690500
C          -39.60463921997012        4.19648644772834       -0.18886194664688
H          -40.54572231601953        3.65645380101473       -0.32585561469944
H          -39.81741581379450        5.27129430914555       -0.21029404359464
H          -39.19594615805958        3.93961298486372        0.79560673161765
C          -40.03581810093665        2.11495794035363       -2.59735276004912
H          -39.74540854696789        1.16026661024569       -3.04424649958438
H          -40.70900155478128        2.63283216558949       -3.28855360141531
H          -40.57572100828365        1.90795518400790       -1.66903783327188
C          -35.56781982779513        7.16209427738696        1.61352906687298
H          -36.17294192304878        6.37866770228224        2.08148397839405
H          -36.23619534844156        7.97748821548422        1.31159537544097
H          -34.85758407877132        7.54404292568747        2.35451930996127
C          -32.58977468125462        7.79898144870376        0.56430091846835
H          -31.54247676868401        7.50020771509181        0.54533811385673
C          -32.88347826004686        8.99328515771568        1.08689894570863
H          -33.90149626564266        9.36189837731161        1.11854953944156
H          -32.10613546588945        9.64415997498855        1.47392808064492
C          -29.64540523438937        6.35364915386856       -3.68759894390946
H          -29.60432243725523        6.62116866507697       -2.62837682388894
H          -29.72300574740827        7.27710392648803       -4.27615476430784
H          -28.71174997010990        5.84465048184216       -3.94364853461780
C          -30.15973979721542        4.39115106424005       -6.24419659808977
H          -30.53383324888338        3.66764311662709       -6.96745061072561
C          -29.01552582699700        4.99624159355611       -6.54652851970832
H          -28.57802177794780        5.73872127737726       -5.89704952677060
H          -28.48310092676850        4.76718662372308       -7.46364688819474
C          -33.98520519062558        1.12740048847170       -7.78847257431990
H          -33.08709770776152        0.56270362026015       -7.50738849665519
H          -33.67384748519781        1.94385723282287       -8.45193485630645
H          -34.64824284316454        0.45653743619851       -8.34101982130680
C          -37.06326169405963        0.71877319785705       -6.94915281739964
H          -37.08276441669219       -0.32638101001083       -6.62017094991256
H          -36.86794818324830        0.74020599222203       -8.02555779499281
H          -38.04628864530092        1.16032591011442       -6.76230367765140
O          -35.17439160677541        5.55948147238645       -4.33938962249063
H          -34.34299738236425        5.92635712790661       -4.64404715216196
H          -36.01119661467868        5.82253783391963       -4.67778281390809
C          -32.00641599782987       -0.19591115018468       -0.33544310733165
H          -32.29999973687325       -1.20348062037756       -0.65221068106161
H          -31.90952356672270       -0.19027877546412        0.75610788432323
H          -31.03814841376944        0.04084172664112       -0.78261664592286
N          -34.32740782918429        0.75311230128349       -0.38269747745453
H          -34.71397747345184        0.09042417791027        0.26661123190163
C          -33.02193820271838        0.79509010615867       -0.78139909726168
C          -34.99239119238518        1.74323659347377       -1.00796971974960
H          -36.04144910346959        1.93562030357562       -0.86737424834941
N          -34.17902135535282        2.42621592066773       -1.79141033704602
C          -32.95668605038743        1.83982932337678       -1.65229292253372
H          -32.10911612825289        2.22481190608532       -2.18776124058519
78
 energy: -116.043813304735 gnorm: 0.028301209192 xtb: 6.7.1 (edcfbbe)
Fe         -34.72917361027558        4.01656395369055       -2.99930333493239
N          -36.66260412276500        3.77751259033318       -2.46525717871292
N          -34.49099272148248        5.33191592778713       -1.48189881918912
N          -32.83804223389944        4.41608774574046       -3.66155789480613
N          -35.02343540019636        2.80977865363458       -4.59174282873719
C          -37.57143293733314        2.94734159260697       -3.05357099423916
C          -38.81121342688893        2.94654713750600       -2.30456938697287
C          -38.63529964453502        3.81813744912847       -1.27059685627145
C          -37.28192456268852        4.31918307505218       -1.38357289902429
C          -35.40484637999646        5.66460874044535       -0.53227614317837
C          -34.84672750712776        6.61812883620986        0.40642734716665
C          -33.56956292644897        6.87063915843440       -0.01610277388107
C          -33.36256766930514        6.04125457361908       -1.19895996189870
C          -31.96953380668351        5.32035347154567       -3.12318054106479
C          -30.80206675479329        5.44974444428506       -3.95493972429585
C          -30.98339219371628        4.60741974371232       -5.03427657153238
C          -32.25883366960196        3.95976368019539       -4.80731601032598
C          -34.11745518284084        2.51455663973509       -5.56149453625377
C          -34.70701443500665        1.66150983966644       -6.56905672678348
C          -36.00238564991510        1.47475448694675       -6.20106300285094
C          -36.17813980089693        2.18419741106982       -4.94950246741341
C          -37.35376247740722        2.21588663774848       -4.21332394561359
H          -38.18413152782492        1.62466502092853       -4.57381761673656
C          -36.70824196992263        5.19852547428601       -0.47870723100481
H          -37.33541561307228        5.55121347532369        0.32741034457885
C          -32.20529734952098        6.03946198251714       -1.95310063155586
H          -31.41355885921185        6.68899954689435       -1.60486759284127
C          -32.83262693490807        3.02101054726708       -5.64971333932191
H          -32.23842155508177        2.67301812378274       -6.48411650060985
C          -39.59911829891130        4.19276269892947       -0.19600555622823
H          -40.53901953511443        3.66438498437756       -0.32436569112949
H          -39.80669816218656        5.26121975441946       -0.21410452614365
H          -39.19753535356177        3.94639032943484        0.78647937191380
C          -40.01659594488967        2.12324452669876       -2.59971010817225
H          -39.73822486738148        1.17235902067945       -3.04440706490791
H          -40.68764517474742        2.63704223273957       -3.28614341314090
H          -40.56571787649956        1.91886240018722       -1.68415073025468
C          -35.56270613637295        7.15585384690855        1.59898283985678
H          -36.16340590205676        6.38170263078571        2.07124198193471
H          -36.23036864857075        7.96898930828071        1.31296401961136
H          -34.85615606796215        7.53823980539545        2.33140837926749
C          -32.59939148452251        7.79176622936293        0.55054344034353
H          -31.56195082365217        7.47889613121056        0.52071635852123
C          -32.88764166554318        8.97547607263157        1.07373973078538
H          -33.89182383837229        9.35757684145093        1.10962535716654
H          -32.12267383707205        9.61780212325992        1.47754116870211
C          -29.64805713401203        6.35000052347356       -3.67323884261789
H          -29.61460934486517        6.62862304678014       -2.62516126660240
H          -29.71639097745994        7.26279448947196       -4.26689239522064
H          -28.71441281819080        5.85089228609355       -3.91605494527832
C          -30.17010008575917        4.39709625726865       -6.21143016611895
H          -30.55507598044074        3.66879508179049       -6.91494927307548
C          -29.02797934771390        5.00232487241770       -6.53808116456199
H          -28.56906237265189        5.74957594435746       -5.92336880931236
H          -28.50518302742033        4.76182674538692       -7.44826381603710
C          -33.99784289154663        1.13399509413089       -7.77401414652501
H          -33.10559345556299        0.57599722663138       -7.49051336439400
H          -33.68600117619128        1.94390361082431       -8.43358675100680
H          -34.64620166069653        0.46734312103667       -8.33425761786707
C          -37.05867264386811        0.72143847207177       -6.93473522211848
H          -37.08586035086697       -0.31998803524422       -6.61557752381056
H          -36.86715707845550        0.74047970200995       -8.00452326816423
H          -38.03793076929536        1.15709126425061       -6.75964453293628
O          -35.19641889597972        5.64810258249964       -4.28189501910789
H          -34.38150502875899        5.96223333274631       -4.71202170464404
H          -36.03158625455793        5.84629907746565       -4.73078020244510
C          -32.00871731754668       -0.19168427383512       -0.33863988743307
H          -32.29387315988483       -1.19658635093515       -0.64733840595561
H          -31.91080793297029       -0.18567722303974        0.74522989685293
H          -31.04638330750097        0.04383509397710       -0.77692874979097
N          -34.32731933299657        0.75000932113452       -0.38482746515862
H          -34.71511479452812        0.08575685750959        0.26605385645203
C          -33.02039746688666        0.79613249176686       -0.79309870725734
C          -34.98956758149659        1.74917148504226       -1.00646069217461
H          -36.03147323097054        1.94053950354368       -0.86748843651697
N          -34.18538727745953        2.43076024894162       -1.78742442687714
C          -32.95688241069612        1.85007809024315       -1.66331062526836
H          -32.11366035200417        2.23049116334218       -2.19908406485084
78
 energy: -116.045894304356 gnorm: 0.059407088025 xtb: 6.7.1 (edcfbbe)
Fe         -34.73263334778353        4.02463058812185       -3.00504903533922
N          -36.65537890065638        3.76731891379170       -2.46398649467892
N          -34.47764888468525        5.31345646535788       -1.47559663974074
N          -32.83739343767698        4.41216973184966       -3.65468743541191
N          -35.02355413241492        2.81506193220212       -4.58615282076187
C          -37.56476430291245        2.94192553169162       -3.04916368046783
C          -38.80696506714243        2.93879090605483       -2.30194052606593
C          -38.62744846584327        3.80987634452814       -1.26922629081951
C          -37.27325447885496        4.30842292931643       -1.38245596048045
C          -35.39613316267345        5.65224392223750       -0.53494853552347
C          -34.84884221301869        6.61361365236960        0.39360966598871
C          -33.56870403158425        6.86742674042947       -0.02556586826370
C          -33.35811299719698        6.02744929516221       -1.19859057724530
C          -31.96966367206594        5.31006657016251       -3.11470242083820
C          -30.79750450030952        5.44252894639870       -3.93947989755723
C          -30.97837066148671        4.60154296464603       -5.01908274807340
C          -32.26030664864431        3.95424766592568       -4.79401314733943
C          -34.11577718129589        2.51416904321335       -5.54955018280000
C          -34.71052135642402        1.66114242872738       -6.56022729768757
C          -36.00364712330462        1.47158723439285       -6.19023795090042
C          -36.17213388435735        2.18396309009181       -4.94134991389013
C          -37.34912216393855        2.21422338507336       -4.21101786102807
H          -38.17956729858167        1.63133093098525       -4.58120979007751
C          -36.69884883325017        5.18722043396400       -0.48266503485418
H          -37.32671230447498        5.54774468968646        0.31789027937124
C          -32.20010352778241        6.03178188185867       -1.95132753628632
H          -31.41456073621667        6.69326554207704       -1.61544628638379
C          -32.83072978200119        3.02177102490953       -5.64294405962937
H          -32.24595333773963        2.68662401220121       -6.48704395734374
C          -39.59183462192858        4.19184122149306       -0.19863475545553
H          -40.53485505075335        3.66871221076810       -0.32533900000008
H          -39.79301768376424        5.26120575683944       -0.22214986070364
H          -39.19334218700571        3.94990596439253        0.78590133986883
C          -40.01060239671199        2.12418758012892       -2.60801773888122
H          -39.73565310419784        1.17205298038452       -3.05305224763996
H          -40.67460558175316        2.64278857475150       -3.29890735424951
H          -40.57068884273498        1.92196811235517       -1.69778830521276
C          -35.55962978182983        7.15216737205003        1.58644529276803
H          -36.15654468468414        6.37789015342948        2.06323785045597
H          -36.22947746545109        7.96523486591747        1.30628220089267
H          -34.84652225334695        7.53550085179760        2.31144673971695
C          -32.60089609507910        7.77992287688145        0.54010418276386
H          -31.56621247953484        7.46113470376700        0.49737345325576
C          -32.88808663226378        8.95931886402734        1.07634710976758
H          -33.88815511871129        9.35381381980198        1.09608742843203
H          -32.12364012246143        9.60015308011617        1.48045190225096
C          -29.64834883723109        6.34524069537264       -3.65187992611858
H          -29.63185446849994        6.64108974683217       -2.60780191276216
H          -29.70736611419455        7.24896563459931       -4.26037991389854
H          -28.70892770233324        5.84509271097430       -3.87113772087295
C          -30.16963172891818        4.39082287173217       -6.18783011516008
H          -30.56061862240377        3.65313323053254       -6.87732908955558
C          -29.03492152531915        4.99989739823247       -6.53736644833300
H          -28.57041129034273        5.77360153387921       -5.95649493921612
H          -28.52827624135917        4.74888514990540       -7.45294235263768
C          -34.00166472194486        1.13849154018890       -7.76290716108407
H          -33.11075339111450        0.58370041656315       -7.47391019441727
H          -33.69181175051166        1.95124357752980       -8.41885116158668
H          -34.64652331662825        0.47212650917570       -8.32774310310589
C          -37.06001322116722        0.71921354919203       -6.92042015724051
H          -37.09180679598159       -0.32208145740241       -6.60044814773901
H          -36.86618778137652        0.73519266392750       -7.99007863692472
H          -38.03946693151833        1.15661449944261       -6.75074155482026
O          -35.22845923685179        5.75088259384901       -4.21961452487214
H          -34.43147781107206        5.98255649099077       -4.78009410269918
H          -36.04714753052615        5.84955471762140       -4.78799177162468
C          -32.00792256497700       -0.18371336232924       -0.34447799358551
H          -32.28881719224175       -1.19140083749688       -0.64731394393515
H          -31.91381865242640       -0.17211822603250        0.73958657129650
H          -31.04413722781978        0.05189370004681       -0.77903524049692
N          -34.32554406960584        0.75160706132088       -0.39162305265846
H          -34.71178906878105        0.08736957770717        0.26055685336118
C          -33.01988013979008        0.80018002194705       -0.80653300936894
C          -34.98853584825196        1.75390913316105       -1.00972877313295
H          -36.02934598986452        1.94634862456772       -0.86689429230919
N          -34.18928805199285        2.43552698056968       -1.79220050397498
C          -32.95925670284338        1.85546817066447       -1.67637697859231
H          -32.11787493557924        2.23430929640608       -2.21562293583579
78
 energy: -116.048485519224 gnorm: 0.023224639742 xtb: 6.7.1 (edcfbbe)
Fe         -34.73716038419081        4.03223138726542       -3.01283402775847
N          -36.64931700867323        3.75790415698533       -2.46543309178346
N          -34.46805505434455        5.29581589002926       -1.47487035738120
N          -32.84018798372159        4.40864628413655       -3.64946089889021
N          -35.02458753579719        2.82128088480553       -4.58356349244974
C          -37.55852011055585        2.93523352816741       -3.04726754246527
C          -38.79915537234321        2.93347324875092       -2.30009342760158
C          -38.61858100450591        3.80219351177975       -1.26786185932385
C          -37.26536632616775        4.29802062385562       -1.38215184540741
C          -35.38970762444771        5.64042368618580       -0.54016228975617
C          -34.85068286841792        6.60951178835462        0.37888620997565
C          -33.57058968243816        6.86202597281216       -0.03729065716996
C          -33.35546017372873        6.01501930382189       -1.20032329745397
C          -31.96958792921849        5.30053189199655       -3.10578373087710
C          -30.79393647191618        5.43459838958206       -3.92394530524229
C          -30.97409705218446        4.59525769028414       -5.00184741118009
C          -32.26140856859865        3.94886148419449       -4.78376476611153
C          -34.11395592509073        2.51548259622088       -5.54270677590667
C          -34.70947045217289        1.65915167853375       -6.55013645123478
C          -36.00304710334643        1.46780493260589       -6.17789505418721
C          -36.17117517602611        2.18358369667862       -4.93243274295247
C          -37.34782542607754        2.21173902900032       -4.20858133659178
H          -38.17746169754727        1.63454267428743       -4.58763567901461
C          -36.69146285382315        5.17682844845357       -0.48657967604098
H          -37.31923664306221        5.54522208089938        0.30989684752094
C          -32.19592293554343        6.02581723580484       -1.94877069350458
H          -31.41550840791841        6.69784124188457       -1.62408113663099
C          -32.83042912280870        3.02224952437581       -5.63972561579679
H          -32.25265226627062        2.69655093510482       -6.49060837722075
C          -39.58410163224748        4.19172861690108       -0.20072690421437
H          -40.53105404459384        3.67221886313511       -0.32724208406770
H          -39.77884436791000        5.26358667216552       -0.23194442596982
H          -39.18785597692756        3.95311132193868        0.78684731186619
C          -40.00711292587349        2.12340699059347       -2.61741698814665
H          -39.73228391094283        1.16918184005767       -3.06253005740216
H          -40.66141904159564        2.64933429551830       -3.31544917044005
H          -40.57787853950817        1.92433426232223       -1.71064918799377
C          -35.55725603216501        7.14989410169539        1.57250795800611
H          -36.15036944787678        6.37356066406800        2.05430873827760
H          -36.23019866781889        7.96322124565767        1.29620538475492
H          -34.83571036064146        7.53445226656623        2.29069050189871
C          -32.60099587273538        7.76925300279037        0.52546216426061
H          -31.56801205293744        7.44449898987837        0.47568801463810
C          -32.88740115165264        8.94773929043581        1.07252048696973
H          -33.88726790804980        9.34678602473461        1.08609641423969
H          -32.12183674952781        9.58279664782618        1.48528258762106
C          -29.64755482354403        6.33871399046564       -3.63241409537053
H          -29.64832157571885        6.65300165738255       -2.59083288333559
H          -29.69786252185224        7.23405972489513       -4.25674328264467
H          -28.70222597153353        5.83522747141601       -3.83002959911846
C          -30.16737010703422        4.38318812819750       -6.16877342263655
H          -30.55747760416806        3.63006897420375       -6.84316611861800
C          -29.04325394196063        5.00038124862079       -6.53815419086964
H          -28.57443567749914        5.79431589354327       -5.98128914315569
H          -28.54820653473541        4.73487605988324       -7.45755821850546
C          -34.00275265912951        1.14041961318387       -7.75286081464287
H          -33.11192538566208        0.58790202759178       -7.45816944914793
H          -33.69552449233083        1.95837683754690       -8.40511909732912
H          -34.64711978932294        0.47360192303886       -8.32096522248972
C          -37.06215318582601        0.71358422674817       -6.90591432684577
H          -37.09769827748870       -0.32778549641254       -6.58129800720020
H          -36.86437166303336        0.72556625164765       -7.97669012435073
H          -38.04218689011950        1.15533516701091       -6.73998576940183
O          -35.25465381654895        5.76204038497537       -4.26761681949123
H          -34.49291205156590        6.06696886309532       -4.75137138329544
H          -36.05947105225283        5.90151051244224       -4.78081161206009
C          -32.00592287664534       -0.17392426146482       -0.34998033452882