78
 energy: -115.920403633156 gnorm: 0.319823206853 xtb: 6.7.1 (edcfbbe)
Fe          16.29500000000000        2.05900000000000       22.15700000000000
N           15.46100000000000        2.32200000000000       23.91800000000000
N           16.37400000000000        4.19300000000000       21.98900000000000
N           17.06000000000000        1.90800000000000       20.30800000000000
N           16.17800000000000        0.04000000000000       22.21000000000000
C           15.12500000000000        1.22900000000000       24.65000000000000
C           14.63300000000000        1.72200000000000       25.99900000000000
C           14.74200000000000        3.00300000000000       25.96900000000000
C           15.25700000000000        3.47600000000000       24.61799999999999
C           16.01200000000000        5.08900000000000       22.92800000000000
C           16.27200000000000        6.38900000000000       22.40800000000000
C           16.80300000000000        6.23000000000000       21.12000000000000
C           16.85900000000000        4.84500000000000       20.90700000000000
C           17.46500000000000        3.00100000000000       19.52400000000000
C           18.04800000000000        2.44900000000000       18.33700000000000
C           18.01800000000000        1.11400000000000       18.37100000000000
C           17.38400000000000        0.70300000000000       19.61300000000000
C           16.51800000000000       -0.87800000000000       21.23100000000000
C           16.11300000000000       -2.20700000000000       21.63700000000000
C           15.48700000000000       -2.08600000000000       22.93700000000000
C           15.57500000000000       -0.68600000000000       23.22500000000000
C           15.13300000000000       -0.12200000000000       24.38700000000000
H           14.75900000000000       -0.79000000000000       25.16300000000000
C           15.47800000000000        4.75900000000000       24.20300000000000
H           15.23200000000000        5.57200000000000       24.88600000000000
C           17.35700000000000        4.32500000000000       19.75800000000000
H           17.68800000000000        5.01400000000000       18.98100000000000
C           17.17000000000000       -0.60500000000000       20.00200000000000
H           17.50100000000000       -1.42500000000000       19.36600000000000
C           14.37100000000000        3.92100000000000       27.09000000000000
H           14.33900000000000        3.35000000000000       28.04200000000000
H           13.36800000000000        4.36000000000000       26.90000000000000
H           15.12800000000000        4.72900000000000       27.18000000000000
C           14.21500000000000        0.68800000000000       27.02800000000000
H           15.07700000000000        0.02700000000000       27.26000000000000
H           13.38500000000000        0.07000000000000       26.62300000000000
H           13.89000000000000        1.19700000000000       27.96000000000000
C           15.99800000000000        7.72800000000000       23.20700000000000
H           16.96500000000000        8.19800000000000       23.48600000000000
H           15.42700000000000        7.50200000000000       24.13300000000000
H           15.42400000000000        8.43500000000000       22.57000000000000
C           17.25100000000000        7.21200000000000       20.15400000000000
H           17.54700000000000        6.88600000000000       19.14600000000000
C           17.32900000000000        8.57700000000000       20.44000000000000
H           17.04500000000000        8.95700000000000       21.43300000000000
H           17.67500000000000        9.28900000000000       19.67599999999999
C           18.61900000000000        3.47800000000000       17.21600000000000
H           19.41800000000000        4.10700000000000       17.66300000000000
H           17.79900000000000        4.13700000000000       16.85900000000000
H           19.04500000000000        2.90600000000000       16.36400000000000
C           18.49000000000000        0.01600000000000       17.39500000000000
H           18.30600000000000       -1.03000000000000       17.67700000000000
C           19.14000000000000        0.20900000000000       16.16400000000000
H           19.36300000000000        1.22400000000000       15.80400000000000
H           19.43300000000000       -0.65300000000000       15.54600000000000
C           16.24700000000000       -3.55300000000000       20.98200000000000
H           16.98400000000000       -4.16700000000000       21.54300000000000
H           16.60300000000000       -3.42800000000000       19.93700000000000
H           15.26500000000000       -4.07300000000000       20.98900000000000
C           14.86300000000000       -3.25800000000000       23.77700000000000
H           15.50800000000000       -4.15900000000000       23.69300000000000
H           13.85100000000000       -3.50200000000000       23.38800000000000
H           14.79700000000000       -2.96000000000000       24.84500000000000
O           14.39700000000000        2.33200000000000       21.30000000000000
H           14.25100000000000        3.27800000000000       21.27800000000000
H           13.83500000000000        1.70600000000000       21.01200000000000
C           22.09800000000000        2.72900000000000       22.67900000000000
H           22.89800000000000        1.96100000000000       22.74600000000000
H           22.30000000000000        3.52600000000000       23.42700000000000
H           22.09800000000000        3.16000000000000       21.65500000000000
N           20.47600000000000        1.46700000000000       24.15100000000000
H           21.11400000000000        1.36900000000000       24.91400000000000
C           20.77199999999999        2.09500000000000       22.96100000000000
C           19.23100000000000        1.02400000000000       24.11700000000000
H           18.74100000000000        0.49300000000000       24.93200000000000
N           18.71200000000000        1.33700000000000       22.94600000000000
C           19.65400000000000        2.01000000000000       22.20499999999999
H           19.43700000000000        2.36600000000000       21.20600000000000
78
 energy: -115.997315677372 gnorm: 0.132113837259 xtb: 6.7.1 (edcfbbe)
Fe          16.34149818803904        2.04904350589620       22.14873936713845
N           15.48916149424871        2.30046558319269       23.91277839692914
N           16.38487438877022        4.17187066354628       22.00207937674082
N           17.07153735848476        1.88825897198187       20.29807226612798
N           16.15156071555209        0.02518941601482       22.19569495679502
C           15.12373738234525        1.23171956234265       24.66189724087835
C           14.64052009551892        1.70042287859892       25.98766068727802
C           14.73985089173654        3.02661977963052       25.96637847036258
C           15.26156234300057        3.44849043204915       24.62415914767404
C           16.01477031836078        5.08797446753079       22.93245264308657
C           16.26671671180515        6.40937827449090       22.42676212093433
C           16.79620467180363        6.25888584856169       21.14396749171725
C           16.85284412167537        4.84582321500658       20.92219757565348
C           17.46973124300859        2.95549762735806       19.50577565235108
C           18.06684288542790        2.45022168548146       18.29442956991415
C           18.03431823608939        1.09037126928922       18.33583371303767
C           17.39592442794314        0.72005654398512       19.60534461014143
C           16.50761195660974       -0.88889458195844       21.24039395342036
C           16.10401967712815       -2.21418399240056       21.65841033006286
C           15.50041717644637       -2.09204022353389       22.91660330961514
C           15.57367162792783       -0.69187538876540       23.21206134404424
C           15.13121472279258       -0.11479908892095       24.38544397874528
H           14.75988817529330       -0.78116566074149       25.15358486822206
C           15.48064676132829        4.74054693808167       24.19776637956689
H           15.23598849134433        5.55267128381440       24.87659288837254
C           17.35306811226025        4.29994834158955       19.75954243282426
H           17.68774144009571        4.98748596413094       18.99184233088200
C           17.15731069728028       -0.58040436410319       20.02673166287973
H           17.48015347258537       -1.40235595620844       19.39388762317548
C           14.37283279086814        3.93594527864381       27.08940410507333
H           14.33854673912836        3.36886427763540       28.02818442802780
H           13.38168984795575        4.36920457958331       26.90875071547976
H           15.11439667367855        4.73432518869661       27.18642414653269
C           14.21754027809120        0.70040716548001       27.02690631886918
H           15.06176423363917        0.03942703325334       27.26203827418071
H           13.39576971321946        0.08607611281916       26.63774264833545
H           13.89020833035470        1.19078287950051       27.94965990559881
C           16.00088208482613        7.70666769015937       23.19760276028390
H           16.94952334607746        8.18220215130312       23.48080808494679
H           15.43634852856424        7.50117542635539       24.11269434462583
H           15.42839714116003        8.41250149033250       22.58269447813556
C           17.24130896070093        7.24350936742637       20.18069321096061
H           17.53516696561951        6.90312390816201       19.18366446120834
C           17.32805547045841        8.56488998037301       20.43571490275756
H           17.06062700121427        8.95809120366711       21.40571514942178
H           17.66997898600253        9.26905630675911       19.68411978739312
C           18.61127729646186        3.45150557218849       17.23410769630714
H           19.39948982324165        4.08222914045274       17.66527614005874
H           17.80959672117851        4.10838461919605       16.87314986120322
H           19.03318550892887        2.91864370450591       16.38134912843007
C           18.49912408055130        0.04191412709230       17.37702662655518
H           18.30979862027719       -0.99097642827973       17.67115103279638
C           19.12432012056372        0.21287033470715       16.19335592891315
H           19.35948650402336        1.19804409657528       15.81065926337401
H           19.41725834322053       -0.63453101271984       15.57647792311872
C           16.25032477203661       -3.54047136973141       20.97930891540001
H           16.97297529097425       -4.16016723262111       21.52882127857797
H           16.59740169417463       -3.43349571640969       19.94618238970518
H           15.28571556113718       -4.06503812848327       20.98255054872362
C           14.88417084567588       -3.22544809818228       23.75284897341828
H           15.50079905518898       -4.13176280185569       23.68718913594591
H           13.87840888204357       -3.48495659001233       23.38999690211701
H           14.80148586306181       -2.95521725100546       24.81381443942165
O           14.40952222136725        2.33864812723063       21.30806349133475
H           14.23701937969286        3.28000956589809       21.27028092288568
H           13.80356125159120        1.69208462014486       20.99601159848381
C           22.09855815204862        2.72391266978569       22.68276189872476
H           22.89629824924788        1.97330573264375       22.74518496980297
H           22.30430151509327        3.51683359224532       23.41320017882155
H           22.10079407107919        3.15305205788080       21.67565131845929
N           20.48654073004924        1.47127156799246       24.14846179952652
H           21.12580463161999        1.36775056283291       24.91720254007496
C           20.77726028957375        2.09655817491842       22.96189243425898
C           19.21779751494938        1.03708530293672       24.09875900694505
H           18.73750841513203        0.50435718687936       24.90570195075870
N           18.67487481780813        1.36228671800544       22.94566948296477
C           19.64077420027512        2.00728713386096       22.21666119625069
H           19.43414070127111        2.35855698523658       21.22232891623884
78
 energy: -116.021539080809 gnorm: 0.039285116181 xtb: 6.7.1 (edcfbbe)
Fe          16.36788285470556        2.03525967840128       22.13401095890985
N           15.53010750409294        2.27725371641160       23.91803807872085
N           16.41711062960992        4.14587129144551       22.01907280771144
N           17.09482352510762        1.87139057645246       20.28796655230801
N           16.13037411726316        0.01368722788006       22.18344210845031
C           15.13385589891979        1.23142576907700       24.68313936972695
C           14.65258418735083        1.69070842894951       25.97369522039970
C           14.74408839081083        3.04111364940538       25.95704066230863
C           15.27984279275536        3.41769990042028       24.63672737381391
C           16.02999696005333        5.07107182682246       22.94388505577116
C           16.26329519379537        6.40847253141049       22.44580626365983
C           16.79026699405828        6.26635011951001       21.17080128059466
C           16.86067007097465        4.83728633739926       20.93932650824521
C           17.47910292698513        2.91944776730434       19.49732975162390
C           18.07945682760252        2.45008902453187       18.26685759422226
C           18.04538936041882        1.07418162472714       18.31694987488486
C           17.40724897715275        0.73489291288294       19.60218195706083
C           16.49514772741422       -0.89361257860968       21.24056422206161
C           16.10001733289090       -2.22113337074806       21.67064611168378
C           15.51290613762622       -2.09363129042457       22.89606120991742
C           15.56700256293309       -0.68948535809856       23.20003190490274
C           15.13160250541106       -0.11204036776899       24.38195035109824
H           14.75736816010935       -0.78172320280959       25.13877398375806
C           15.49494935767326        4.71430737675413       24.19541630750051
H           15.23802526554711        5.52472405795751       24.86700254072802
C           17.35364301096290        4.27335960763371       19.77131170437230
H           17.68456636732075        4.95982406463009       19.00778048701942
C           17.14126539616145       -0.55736264749272       20.04531786087176
H           17.45439209941571       -1.38015423233963       19.41415040407081
C           14.37663675521069        3.95106302147940       27.07859022606484
H           14.33948047116601        3.38859755942652       28.01043014387292
H           13.39323884910292        4.38801214843324       26.91011037929135
H           15.10550056845490        4.74805677701728       27.18661231835326
C           14.21921093308548        0.72236845846173       27.02628884940759
H           15.04795224320164        0.05588094523131       27.27113317383578
H           13.39883551492806        0.10832846869204       26.65371820449364
H           13.89144213378856        1.20941447565461       27.93919898484609
C           15.99974891118564        7.67379686847585       23.19289843658589
H           16.93747976281458        8.15838296145468       23.47449874142902
H           15.43917970962662        7.48700552940278       24.10450851484447
H           15.42944968051367        8.37966894767672       22.58812176700879
C           17.22901337646078        7.25854533646285       20.21186641714812
H           17.51563036947828        6.89871234343946       19.22627436741682
C           17.32695668210303        8.56154748510687       20.43811654390218
H           17.07794484160733        8.98222730037446       21.39062936673376
H           17.66722801172486        9.25337489890100       19.68647013645677
C           18.60166283121037        3.41257403559255       17.24987275977390
H           19.38019261200392        4.04572043058078       17.67982121911549
H           17.80821079986799        4.07147470116452       16.89346305232355
H           19.02469155266288        2.91188320119902       16.38950938024860
C           18.49781505424367        0.06490954655215       17.37921786317104
H           18.30212990487107       -0.95771600063926       17.68609973086025
C           19.11142339097908        0.22252332738434       16.21676352341630
H           19.36139195210820        1.18471622376235       15.80837190318942
H           19.40145212055410       -0.61879686736665       15.60497686869220
C           16.25612122583093       -3.53146819298544       20.97081389211826
H           16.97111698545288       -4.15475393737537       21.51186204330238
H           16.59668676277471       -3.42434830462121       19.94674166093993
H           15.30110700931491       -4.05801996227425       20.96936906237660
C           14.90790481720149       -3.19276727307137       23.72603812729763
H           15.51036414109608       -4.10037432752651       23.66915327014984
H           13.90538254633046       -3.45233755797114       23.37339213644022
H           14.81817393053060       -2.92459330103390       24.77830966395637
O           14.40420091012901        2.33498083362436       21.30914565444386
H           14.19781834225262        3.27010914242365       21.24863439457572
H           13.77079653700535        1.69924048544045       20.97687576625264
C           22.09990176266405        2.71549279013162       22.68333643483224
H           22.89697849247244        1.97585145040165       22.74357918726097
H           22.30787071027801        3.50588058316104       23.40413433638008
H           22.09549633989659        3.14663058532853       21.68754234270934
N           20.48709765929525        1.47174727940443       24.14447436530628
H           21.12555999576983        1.35605223468834       24.91583676239156
C           20.77850525680600        2.09761817034366       22.96067799652906
C           19.19643774628497        1.06530018433180       24.08606071448810
H           18.72154645072648        0.52563215323159       24.88231886594123
N           18.64480931204512        1.40383304769942       22.94740531539453
C           19.62679910285285        2.02518356713981       22.22845963302392
H           19.43444179491240        2.36956378387442       21.23399699501035
78
 energy: -116.029480609573 gnorm: 0.024922964780 xtb: 6.7.1 (edcfbbe)
Fe          16.37824298757558        2.02649627926356       22.13154833320865
N           15.56597273661831        2.25691801509370       23.93220037454418
N           16.45788961712678        4.12070730857574       22.03619000339329
N           17.10525489378841        1.86042882881595       20.28830970693641
N           16.11620716484878        0.01684864551305       22.17045936484524
C           15.15248932758843        1.22106602041245       24.70219541475024
C           14.66595695542878        1.68910483462017       25.97822870709631
C           14.76008854105605        3.04463246240992       25.95582999835607
C           15.31222619736814        3.39452458591763       24.65017102171132
C           16.06068621004339        5.04103129370910       22.96208638602322
C           16.27191646693989        6.38296350264850       22.46713939211399
C           16.79629633078769        6.25254217134485       21.19656050891017
C           16.88471725148858        4.82140776883326       20.95687493824667
C           17.48847918754466        2.90339870250421       19.50233707868354
C           18.08005052627387        2.43870526159412       18.26848617062893
C           18.04510944312343        1.06311358116697       18.31995576520633
C           17.41119110159736        0.73127301178148       19.60360619653479
C           16.48559142137340       -0.88899561769325       21.22974133905845
C           16.10229089771086       -2.22006430160567       21.65720052917189
C           15.51996738191842       -2.08696454053080       22.88049309947847
C           15.56221674183793       -0.68213052838755       23.19038763696591
C           15.13545215729236       -0.11924110717643       24.37918407134225
H           14.75011029285143       -0.79519353467609       25.12461024840479
C           15.52478364410146        4.68809482169188       24.20343862234528
H           15.24630863647140        5.49599374550802       24.86734849343273
C           17.36598145500314        4.25570177616008       19.78634261954055
H           17.68923332884238        4.93927929802454       19.01917481551115
C           17.13108547372319       -0.55463824169542       20.04556409597696
H           17.42919915461921       -1.37816082595064       19.41276280502327
C           14.38464907287930        3.97169835491460       27.06237501479066
H           14.33978161804305        3.41852473226931       27.99829596021128
H           13.40437468736931        4.41496277760798       26.88963520371627
H           15.11051334189809        4.77207218317503       27.17344305176650
C           14.21341830804288        0.74528088279363       27.04194813527450
H           15.03221331738495        0.07204769771642       27.30151432622240
H           13.38587781997009        0.13669813300550       26.67735569469859
H           13.88805414223156        1.25585216120493       27.94204668475981
C           15.99083077697814        7.64228188043584       23.20773244354307
H           16.92621794961116        8.13492945171126       23.48269450771476
H           15.43098635770154        7.45671376321040       24.11946852131446
H           15.41641726390510        8.33679976791085       22.59413431114963
C           17.21787577748393        7.25453197863940       20.24246774845061
H           17.49040108789995        6.88309159650272       19.26103834440350
C           17.32784700086246        8.56566520624701       20.44697147662163
H           17.10262396188520        9.02088256823996       21.39235372134697
H           17.66592134635415        9.23616180127188       19.67505238851525
C           18.59780983575213        3.39337495943389       17.25239377131076
H           19.37506176330900        4.02299622788126       17.68919277736635
H           17.79858001438703        4.04907437169332       16.90379374444674
H           19.01900377025012        2.89906642977273       16.38775331461116
C           18.49310902497836        0.06376323114390       17.38544353905453
H           18.29350984238490       -0.95414525971537       17.69755591651530
C           19.11029015414690        0.21761133060946       16.21744402066241
H           19.36963859786679        1.17177050625794       15.79733621439524
H           19.39170505258324       -0.62999403696378       15.61565693609506
C           16.26602445216028       -3.52322342095804       20.94857011867305
H           16.98206343172821       -4.14937714556071       21.48339921291358
H           16.60567392998928       -3.40337113320612       19.92665387614143
H           15.31388246066317       -4.05379657796615       20.94025151903937
C           14.92361834969659       -3.17350866724808       23.70924099881654
H           15.52803231259076       -4.07747546341512       23.64972039898750
H           13.92221276152632       -3.42316262460534       23.35180343797661
H           14.83878697192825       -2.88914491945564       24.75510183637180
O           14.38498874919973        2.32674197703103       21.30853308659817
H           14.15527739227385        3.25614688415966       21.22034006319571
H           13.74696601813956        1.70167282029628       20.95600558420840
C           22.09986545640655        2.70329824150865       22.68290404903920
H           22.89287888475925        1.96006323133271       22.74116466802133
H           22.31675832501853        3.49159196528596       23.40311303411897
H           22.09952310871245        3.13824296147974       21.68942164946169
N           20.46628485019631        1.47413693075254       24.13713732681948
H           21.10457000435568        1.33306202442269       24.90572825675981
C           20.76928257599024        2.10423453189920       22.95784296678909
C           19.15893077424845        1.10983386378114       24.07771949419666
H           18.67546080992291        0.56752775361775       24.86500140857500
N           18.61104384332347        1.47747364942959       22.94778987067592
C           19.61065200138927        2.07208986736378       22.23197807394803
H           19.43151512467907        2.42238733521467       21.23805356227473
78
 energy: -116.035734404200 gnorm: 0.018183593209 xtb: 6.7.1 (edcfbbe)
Fe          16.39916329585695        2.01944514586802       22.13817518419921
N           15.60043931068701        2.23340382348580       23.94958304174992
N           16.50183176756390        4.09119210239455       22.05025340844167
N           17.11606739369910        1.85215629209598       20.29096767748188
N           16.11853041886910        0.02760677070806       22.16350469782816
C           15.17362595621083        1.20581239558529       24.72465114850117
C           14.68129280826247        1.68531465097755       25.99055943328653
C           14.78275635305100        3.04235597839751       25.95841535215157
C           15.34816945618651        3.36972272127109       24.66438514935998
C           16.09696382606999        5.00301082351717       22.98073794133147
C           16.28778016652986        6.34764805305824       22.49165598524562
C           16.81023068952754        6.23271915530382       21.22436599243411
C           16.91689991208986        4.80267385911220       20.97393061154475
C           17.50058665990230        2.89302366581051       19.50712279013528
C           18.08126750328087        2.42616186936836       18.27351355698282
C           18.04401262532780        1.05306272492864       18.32287842087424
C           17.41380839618021        0.72477691428929       19.60109050326232
C           16.48036940660213       -0.87814490686311       21.21821810276088
C           16.10651893242040       -2.21169946177385       21.63991788352167
C           15.52871584574129       -2.07705690856018       22.86574171893955
C           15.56515305159778       -0.67197243178981       23.18303800767734
C           15.14185475869198       -0.13051821359102       24.37906906085730
H           14.74127491342353       -0.81333077752671       25.11217284190602
C           15.56067995927780        4.65941386482124       24.21396713735232
H           15.26586414736295        5.46403917537814       24.87297482073128
C           17.38570307468039        4.24181476272765       19.80095320896088
H           17.70219604251939        4.92324118036742       19.02895068116231
C           17.11974991704014       -0.55557207710061       20.03692081316495
H           17.39960858127303       -1.38183598545299       19.40178194168769
C           14.39827203341699        3.99372890779670       27.04248813371144
H           14.34028095984101        3.45988535448544       27.98976374511354
H           13.42198183014822        4.44251217490735       26.85176546225102
H           15.12518982922212        4.79638343055636       27.14755813423033
C           14.20331510450916        0.76906130458689       27.06594756683343
H           15.00734265572965        0.08543745858151       27.34701140711832
H           13.36446647073314        0.16999212738911       26.71029699001729
H           13.88313998518462        1.31301226001906       27.95024947410606
C           15.98410424325160        7.60630702875051       23.22749584132878
H           16.91271022422584        8.11216205568244       23.50178070008991
H           15.42100167046771        7.41725440164399       24.13676155666219
H           15.40548413720476        8.28577765767690       22.60025252107212
C           17.21243465546046        7.24567022373704       20.27772768831271
H           17.46164072816966        6.86985873133449       19.29378401259926
C           17.33111724495088        8.56023325394925       20.46632101036897
H           17.12445862108445        9.04748293733625       21.40238708081786
H           17.65488825318866        9.20835178172361       19.66674333728893
C           18.59557328962011        3.38042138953778       17.25135765312358
H           19.37562896528294        4.00693448878476       17.68746984402312
H           17.79095483729064        4.03274033137153       16.90821933401466
H           19.00993951051205        2.88029057045160       16.38736827234930
C           18.48870605915705        0.05438872599233       17.38751726454493
H           18.28679872256718       -0.96173309947676       17.69883562578492
C           19.10892028603777        0.20471375581767       16.21731368515260
H           19.37682537910776        1.15284067443412       15.79063777844552
H           19.38078487273611       -0.65336200799000       15.62756281178373
C           16.27698771895469       -3.50704658321052       20.92035128406046
H           16.99681478939555       -4.13754581741028       21.44575870240050
H           16.61820851717938       -3.36981493872128       19.89987319321033
H           15.32791429526112       -4.04430845192595       20.90049136679934
C           14.93629302753880       -3.16026080873116       23.69564931175236
H           15.54090480994618       -4.06302037377257       23.63368557371091
H           13.93410706480963       -3.40458583841929       23.33821997072454
H           14.85788193834496       -2.86672313811796       24.73837377783390
O           14.35856871602789        2.31988572842353       21.32630315187160
H           14.10920471867101        3.24030440194992       21.17642984584558
H           13.73205359902563        1.70920258742405       20.92578574255833
C           22.09707257127484        2.68646933406655       22.68259144978833