78
 energy: -116.058077824223 gnorm: 0.000063299833 xtb: 6.7.1 (edcfbbe)
Fe         -11.47282722400065       -2.69405433180284       -1.68597960504611
N          -12.07783229279695       -1.05019836354842       -2.67856894327791
N           -9.78263398034441       -2.71818031558522       -2.78591944858377
N          -10.83711095628721       -4.28586363050489       -0.66818941623869
N          -13.12062101375285       -2.62072710090590       -0.57034944727606
C          -13.25187700997252       -0.38440643846591       -2.51418806697384
C          -13.34893670399301        0.71827221887668       -3.44306989469950
C          -12.20395238781104        0.70265275034971       -4.17811717527354
C          -11.42456822584832       -0.41269477111663       -3.69060790919368
C           -9.43640200002099       -1.85479200232849       -3.78321981930040
C           -8.17880309903913       -2.23062780773721       -4.37248121082700
C           -7.76893651497151       -3.36285171677317       -3.71674247347949
C           -8.78684837769659       -3.64128815521803       -2.72397143614628
C           -9.69183863272607       -4.98916614048127       -0.88129334472200
C           -9.58935937898968       -6.09477292724518        0.03852148599094
C          -10.71137393970592       -6.04745959187688        0.82127043901424
C          -11.47194438455067       -4.90149506046691        0.35903172502641
C          -13.45585870651154       -3.46342343932768        0.43982923815266
C          -14.73938925785072       -3.10333317658286        1.00462209335691
C          -15.17180786763598       -2.02130794441745        0.30576098735517
C          -14.14571112972138       -1.73566632435923       -0.67488451173347
C          -14.22266738270624       -0.69562038314610       -1.58060155456951
H          -15.10566474852928       -0.07568054136743       -1.55590910694061
C          -10.19304581214626       -0.77233720734266       -4.20313807910874
H           -9.80118898957589       -0.17612214728263       -5.01303805616025
C           -8.74241982706135       -4.70744187198162       -1.84693132873438
H           -7.89940781145228       -5.37692732618758       -1.92202532016981
C          -12.69736208915417       -4.53047114248307        0.88066600136282
H          -13.09621235112860       -5.12173967678285        1.69086615784195
C          -11.77284307309743        1.61492414762009       -5.27538218598641
H          -12.52257439895889        2.38073877349695       -5.45787048374828
H          -11.61895145386963        1.05894635904039       -6.20080199630085
H          -10.83494086921587        2.10843159755246       -5.01886729750655
C          -14.50768602857669        1.65197987008982       -3.52080805226851
H          -14.64604784160098        2.17089249073629       -2.57200454616536
H          -15.42464678909055        1.10596134034525       -3.74334239613712
H          -14.35459731466711        2.39616384467312       -4.29860479900971
C           -7.46603724548489       -1.46706691465072       -5.43406179818802
H           -7.59522452366481       -0.39504949726740       -5.29189805353712
H           -7.84702111193338       -1.72412122255533       -6.42410103562072
H           -6.40256606627353       -1.69589017984673       -5.40681296264548
C           -6.56458619482042       -4.14067158752982       -3.90393928897407
H           -6.16044312649648       -4.59986955153017       -3.00923717259501
C           -5.94154724318413       -4.33362328187289       -5.06206880687182
H           -6.32139080053095       -3.94372249540936       -5.99025108275156
H           -5.03740287220234       -4.91619902411091       -5.12444701315722
C           -8.43331097206406       -7.02826250945889        0.13257628471622
H           -7.49493337022218       -6.49556057663583       -0.01450978598601
H           -8.50042657382682       -7.80956930222938       -0.62644538405826
H           -8.41457559049121       -7.50101409621165        1.11236399259691
C          -11.10103755854054       -6.90815546576085        1.91627319806991
H          -11.63991834284047       -6.42405937811248        2.72248956692583
C          -10.85776507716321       -8.21236797999522        1.99603338659865
H          -10.36916358653407       -8.75334650343275        1.20441095147414
H          -11.16481217406824       -8.79179040089696        2.85099195416325
C          -15.39259010678688       -3.82337801078934        2.13396620675559
H          -14.76156492421691       -3.79221126240301        3.02231672302573
H          -15.56228314305949       -4.86920481834304        1.87639713604617
H          -16.35058944200293       -3.37131898622530        2.37889338487380
C          -16.42813761820248       -1.23500146294875        0.46181348745097
H          -17.04356714532443       -1.64372287120984        1.25942291605621
H          -17.00784966039150       -1.25066411786038       -0.46147741128695
H          -16.20217065612243       -0.19575618391578        0.70164975917793
O          -10.36611372463576       -1.26596905376181       -0.27212317945625
H          -10.70622490784488       -0.42594139567093       -0.59904272749436
H           -9.46950769184500       -1.35985831954255       -0.61179103279442
C          -14.42080577639095       -6.68434283134875       -4.22698550405375
H          -13.87529905338277       -7.41333927154528       -4.82609957756167
H          -15.31615943045799       -6.39334277978883       -4.77622472919352
H          -14.72076334320797       -7.15424159807631       -3.29566680329108
N          -13.04858795999806       -4.70826056993119       -4.92264180840786
H          -13.17655142507786       -4.83931176131284       -5.91259753954898
C          -13.57253690652985       -5.50114472989291       -3.93543931706757
C          -12.33202219133476       -3.72989263300925       -4.32507594316113
H          -11.80788297426355       -2.96136907371533       -4.85443392580976
N          -12.37061153275092       -3.85477334425786       -3.02080713536916
C          -13.13896477287999       -4.95204607695764       -2.76283166265214
H          -13.32616331791688       -5.27088273747917       -1.75824848892473
