78
 energy: -115.981359119611 gnorm: 0.240667865832 xtb: 6.7.1 (edcfbbe)
Fe          28.23400000000000       91.10200000000000       52.30300000000000
N           29.24800000000000       92.71700000000000       51.69000000000000
N           29.43000000000000       90.97899999999998       53.93599999999999
N           27.25200000000000       89.46700000000000       52.89000000000000
N           27.11700000000000       91.17600000000000       50.65900000000000
C           28.99500000000000       93.46700000000000       50.54300000000000
C           29.81200000000000       94.63100000000000       50.56200000000000
C           30.60900000000000       94.60800000000000       51.67500000000000
C           30.23800000000000       93.39799999999998       52.37100000000000
C           30.42400000000000       91.87700000000000       54.32400000000000
C           31.02000000000000       91.43600000000001       55.54200000000000
C           30.43900000000000       90.26900000000001       55.89200000000000
C           29.41000000000000       89.98999999999999       54.88400000000000
C           27.44400000000000       88.74400000000000       54.05900000000000
C           26.41000000000000       87.75299999999999       54.23599999999999
C           25.58500000000000       87.84699999999998       53.16500000000000
C           26.10000000000000       88.88599999999998       52.31900000000000
C           26.09600000000000       90.31000000000000       50.28699999999999
C           25.65000000000000       90.60299999999999       48.93600000000000
C           26.37100000000000       91.66700000000000       48.50800000000000
C           27.24500000000000       92.04599999999999       49.60100000000000
C           28.11199999999999       93.15000000000001       49.53000000000000
H           28.08600000000000       93.78000000000000       48.64099999999999
C           30.74000000000000       93.01300000000001       53.61400000000000
H           31.46300000000000       93.68600000000001       54.07400000000000
C           28.48900000000000       88.96700000000000       54.96999999999999
H           28.57900000000000       88.27800000000001       55.81000000000000
C           25.60100000000000       89.25300000000000       51.08800000000000
H           24.75700000000000       88.68300000000001       50.70000000000000
C           31.63600000000000       95.63700000000000       52.11899999999999
H           31.26500000000000       96.16400000000000       53.02400000000000
H           31.79700000000000       96.38000000000000       51.30900000000000
H           32.59300000000000       95.13000000000000       52.36500000000000
C           29.83700000000000       95.61499999999999       49.42599999999999
H           28.79700000000000       95.89700000000001       49.15699999999999
H           30.32600000000000       95.15399999999998       48.54100000000000
H           30.39000000000000       96.52799999999999       49.73300000000000
C           32.11500000000000       92.24600000000000       56.23300000000000
H           31.87200000000000       93.32800000000000       56.16900000000000
H           33.08900000000000       92.06600000000000       55.73000000000000
H           32.18000000000000       91.95399999999998       57.30299999999999
C           30.68500000000000       89.43400000000000       57.03599999999999
H           29.84800000000000       88.85399999999998       57.45100000000000
C           31.94100000000000       89.29099999999998       57.69000000000000
H           32.82300000000000       89.84099999999999       57.33100000000000
H           32.04400000000000       88.62899999999999       58.56200000000000
C           26.34400000000000       86.90799999999999       55.48599999999999
H           26.40500000000000       87.56399999999999       56.38099999999999
H           27.19600000000000       86.19499999999999       55.50299999999999
H           25.38300000000000       86.35100000000000       55.51200000000000
C           24.33100000000000       87.19799999999999       52.90199999999999
H           23.50000000000000       87.78000000000000       52.47799999999999
C           24.10300000000000       85.84499999999998       53.15800000000000
H           24.89900000000000       85.21499999999999       53.58100000000000
H           23.12400000000000       85.39300000000000       52.93900000000000
C           24.61300000000000       89.76299999999999       48.22400000000000
H           23.66400000000000       89.77700000000000       48.80200000000000
H           24.97000000000000       88.71400000000000       48.14400000000000
H           24.42400000000000       90.17900000000000       47.21100000000000
C           26.34100000000000       92.36900000000000       47.17100000000000
H           25.88800000000000       93.37600000000000       47.29100000000000
H           25.72900000000000       91.78200000000000       46.45300000000000
H           27.37600000000000       92.48299999999999       46.78400000000000
O           27.10900000000000       92.19700000000000       53.21300000000000
H           27.42200000000000       93.08799999999999       53.05500000000000
H           26.40700000000000       91.96700000000000       53.70800000000000
C           30.66200000000000       87.33100000000000       48.82899999999999
H           30.96000000000000       86.35500000000000       49.26899999999999
H           31.48999999999999       87.70699999999999       48.19100000000000
H           29.74700000000000       87.18600000000001       48.21599999999999
N           31.35300000000000       88.68400000000000       50.86800000000000
H           32.28300000000000       88.31999999999998       50.91199999999999
C           30.38300000000000       88.31899999999999       49.93700000000000
C           30.80600000000000       89.59999999999999       51.67700000000000
H           31.33500000000000       90.06100000000001       52.51100000000000
N           29.55200000000000       89.84900000000000       51.31000000000000
C           29.27900000000000       89.06799999999998       50.20699999999999
H           28.31700000000000       89.11799999999999       49.71300000000000
78
 energy: -116.028344381888 gnorm: 0.092308267268 xtb: 6.7.1 (edcfbbe)
Fe          28.27114959472092       91.05957089329777       52.27478237211929
N           29.23973008188452       92.72563699943927       51.69789335074179
N           29.42537874669281       90.98093639834100       53.94131053221697
N           27.23644893421514       89.46761242255799       52.90558551386334
N           27.10400593755003       91.18014725707006       50.65803236985813
C           28.99866287054384       93.46063136038570       50.55720441255184
C           29.82716501449699       94.62896793901150       50.54939742819484
C           30.60317994981204       94.60467926739315       51.67297939558577
C           30.21621518368213       93.40486564243393       52.37963455111030
C           30.40771406472355       91.87438250975478       54.31813655716314
C           31.03009831861332       91.44351046631525       55.53750551037339
C           30.44569679162939       90.26403135564290       55.90007717561767
C           29.40656219400527       90.00621876738154       54.89350378895826
C           27.44706861042324       88.75606381333941       54.05841507979472
C           26.42193348739531       87.75930250990410       54.24295412894708
C           25.58153929159297       87.85357444998698       53.16783871576739
C           26.10782573590631       88.90714918295483       52.32785520531700
C           26.10848538087050       90.30573039124450       50.29092252756787
C           25.65235141187829       90.59410115551456       48.94539391460125
C           26.37122714204251       91.66449903670873       48.51261210314458
C           27.25183260065807       92.03474097157886       49.60109731810550
C           28.11115817248092       93.12884020076815       49.54794897870615
H           28.08119620112917       93.75958402644666       48.66600264676125
C           30.73179149862308       93.01510831108635       53.60967514617113
H           31.46646825989665       93.67636621611094       54.05783686577665
C           28.49119943248212       88.97434454095512       54.95999774109711
H           28.57583683224283       88.28755245299467       55.79465807855170
C           25.61415946556902       89.27030989122950       51.08911190502988
H           24.77563300688624       88.69891891247705       50.70146051195222
C           31.62162810557917       95.61959019736832       52.11826629539546
H           31.27123151264037       96.15310063353647       53.01092988839329
H           31.79693970601719       96.35790530348713       51.32883103935213
H           32.57454368645306       95.13679070726081       52.36096026049643
C           29.83729106565484       95.61870632536237       49.42862004210780
H           28.81454648606272       95.90120668225326       49.15622585525154
H           30.31907439257249       95.17319695218484       48.55007832125939
H           30.38280603626496       96.52127523413654       49.71658303546930
C           32.10547208463073       92.23939645284882       56.22933862894223
H           31.87726783329335       93.30909728986587       56.17168453034335
H           33.07406060328751       92.06917166578801       55.74410554736073
H           32.17868868655883       91.95708629260029       57.28399166635184
C           30.71218960896892       89.43172086356088       57.04758519105660
H           29.87738426398352       88.85490099469210       57.44422639195189
C           31.90745814955877       89.30031155678559       57.67335952419522
H           32.79158612205051       89.82059237082278       57.32547210646030
H           32.02300895584201       88.64942443530053       58.53323698950184
C           26.34141485350160       86.91183755914864       55.47668262999844
H           26.40350694032817       87.54803825050975       56.36777712535088
H           27.17608314263192       86.20123250902013       55.50484181292956
H           25.39804755138262       86.35840399386487       55.51090797707958
C           24.33358806069095       87.17086532498591       52.90537891229781
H           23.52060965230108       87.75774944235631       52.47759311251067
C           24.10676513699079       85.86857898293252       53.15881518763472
H           24.88502656331077       85.23255044478032       53.56305034105677
H           23.14619653457503       85.41175886305945       52.94626789610003
C           24.61933842963483       89.77213762230181       48.23131616124359
H           23.67654118412125       89.77551941591814       48.79047675616894
H           24.95972789818802       88.73371368274759       48.14155584498162
H           24.42667724781556       90.16890427388437       47.22929936535061
C           26.33745709771018       92.36321279294435       47.18470247569571
H           25.89470294111065       93.36169694220789       47.28641732738102
H           25.74119144869070       91.79456648640485       46.46420780778111
H           27.35254694446247       92.47840426099147       46.78765189390027
O           27.10975214152164       92.21154080767091       53.20678258268066
H           27.40467086071617       93.11571979645328       53.07136291652061
H           26.36513914924515       91.98098928310442       53.73783496101465
C           30.66666238762830       87.33132207497395       48.83449070546134
H           30.95917701380582       86.36389068671940       49.25777504478081
H           31.47772421305650       87.69404811726274       48.19375683049808
H           29.76713722305639       87.19195458645110       48.22955868529220
N           31.35037766011467       88.67310659316111       50.85469593205861
H           32.28438002166378       88.30715466704585       50.90476560083510
C           30.39545580689772       88.31701702677047       49.92311843802001
C           30.80257162046766       89.59623412211020       51.66443664658811
H           31.31975285562552       90.05369715531825       52.49187261116694
N           29.56693834083423       89.85007171983145       51.30074960288874
C           29.29574428162228       89.06509431330068       50.21327480640801
H           28.33720328423135       89.11113690158761       49.72926286878906
78
 energy: -116.040973167107 gnorm: 0.039081089283 xtb: 6.7.1 (edcfbbe)
Fe          28.29180149787274       91.04071258028631       52.26383747667920
N           29.24519843415230       92.72551036018049       51.69489947991819
N           29.43083856996416       90.97748392253526       53.93838481223364
N           27.23724531023855       89.46463653068814       52.90957301948418
N           27.11627913115246       91.16310932134792       50.64566631317810
C           29.00914182562842       93.44814064431466       50.56428465444683
C           29.83994601029200       94.62545379741512       50.53680070810501
C           30.59487981827262       94.60230709825471       51.67178625381597
C           30.20329660216423       93.40614343331151       52.38418064934572
C           30.39582778734458       91.86962017599868       54.30746709722069
C           31.03429374005398       91.45061164572745       55.52972283682443
C           30.44312017313919       90.26812281744819       55.89980975177755
C           29.40979686171784       90.01633785358939       54.89471566615452
C           27.45323185125446       88.76946392061966       54.05612156759357
C           26.43308073389134       87.76877775371530       54.24713579690607
C           25.58499811065072       87.86806051900577       53.17278776698577
C           26.12361615602692       88.92787527807350       52.33785287371465
C           26.12660785614773       90.29774635496830       50.29289348366932
C           25.65701067015231       90.58421174926816       48.95249293664512
C           26.37292821425514       91.65755497036781       48.51594175991004
C           27.26398297544673       92.01709018351990       49.59894371441204
C           28.11487049826970       93.10601448461297       49.56306475994707
H           28.07866997802898       93.73980945822741       48.68910923946441
C           30.72997420331301       93.01498973577966       53.60344551033180
H           31.47710826630252       93.66371322600159       54.04014735990754
C           28.49568588143478       88.98144898704703       54.95032711007311
H           28.57339505470095       88.29666633217421       55.78184343910245
C           25.62783946470923       89.28527901784116       51.09474558104588
H           24.79350888083455       88.71293632954102       50.71055010414725
C           31.60859463076189       95.60220571302803       52.12094628344147
H           31.26637645486549       96.13398423296940       53.00907899270843
H           31.79067169509225       96.33625918657481       51.34028331947327
H           32.55654389849934       95.12456429127982       52.36023924639390
C           29.83997164975636       95.62092852804041       49.42721726264337
H           28.82438515730409       95.90260238945791       49.15968147279538
H           30.31597048738451       95.19120544290411       48.54634876847695
H           30.38107999607569       96.51813559524440       49.70816969386573
C           32.09640262647656       92.23318166735083       56.22389073278695
H           31.87809580521313       93.29747162099378       56.17057286495803
H           33.06650334954271       92.06701082428258       55.75484715235992
H           32.16612714009558       91.95087766269307       57.26983712703521
C           30.72172817839774       89.43356053125905       57.04847283742893
H           29.88278670709941       88.85954279261200       57.42598289431056
C           31.88675178351534       89.30179011903213       57.65276062503135
H           32.77570460249942       89.80502392115329       57.31724200898103
H           32.00756238352305       88.66778687123903       58.51497546059631
C           26.33837014046514       86.91513784772940       55.46632197987324
H           26.40197616828899       87.53666818637483       56.35890058347289
H           27.15963405354029       86.19980599702234       55.49922561092095
H           25.40091538436334       86.36950162761904       55.49542368089404
C           24.34468007871768       87.15925757263996       52.90725511707713
H           23.54979411506997       87.75476469913245       52.47008459750234
C           24.11830531965315       85.88133411236694       53.15487780898802
H           24.88007570419575       85.23653393131323       53.55490796509607
H           23.16438830433229       85.42367733177808       52.95552626505793
C           24.62345100270964       89.77917683929900       48.23874689801866
H           23.68441840320094       89.78045656411727       48.78927651061164
H           24.95314714875462       88.74518036084483       48.14155762228599
H           24.43493384596662       90.17280283467217       47.24437322490650
C           26.33165677155034       92.35593171936151       47.19708477996791
H           25.89595903896956       93.35012683720080       47.29528752945764
H           25.74065428551455       91.79617354139017       46.47826560682412
H           27.33726065463781       92.46987531648270       46.79575236533795
O           27.07633745079432       92.24077030465395       53.21499100295239
H           27.34648688515720       93.16032880192017       53.12109845720791
H           26.32370696000003       92.01906583141255       53.76960679472472
C           30.67037932487760       87.33182305329336       48.83777807188599
H           30.96022290346666       86.36933144659289       49.25366094523117
H           31.47326492558089       87.68212728256155       48.19197157231530
H           29.77723416018925       87.19690580068979       48.23910411978968
N           31.34997087259967       88.66730574112729       50.84271600254780
H           32.28576977634617       88.29901295792286       50.89689165482944
C           30.40454422795274       88.31797442609670       49.91386821356844
C           30.80062889714667       89.59594622500495       51.65607087821090
H           31.31288440407980       90.05053253046817       52.47715115051867
N           29.56810662368155       89.85014016508214       51.30499018607930
C           29.30599322948920       89.06660968071034       50.22047945055510
H           28.35041783519294       89.10276056114211       49.74167488696295
78
 energy: -116.045540819812 gnorm: 0.031248558876 xtb: 6.7.1 (edcfbbe)
Fe          28.29599426590335       91.04114014535634       52.26348633151404
N           29.24880895529595       92.72321633504843       51.69055974725410
N           29.42908617993361       90.98167995829995       53.93496486832795
N           27.24195353737863       89.46989356452825       52.91298161686140
N           27.13005017175022       91.15005724243008       50.63920143894214
C           29.02006415131309       93.43602509012823       50.56046411285460
C           29.84752177399705       94.62030689488833       50.52659338238912
C           30.59000577325254       94.59925173540503       51.66805842827073
C           30.19967918129066       93.40431686614197       52.38283157750899
C           30.39248551126519       91.86853146218282       54.29659532873163
C           31.03553843788456       91.45474318295105       55.51985572360921
C           30.43896385268711       90.27438237405264       55.89098041115084
C           29.41079343028021       90.02338090649225       54.89173010565212
C           27.45948608711863       88.77782614866014       54.05725764536660
C           26.44075244741103       87.77557482408490       54.24881079683427
C           25.59332856706790       87.87844388888766       53.17521323124473
C           26.13677428559157       88.93846572219057       52.34310460270983
C           26.14207765276375       90.28824256952750       50.29265420599997
C           25.66237606716751       90.57617112080359       48.95625485951447
C           26.37668826558302       91.64826837083797       48.51764988278728
C           27.27772894426154       92.00117478455289       49.59453055672451
C           28.12582412502653       93.08798541966043       49.56278440593601
H           28.08283511986174       93.72562871562418       48.69407038999461
C           30.73520211430574       93.01400332248160       53.59521002594261
H           31.49427036690208       93.65225331403202       54.02291560617027
C           28.49995497737456       88.98648718879109       54.94760944991828
H           28.57599790476807       88.30160509914201       55.77733808061733
C           25.63791908217580       89.28758948035940       51.09847377888698
H           24.80187361508070       88.71795117875230       50.72049897454171
C           31.60249544505189       95.58968162827833       52.12659159361040
H           31.26040225132854       96.11509307309773       53.01729770233875
H           31.79041862005867       96.32586518286098       51.35087886904294
H           32.54602441774111       95.10453314141795       52.36485010456097
C           29.84247252079347       95.62170695553276       49.42343206907960
H           28.82605579551698       95.90486729094856       49.16327684567389
H           30.31399035082715       95.20431887647825       48.53454481357308
H           30.38370332030174       96.51823468117689       49.70576232675049
C           32.09142665502998       92.23107127735970       56.22132424966625
H           31.87948434285688       93.29629271242068       56.17000690482510
H           33.06676543115670       92.06320140345015       55.76417120336273
H           32.14945786012931       91.94306776735223       57.26589361699159
C           30.71346181605709       89.43795509396062       57.03972799175261
H           29.86875823724704       88.86854588264356       57.40841463634375
C           31.88257729042462       89.30548223835432       57.64793670765897
H           32.77864445162828       89.79000842820194       57.30471410229676
H           32.00374819522882       88.66827555897403       58.50654781406906
C           26.33511580461209       86.91545850196201       55.45933506030521
H           26.40127705411532       87.52644909213267       56.35838224960479
H           27.14658060636971       86.18950862902675       55.49026253601244
H           25.39206210091288       86.38067254224198       55.47618210010116
C           24.35867394321445       87.16230487266165       52.90493099897009
H           23.57444921856020       87.76160785029646       52.45620786749539
C           24.12775305294335       85.88463950352875       53.16034951284157
H           24.88596327570055       85.23215881731026       53.55369746814380
H           23.17662009424949       85.42641872433465       52.95418586424643
C           24.62262400725806       89.78254772578869       48.24501675758511
H           23.68431839890474       89.78837444351804       48.79510206916580
H           24.94321693993642       88.74667244345798       48.14232801931832
H           24.43820274970436       90.18181546899346       47.25323276424576
C           26.32528470676787       92.34978507048362       47.20455963084464
H           25.89305844854137       93.34385548809966       47.30923338142284
H           25.72883640811454       91.79382334067270       46.48868648451171
H           27.32775712013993       92.46226237829984       46.79706621485122
O           27.02677083201516       92.27345939349466       53.22296227749141
H           27.28381013066408       93.20346150124347       53.18228047190445
H           26.28429793237025       92.05841683060146       53.80279970547422
C           30.67207763375858       87.33161484128043       48.83779867467914
H           30.96145765631378       86.37003929811014       49.25481729052923
H           31.47322433878406       87.67388833593583       48.18560609122175
H           29.77710883112174       87.19756640329108       48.24295551267063
N           31.35661076352999       88.66931230433030       50.83527950914124
H           32.29209150304306       88.29927397787137       50.89005725044476
C           30.41121807584356       88.32059693488132       49.91061194177042
C           30.80708406166076       89.59707817292777       51.65342484733858
H           31.32054282522387       90.05072650144109       52.47193107806322
N           29.57121738425121       89.85175620855102       51.30929291465599
C           29.31100888547753       89.06537116257302       50.22659695906331
H           28.35476336982668       89.08928514185489       49.75077537803165
78
 energy: -116.049574614040 gnorm: 0.030796851969 xtb: 6.7.1 (edcfbbe)
Fe          28.29848472002111       91.04372920246379       52.26329395503907
N           29.25253574725972       92.71695646484601       51.68351526181201
N           29.42315494657767       90.98955068785673       53.93056157381300
N           27.25013441956858       89.47764932191396       52.91574773626328
N           27.14942274833188       91.13344956713520       50.63147516850001
C           29.03100921323780       93.42242094749324       50.55160800792330
C           29.85521551160013       94.61282744899559       50.51496254854396
C           30.58655207721083       94.59546366737757       51.66157076498705
C           30.19890541136077       93.40031445123357       52.37824165656018
C           30.39191772209442       91.86918936208740       54.28440011010836
C           31.03967079843736       91.45798161632730       55.50618376888353
C           30.43763277224273       90.28132995298168       55.87851673858850
C           29.40952142511533       90.03199527413274       54.89016597357333
C           27.46581993108184       88.78498085946320       54.06140355319602
C           26.44913046331486       87.77934707115402       54.24862888013918
C           25.60473747559000       87.88517288170353       53.17512267023025
C           26.14835750781711       88.94748655056596       52.34759471356536
C           26.15609201646159       90.27761736054401       50.29199970628360
C           25.66869586698006       90.56657954394461       48.95840128077738
C           26.38257413062872       91.63559884620501       48.51713434095617
C           27.29284096089803       91.98442260821689       49.58763097450103
C           28.13994206130652       93.07081039376284       49.55474370714197
H           28.09469129957751       93.70956853573604       48.68737942913948
C           30.74513885270688       93.01263687579565       53.58418841375116
H           31.51605235730691       93.63976405491178       54.00338221087110
C           28.50329390591244       88.99180322426186       54.95043342500252
H           28.58103534539622       88.30430307993619       55.77729729151872
C           25.64414356383897       89.28606315076863       51.10258856614569
H           24.80629403278786       88.71776647643587       50.73118058230340
C           31.59948429864617       95.57783255087132       52.13430924308328
H           31.25524355842173       96.09177738612219       53.03190804300979
H           31.79475792129371       96.32243023655545       51.36717643420501
H           32.53868254880695       95.08037480939389       52.37117946843622
C           29.84509754046419       95.62062518365781       49.41814878495678
H           28.82501199818925       95.90847213642689       49.17004055836633
H           30.30876814555854       95.21470642995817       48.51804596491920
H           30.39046614712657       96.51561398714155       49.70621579020056
C           32.08983872287497       92.23013081594100       56.21909597908791
H           31.88378954884908       93.29796052976057       56.16841178136487
H           33.07303565717990       92.05807178387575       55.77692338144378
H           32.12865095923968       91.93461426275647       57.26469899370438
C           30.70533597705374       89.44087500301404       57.02422217401426
H           29.85450648080577       88.88541487318545       57.39720311189686
C           31.88102018059082       89.29455469734030       57.62848966702912
H           32.77508728489746       89.78431451471755       57.29014159650260
H           31.99088635654667       88.66962279652428       58.49890701125040
C           26.33095331181993       86.91259763311298       55.45180398056144
H           26.40441384422741       87.51192443725731       56.35955200889027
H           27.12898442902920       86.16938246983976       55.47694175379982
H           25.37550958656851       86.39582084872880       55.45476240927516
C           24.37816009473282       87.16542560189131       52.89537056368165
H           23.59942929028368       87.76528336541702       52.43914731434051
C           24.14518318614643       85.88415504683391       53.15345385881410
H           24.89437587157734       85.23264407095580       53.56704232654935
H           23.18934293816038       85.43133674016561       52.95073335364579
C           24.61790117818704       89.78470160779467       48.25211207323285
H           23.68011855056968       89.80119408302173       48.80529458308094
H           24.92553518198433       88.74393914670094       48.14523773219052
H           24.43695695354132       90.19170543343525       47.26126012689564
C           26.31756011734777       92.34341898513441       47.20954429731325
H           25.88843868676981       93.33855446871189       47.32706766433657
H           25.70899388286875       91.79196480188844       46.49817559626455
H           27.31687169292884       92.45521430889134       46.79110484467534
O           26.94508338651548       92.32526546264901       53.22413026390486
H           27.20143051975313       93.26138283797727       53.28150508760844
H           26.23967362335919       92.12177369062748       53.85847261451525
C           30.67366183759976       87.32965265394242       48.83702077412470