78
 energy: -116.058077828302 gnorm: 0.000051562353 xtb: 6.7.1 (edcfbbe)
Fe          28.22060932991912       91.08320737781173       52.27201094221758
N           29.21061563087980       92.73019064108300       51.67112377833857
N           29.34091583646474       91.03922215638201       53.94830857417107
N           27.20594929213807       89.48790630511974       52.90428664126945
N           27.08502250655654       91.17628600161071       50.63892033668326
C           29.03335384425946       93.40857797495767       50.50617806790006
C           29.96398991511226       94.50973602552023       50.40888203655026
C           30.71351371691087       94.48007967755804       51.54417537011364
C           30.23263863466595       93.35809823849924       52.31811110262443
C           30.34510458353558       91.89614033609359       54.29072035784580
C           30.94847885134118       91.50618522141551       55.53727895970944
C           30.29422886846437       90.37198675369933       55.94403186615959
C           29.28822417539179       90.10657511086065       54.93566901886732
C           27.43097020835021       88.77266936142777       54.03982125362514
C           26.50980187963438       87.66816378257207       54.14216347415338
C           25.71396666874226       87.72842980770523       53.03001144731103
C           26.16966333438180       88.88116183771299       52.27569935498649
C           26.06806061295675       90.34007286495003       50.30801199021663
C           25.48808936213120       90.71495695564676       49.03553455721836
C           26.18495970445429       91.79906016224498       48.60511470539026
C           27.17933519100821       92.07140904199946       49.62156388566653
C           28.08690873508077       93.10978728385764       49.54394796591986
H           28.05295663508893       93.73882035021646       48.66771365568869
C           30.75920770449987       92.98464047484892       53.53956740585473
H           31.57576037219090       93.57447771762398       53.92725207434005
C           28.40866332268562       89.04251462364338       54.98029611219030
H           28.49198226895879       88.36463553445719       55.81579295502007
C           25.63379753587384       89.26634978001509       51.06085017177272
H           24.81700870583991       88.68150867936960       50.66599921874666
C           31.81891706914952       95.38466887661102       51.97064045444155
H           31.57560373131950       95.86971356018900       52.91644242623826
H           31.99462111286599       96.15725859757980       51.22625804199387
H           32.74435275751179       94.82430922423937       52.10760445848241
C           30.02919285872781       95.45578168230843       49.25939997162697
H           29.08061540702218       95.97987740816507       49.14023004025672
H           30.23652967492337       94.91909512426804       48.33342985691623
H           30.81204281419895       96.19523269216137       49.40963050655249
C           32.02098410691100       92.25962434084013       56.24444256042620
H           31.88002603190784       93.33327691074780       56.12809677501473
H           33.00547066825042       92.00404639467889       55.84837613731010
H           32.00649724965749       92.01990820430784       57.30575727008636
C           30.49390787160339       89.58159514399675       57.13814609534631
H           29.60285884121994       89.12115754451133       57.54888900914099
C           31.65913649648538       89.37885880117666       57.74462733995924
H           32.58368125658721       89.76987504729379       57.35712468716850
H           31.73099220954665       88.78727949812649       58.64219592979885
C           26.42725796148151       86.72335827998310       55.28986709200072
H           26.58747381011766       87.24618568114063       56.23163757329753
H           27.18307915034683       85.94061504590888       55.20555465987654
H           25.44637916318159       86.25321819960098       55.31599041381264
C           24.61302179966169       86.87364271521656       52.64418635286098
H           23.80195815540734       87.36436760122085       52.11875178727178
C           24.53327430422294       85.56729350714325       52.87578350878309
H           25.32892129212487       85.02016592404956       53.35080126461491
H           23.67384320971180       84.99250469829835       52.57253998295145
C           24.34778676547525       90.00542096856137       48.38991999893398
H           23.46768717118500       90.03391361394718       49.03254315540499
H           24.59907234483648       88.96030688067438       48.20698380005091
H           24.09239833247964       90.46757645153920       47.43950238777333
C           26.01576316333910       92.59814205267877       47.35858633095047
H           25.78168309846435       93.63578717010547       47.59756771019607
H           25.20953010433729       92.19763088338308       46.74902215149892
H           26.93185109189491       92.58559537127292       46.76748132522115
O           26.82507770432687       92.50554540171069       53.40893531196478
H           27.14639769292036       93.34732043444724       53.06776856698355
H           27.17971076409100       92.40703452145642       54.29927000638318
C           30.71591579026166       87.11490825849432       49.25563333207087
H           31.32996150020818       86.38455315615859       49.78230907717523
H           31.24443847480192       87.41556058170885       48.35100137087399
H           29.78051998894546       86.64311488887594       48.97177185693918
N           31.43272534589966       89.07465929284886       50.64018370612573
H           32.42079147249287       88.94168555496586       50.50016145506379
C           30.43731537209417       88.29006727282569       50.11928778641943
C           30.84618583182337       90.04787316511135       51.37266070287584
H           31.38367959458671       90.80944678998614       51.89865632196161
N           29.54116202990162       89.92755910746027       51.34696739154512
C           29.27126673070349       88.83867909152043       50.57081535463850
H           28.26366320327467       88.52485830759025       50.39152942216830
