87
 energy: -124.411109423609 gnorm: 0.376483973734 xtb: 6.7.1 (edcfbbe)
Fe         -27.54000000000000       -8.58700000000000       39.15600000000000
N          -26.47800000000000      -10.19900000000000       39.03699999999999
N          -26.97800000000000       -8.04200000000000       37.37900000000000
N          -28.53400000000000       -6.89400000000000       39.39900000000000
N          -28.17599999999999       -9.18700000000000       40.95800000000000
C          -26.30000000000000      -11.19100000000000       39.97200000000000
C          -25.35000000000000      -12.22600000000000       39.44400000000000
C          -25.01700000000000      -11.84900000000000       38.15899999999999
C          -25.63100000000000      -10.55700000000000       37.97700000000000
C          -25.96300000000000       -8.56000000000000       36.61300000000000
C          -25.65700000000000       -7.75600000000000       35.49300000000000
C          -26.56200000000000       -6.74000000000000       35.44799999999999
C          -27.42800000000000       -6.91600000000000       36.64700000000000
C          -28.91300000000000       -6.03000000000000       38.34500000000000
C          -29.92100000000000       -5.11200000000000       38.75399999999999
C          -30.13300000000000       -5.33700000000000       40.11400000000000
C          -29.25800000000000       -6.43500000000000       40.50200000000000
C          -28.86600000000000       -8.44400000000000       41.92700000000000
C          -29.11600000000000       -9.22900000000000       43.14500000000000
C          -28.56000000000000      -10.42200000000000       42.88200000000000
C          -27.99700000000000      -10.37900000000000       41.55300000000000
C          -27.08100000000000      -11.28800000000000       41.11700000000000
H          -26.94700000000000      -12.18100000000000       41.72800000000000
C          -25.35100000000000       -9.72300000000000       36.88200000000000
H          -24.57100000000000      -10.04800000000000       36.19300000000000
C          -28.41400000000000       -6.02100000000000       37.07500000000000
H          -28.79900000000000       -5.28800000000000       36.36700000000000
C          -29.38200000000000       -7.13900000000000       41.70199999999999
H          -29.91100000000000       -6.65400000000000       42.52200000000000
C          -24.87400000000000      -13.52000000000000       40.09700000000000
H          -25.89300000000000      -13.88100000000000       40.35099999999999
H          -24.43500000000000      -13.02400000000000       40.98900000000000
H          -24.24800000000000      -14.38800000000000       39.79900000000000
C          -24.18100000000000      -12.56000000000000       37.11900000000000
H          -23.41500000000000      -11.76900000000000       36.97200000000000
H          -24.93500000000000      -12.48800000000000       36.30600000000000
H          -23.68300000000000      -13.55300000000000       37.08800000000000
C          -28.57300000000000      -11.60200000000000       43.84200000000000
H          -28.12400000000000      -12.61100000000000       43.96200000000000
H          -29.68000000000000      -11.69800000000000       43.84499999999999
H          -28.24500000000000      -10.95900000000000       44.68600000000000
C          -29.70600000000000       -8.81000000000000       44.38200000000000
H          -30.73300000000000       -9.18300000000000       44.50599999999999
C          -28.89700000000000       -8.66100000000000       45.61799999999999
H          -27.86199999999999       -8.29300000000000       45.56700000000000
H          -29.32400000000000       -8.91700000000000       46.59900000000000
C          -31.13200000000000       -4.59500000000000       40.99499999999999
H          -30.38600000000000       -4.28400000000000       41.75700000000000
H          -31.65800000000000       -5.50500000000000       41.35599999999999
H          -31.86000000000000       -3.77000000000000       40.84600000000000
C          -30.52200000000000       -4.18400000000000       37.87400000000000
H          -30.86600000000000       -4.68100000000000       36.96100000000000
C          -30.22300000000000       -2.72500000000000       37.94400000000000
H          -29.87900000000000       -2.27000000000000       38.88500000000000
H          -30.34300000000000       -2.08700000000000       37.05600000000000
C          -26.67600000000000       -5.65700000000000       34.31900000000000
H          -25.59300000000000       -5.41000000000000       34.30499999999999
H          -27.25900000000000       -4.73400000000000       34.11400000000000
H          -26.88200000000000       -6.41800000000000       33.53600000000000
C          -24.48000000000000       -7.94700000000000       34.54500000000000
H          -24.22200000000000       -6.86700000000000       34.56500000000000
H          -25.18900000000000       -8.13300000000000       33.71000000000000
H          -23.55100000000000       -8.53600000000000       34.39200000000000
C          -32.39800000000000      -11.16000000000000       38.54500000000000
H          -32.23900000000000      -12.25800000000000       38.48799999999999
H          -33.18700000000000      -10.87200000000000       37.81700000000000
H          -32.71700000000000      -10.89500000000000       39.57600000000000
N          -30.41500000000000      -10.54600000000000       37.01900000000000
H          -30.75400000000000      -10.97100000000000       36.18000000000000
C          -31.10100000000000      -10.44200000000000       38.20799999999999
C          -29.22100000000000       -9.96900000000000       37.21800000000000
H          -28.49400000000000       -9.87600000000000       36.41200000000000
N          -29.01700000000000       -9.54000000000000       38.43900000000000
C          -30.26400000000000       -9.75500000000000       39.11900000000000
H          -30.42700000000000       -9.41600000000000       40.13399999999999
C          -24.88300000000000       -5.37800000000000       38.75800000000000
H          -24.67100000000000       -4.29300000000000       38.86800000000000
H          -25.74500000000000       -5.50300000000000       38.06800000000000
H          -23.98600000000000       -5.87300000000000       38.32900000000000
C          -25.20900000000000       -5.98000000000000       40.09800000000000
H          -26.10300000000000       -5.46100000000000       40.50200000000000
H          -24.35500000000000       -5.78700000000000       40.78000000000000
S          -25.51700000000000       -7.67200000000000       40.04600000000000
C          -25.07000000000000       -8.07300000000000       41.74500000000000
H          -25.70400000000000       -7.51900000000000       42.47000000000000
H          -24.01000000000000       -7.80100000000000       41.93699999999999
H          -25.20499999999999       -9.16000000000000       41.93100000000000
87
 energy: -124.558692684270 gnorm: 0.204563282343 xtb: 6.7.1 (edcfbbe)
Fe         -27.53801135212403       -8.58918137225345       39.17230241523290
N          -26.45456085813632      -10.21655160755295       39.02624608524339
N          -26.98528866073170       -8.02174023530516       37.37669651598078
N          -28.55896436765193       -6.88691773672411       39.39080487772473
N          -28.17523421329537       -9.16372205105570       40.97822572923162
C          -26.29877471328699      -11.21752178243671       39.94768514406960
C          -25.35282031511663      -12.23409777760634       39.42803115149843
C          -25.01408845773416      -11.84978473742424       38.17416242513470
C          -25.63110672393066      -10.56262968410990       37.97279899562313
C          -25.96782257091177       -8.55087524096104       36.63470278932275
C          -25.65718659656471       -7.74382426591797       35.51249406426115
C          -26.58007359849009       -6.73348341822601       35.46844703771269
C          -27.41574912726503       -6.91586941421464       36.65322570857410
C          -28.92515502121607       -6.04727422157012       38.34759745567933
C          -29.91712287911375       -5.09828886683640       38.76707175402057
C          -30.13056028357688       -5.32309560669664       40.10093105740297
C          -29.28345305166632       -6.44647074737209       40.48257722218590
C          -28.87006056301314       -8.42525424237812       41.91871446390250
C          -29.08634256721152       -9.21049034343178       43.13582530745550
C          -28.54442711960401      -10.43105518956209       42.86361498928930
C          -27.97155670038427      -10.37156032595702       41.55028815207504
C          -27.06628394032109      -11.30873419587613       41.10121715532743
H          -26.93911978649387      -12.18660516339077       41.72472742185954
C          -25.34932769331594       -9.73865485352102       36.89260956130312
H          -24.57669774498320      -10.05371736923554       36.19794845132221
C          -28.40548247533274       -6.03725889738574       37.07291551007791
H          -28.78248456980551       -5.29572791026170       36.37256164830964
C          -29.37519324779485       -7.13835844636918       41.69485669170781
H          -29.90752237485210       -6.66145909832242       42.51457253010255
C          -24.90714722021169      -13.49790140853312       40.13368672393817
H          -25.88858421087815      -13.91242016835965       40.38728078475712
H          -24.43506198259724      -13.05673581661152       41.01950040942908
H          -24.26852757850172      -14.32571423378316       39.76885168361368
C          -24.19078233572503      -12.52456099684160       37.10748877357386
H          -23.40202823267507      -11.78030861111972       36.94195778780148
H          -24.90840825052849      -12.49656331540474       36.27675190271464
H          -23.71825596896199      -13.52246296996100       37.13211086319173
C          -28.59402050767775      -11.57259886031961       43.85766989440065
H          -28.11714132611194      -12.56674826251641       43.90940454975878
H          -29.68237623644139      -11.71959553645037       43.88481892757117
H          -28.26402908344136      -10.99112941076268       44.72865828317290
C          -29.67179428183361       -8.84592117284891       44.42166940218628
H          -30.71769400818383       -9.16683916696091       44.52390383453163
C          -28.92141466155492       -8.67171503583885       45.57832560566197
H          -27.89046548000502       -8.31246227341533       45.55039274219762
H          -29.33354620451735       -8.88612707443702       46.56700128681397
C          -31.10766758069929       -4.62495390930565       41.02265919460942
H          -30.40982217284335       -4.27639955298214       41.79323086695095
H          -31.67628806232670       -5.48883237321118       41.38966162458119
H          -31.81549611066856       -3.80396533239513       40.80444701204397
C          -30.48220065602847       -4.13495312358324       37.86241339491507
H          -30.86448684895355       -4.63168420139187       36.96335018805521
C          -30.23514140856440       -2.77073687443245       37.93749954256132
H          -29.88276523663557       -2.30310185283277       38.85967359874513
H          -30.36502121083898       -2.11246373392120       37.07729609364242
C          -26.65011691907178       -5.69746277926499       34.32415483078567
H          -25.59468882285154       -5.39617574416293       34.27229024830296
H          -27.25836407980881       -4.78494705238454       34.17418223205178
H          -26.87139797543177       -6.39292435149180       33.50249292871767
C          -24.51508043439219       -7.91199297995536       34.52426153031256
H          -24.19384840727473       -6.86322605802920       34.51844207570574
H          -25.15543063039123       -8.12098273168674       33.65831352609552
H          -23.60526228792502       -8.53827299319012       34.44826109827000
C          -32.39098657318026      -11.15165703386459       38.53904073244683
H          -32.24180322820475      -12.24114952035761       38.48730382634415
H          -33.18053028506890      -10.87526440430147       37.82637349483335
H          -32.71158434206199      -10.89644869128874       39.55674824962806
N          -30.41977830722110      -10.54599521077989       37.03540603489332
H          -30.75947247232793      -10.97232409982292       36.18964615882520
C          -31.09732500557225      -10.44529697557808       38.22828290026801
C          -29.21641252307503       -9.96872928510576       37.21858449281808
H          -28.49278094127189       -9.87950738135902       36.42187148711516
N          -29.04655195702863       -9.51269281036596       38.43354296577911
C          -30.25883436522502       -9.77164944971521       39.09805031813657
H          -30.42361448057854       -9.43003461051153       40.10837081601851
C          -24.88280223965497       -5.37444626439653       38.75140897545143
H          -24.67315616982750       -4.30264590435485       38.86110575289542
H          -25.73271661715485       -5.50221339134889       38.06961569114796
H          -23.99779705801926       -5.86720136343327       38.32807069140824
C          -25.21140695627890       -5.96155119649991       40.10624757755107
H          -26.10157969216502       -5.45612001692828       40.50890371513514
H          -24.36145324679311       -5.78345444187431       40.78243816654434
S          -25.49652911080948       -7.69779382897082       40.03960395280356
C          -25.07177794976319       -8.07555442647085       41.75711398091677
H          -25.70493817586896       -7.52306219931043       42.46305157925119
H          -24.02077370052282       -7.80628294642936       41.93319859191161
H          -25.20556661384849       -9.14983978659071       41.92506409458415
87
 energy: -124.634928663864 gnorm: 0.100792926413 xtb: 6.7.1 (edcfbbe)
Fe         -27.53619009206743       -8.58290893337379       39.18697899144502
N          -26.44101688738951      -10.23887140538387       39.01499338834424
N          -26.98285903443792       -7.99953942264968       37.36779456791665
N          -28.59141764969847       -6.88117656446021       39.38156615909689
N          -28.16681588534532       -9.14656845879352       40.99628862970962
C          -26.30115434381683      -11.24373335366628       39.92691464989296
C          -25.36001741576406      -12.25033913199606       39.41713506327244
C          -25.00712949465570      -11.85478606250118       38.18316487757792
C          -25.63104747971721      -10.56502815661269       37.97133246735181
C          -25.96308613405695       -8.54076804479505       36.65216241075743
C          -25.65179483145531       -7.73606186762671       35.52097285668926
C          -26.59013467303212       -6.72821414025499       35.47806137501212
C          -27.39992065431760       -6.91155027974331       36.65529196525829
C          -28.93580911894479       -6.06024206174712       38.35205855140534
C          -29.92124304553298       -5.09036654501433       38.78107151611207
C          -30.13579024860093       -5.31367848394378       40.09619652833092
C          -29.30804882359980       -6.45931971761373       40.46637951213394
C          -28.86261220994458       -8.41204704977587       41.91381837389870
C          -29.05972351676368       -9.19281607299870       43.12389127592223
C          -28.52738539478147      -10.43388559199900       42.85569366203990
C          -27.94118862477833      -10.36361519494786       41.55293388922116
C          -27.05312684876568      -11.32677381112109       41.08756488499957
H          -26.93302188278945      -12.19206527029311       41.72152009869805
C          -25.34560951325994       -9.74920215861457       36.90111148337300
H          -24.58440723913715      -10.05705758256737       36.19891092874239
C          -28.39927286641781       -6.04951721953548       37.07479947473629
H          -28.76670481144453       -5.30066631394466       36.38209109478377
C          -29.36681827820572       -7.13816574597308       41.68727651689914
H          -29.90421235293469       -6.66838317718248       42.50492561176442
C          -24.94264337218778      -13.47720868792789       40.17014928422248
H          -25.88655707490330      -13.94598500472530       40.43132358595457
H          -24.43928673896278      -13.08849982472988       41.05275526010132
H          -24.29145338701406      -14.25529709643261       39.72839053720194
C          -24.19636081393496      -12.49051350014635       37.09451385992835
H          -23.38516023875071      -11.78964234620433       36.90879970541484
H          -24.88104116472378      -12.50349034400590       36.24625973454640
H          -23.75635954127874      -13.49465562432124       37.18909125026281
C          -28.61533576832414      -11.53914742733695       43.87256027110178
H          -28.10279690634349      -12.51475809163553       43.83859790911688
H          -29.68669226758254      -11.73869502632871       43.92539210996069
H          -28.28387973278378      -11.02405500264138       44.77342206962631
C          -29.64265315716085       -8.88616516417195       44.45163829355330
H          -30.70216401721045       -9.16112839697870       44.53165740509978
C          -28.94538904071576       -8.67527089484723       45.53971607409829
H          -27.90827620249812       -8.34650923943406       45.53221266660367
H          -29.34798639174892       -8.83965788833306       46.53860744270738
C          -31.08340611881870       -4.65424268601864       41.05207518988671
H          -30.43376382748553       -4.26997663018108       41.83536725393575
H          -31.69313568871221       -5.47448688198671       41.42711378545001
H          -31.76444897140123       -3.83880783128182       40.75048057529236
C          -30.44328763386099       -4.09401293423850       37.84822070475217
H          -30.85765689827890       -4.58667774172761       36.96186007059207
C          -30.24191833269896       -2.81033317832928       37.93056541328588
H          -29.87264085899434       -2.33212449426558       38.83480712769475
H          -30.40134238752795       -2.12859408556911       37.09958430789569
C          -26.62673240085252       -5.73775018462884       34.33199118405226
H          -25.59632733591112       -5.38573585809774       34.24436182705545
H          -27.26767428137241       -4.84088488734022       34.25348650946558
H          -26.85978559699407       -6.37128112176606       33.47180654548664
C          -24.55199427279132       -7.87584187451883       34.50287289498997
H          -24.16744435932106       -6.85707112215086       34.46591231547924
H          -25.12227689930368       -8.10699677605579       33.60415815204303
H          -23.67003867135680       -8.54693065464148       34.52364306637634
C          -32.38504114497082      -11.14545956244745       38.53429281862772
H          -32.24272966988270      -12.22871039782828       38.48481483312924
H          -33.17096717487532      -10.87335394208842       37.82972206475144
H          -32.70826823628448      -10.89469817809339       39.54245771877390
N          -30.42385140935339      -10.55106465282911       37.04950176595462
H          -30.76232901745648      -10.97563030668057       36.19925362796660
C          -31.09436643545727      -10.45232653910535       38.24578698760545
C          -29.21529796354268       -9.96618020150181       37.21657429311519
H          -28.49212267604303       -9.88153528595028       36.43022326577610
N          -29.07546221064450       -9.49749580545780       38.43238373136982
C          -30.25467191650933       -9.77596005877997       39.07890492612687
H          -30.41952011191633       -9.44320327310865       40.08851023937693
C          -24.88339533811212       -5.36842360784774       38.74537420438639
H          -24.67432003690892       -4.30580472836116       38.85155160839769
H          -25.72478572097631       -5.50201383520870       38.07061204972955
H          -24.00821172669598       -5.86406285711466       38.32891392523008
C          -25.21274960367003       -5.93902051689053       40.11267683328682
H          -26.10334666888885       -5.45565162167188       40.51450578378972
H          -24.36768001855610       -5.77923658801726       40.78581772874872
S          -25.47910229145933       -7.72015914211550       40.03202402659962
C          -25.07314485519039       -8.08038471707789       41.76799422291635
H          -25.70990115258714       -7.52635196425773       42.45292694180962
H          -24.02968325414686       -7.81198418876125       41.93246262907024
H          -25.20858166240972       -9.14551170667563       41.92141858484083
87
 energy: -124.670566785555 gnorm: 0.054055506528 xtb: 6.7.1 (edcfbbe)
Fe         -27.52889275890011       -8.57621146594718       39.19651874944854
N          -26.44023379666480      -10.25142220850699       39.00963300622264
N          -26.96898958206336       -7.98614492328618       37.36926062985311
N          -28.61344894512990       -6.89305125209640       39.37468472803693
N          -28.13832168732375       -9.13828806707910       41.00786103550855
C          -26.31271673895853      -11.26239108525897       39.91180742348980
C          -25.37598620914447      -12.26525072341991       39.41155354499813
C          -25.00256808103508      -11.85581645789141       38.18142258059938
C          -25.63116319675582      -10.56619083734878       37.97059173703392
C          -25.94973306748970       -8.53108921299932       36.66088475750764
C          -25.64813420298282       -7.73018642436682       35.51849779145599
C          -26.58742753933965       -6.72816793536879       35.47919562994693
C          -27.38739539836174       -6.90447440149086       36.65988319231339
C          -28.94382776718975       -6.07291558359366       38.35111812915855
C          -29.92286325384301       -5.09605526583327       38.78503739312450
C          -30.13903181613556       -5.31899359858693       40.10173743276913
C          -29.32557284639009       -6.47718072228221       40.45659510598155
C          -28.84325129347202       -8.40577030945899       41.91400355858070
C          -29.04464094600486       -9.18616887067414       43.11253813518945
C          -28.50931522020847      -10.42705313581955       42.86060710088860
C          -27.90972596003090      -10.35723961946193       41.56163848441465
C          -27.04542475483088      -11.33845099217244       41.08063386968358
H          -26.92551931799924      -12.20227878336765       41.71585884045543
C          -25.34065617555968       -9.74882920375753       36.90446666765250
H          -24.59086282367643      -10.06147899976827       36.19560457868997
C          -28.39703580299909       -6.05593198441790       37.07880384473378
H          -28.74847182823462       -5.29895533600707       36.39109090506308
C          -29.36431687170454       -7.14060316664929       41.68052426326354
H          -29.90357274696342       -6.67387201459330       42.49569612455979
C          -24.97271176537686      -13.46657334090829       40.19530195754042
H          -25.88681107717822      -13.98636001993440       40.48511328241577
H          -24.45124276850458      -13.12194665180904       41.08964456846736
H          -24.31305627526288      -14.19167587204275       39.68470671082350
C          -24.19528321405606      -12.46949630041106       37.08782643966236
H          -23.36145079936954      -11.80084408158643       36.87262748377706
H          -24.84711068496010      -12.51097013570038       36.21135246641170
H          -23.79011044887169      -13.47739002079313       37.25661298916824
C          -28.62462873547542      -11.51751237106154       43.87908271684411
H          -28.07896489465286      -12.46982909025306       43.75566881900777
H          -29.68827603524220      -11.75931512529186       43.96484415514221
H          -28.30491027405834      -11.06581048777640       44.82412155383141
C          -29.64837928338901       -8.91461306019673       44.43684744784448
H          -30.70468330230235       -9.17235236840084       44.52020170297172
C          -28.95004307555115       -8.65457716680620       45.53771109994243
H          -27.89998454987829       -8.38294933517495       45.51847324333461
H          -29.37071304356911       -8.76203069792638       46.53474616646170
C          -31.06536405260902       -4.67436523201032       41.07440171756322
H          -30.45904274628473       -4.26516309661628       41.88454199511088
H          -31.71191790916004       -5.45870400204211       41.47370451047763
H          -31.71290684580897       -3.86618992289888       40.69094953462395
C          -30.42395552011317       -4.10355803869570       37.83303644141278
H          -30.84781283195735       -4.56707844078329       36.94324942974882
C          -30.25706569484002       -2.78928331302864       37.93545747330490
H          -29.84241459592559       -2.33393651845432       38.82596865083403
H          -30.45856895827825       -2.10850101336730       37.11832350099554
C          -26.61507889144460       -5.76258995728052       34.33738498783768
H          -25.59960468377999       -5.36962078757194       34.21408435807599
H          -27.29436820258969       -4.89043335100406       34.34844298970945
H          -26.84799395852794       -6.34699033219532       33.43759444249187
C          -24.57736338874495       -7.85409275987873       34.48649189468355
H          -24.13715441557595       -6.85393532404762       34.40216724662553
H          -25.08583846007491       -8.08888409603937       33.54481237680825
H          -23.73303738005949       -8.56676131362342       34.60425835961926
C          -32.38420464610736      -11.14226282657830       38.53001839792063
H          -32.24659550655461      -12.22340113924112       38.48027131287828
H          -33.16459103381739      -10.86543661094620       37.82467242587213
H          -32.70975729519546      -10.88950382956708       39.53440707181224
N          -30.42372912707771      -10.55971349115758       37.05663539077893
H          -30.76226237424509      -10.98556435880391       36.20849653798773
C          -31.09301053421169      -10.46109358130926       38.25115900231797
C          -29.21904437245119       -9.95938249243991       37.21344774801511
H          -28.49033680834399       -9.88401285344493       36.43425000054722
N          -29.09082134273288       -9.47684497760454       38.42658761690308
C          -30.25147891393658       -9.77770600163388       39.07546822758731
H          -30.41675893430486       -9.45691484236712       40.08410061750386
C          -24.88552848388553       -5.36243178105920       38.74415587692799
H          -24.67507824232244       -4.30041084424596       38.83785730744329
H          -25.72293200905779       -5.50244507233041       38.06863706544699
H          -24.01447090558194       -5.86244962080540       38.32913518659655
C          -25.21294476942774       -5.92605687754103       40.11509604079247
H          -26.10895602021723       -5.45837906930333       40.51979559566010
H          -24.37310453196413       -5.77020508223829       40.79192196316552
S          -25.46092967165989       -7.73016046323488       40.02394340032874
C          -25.07662277414508       -8.08638828782718       41.77035004800560
H          -25.72316027629556       -7.52892421819938       42.44088075118526
H          -24.03596322369619       -7.81944117070025       41.93785326920088
H          -25.21576880990227       -9.15007430030438       41.91835719092796
87
 energy: -124.685893023307 gnorm: 0.043049980557 xtb: 6.7.1 (edcfbbe)
Fe         -27.52039774709262       -8.56782057914267       39.20268087147186
N          -26.44545078598561      -10.25746582265798       39.00641474470896
N          -26.94543618835019       -7.97261974941621       37.37232199106373
N          -28.62701981466541       -6.90847061140536       39.36659832247894
N          -28.10371278529460       -9.13402809577627       41.02001128871707
C          -26.32899007656862      -11.27493623189291       39.89960364288055
C          -25.39903784165151      -12.27956980124253       39.40598210584303
C          -25.00178424744450      -11.85691952162815       38.17920283348128
C          -25.63056008460586      -10.56605075093032       37.97250103657507
C          -25.92990031280743       -8.52259037961655       36.66284644308992
C          -25.64219375491567       -7.72749894352171       35.50610032978515
C          -26.58040891945544       -6.72969615731342       35.47360350660556
C          -27.37327704468622       -6.89382074224488       36.66383562107947
C          -28.95395755311523       -6.08175083953895       38.34786270528373
C          -29.92094335318185       -5.09101169649811       38.79026266555211
C          -30.13768521092717       -5.32730407905610       40.11130024888759
C          -29.33544383562833       -6.49536704440130       40.44870406451429
C          -28.81801991083610       -8.40115580382526       41.91920081630526
C          -29.02737943519775       -9.17544322410058       43.11451169392037
C          -28.49252365813470      -10.41691411500868       42.87659174402688
C          -27.87726721364091      -10.35112679916710       41.57951639528395
C          -27.03915644933068      -11.34582463457524       41.08111517978130
H          -26.91894057389630      -12.21579922519895       41.70814488653552
C          -25.33284860064747       -9.74600930271389       36.90656617778422
H          -24.59389046472337      -10.06971457508465       36.19241509930367
C          -28.39288982101962       -6.05614386728446       37.08262836716429
H          -28.72752991039218       -5.28977701834897       36.39939507948056
C          -29.35927077368771       -7.14488329647020       41.67498140549684
H          -29.90430431632392       -6.68209309964135       42.48635171211516
C          -24.99794503591827      -13.46564959190415       40.20495357948677
H          -25.88548508075795      -14.02126543839516       40.51772505661145