87
 energy: -128.114936626892 gnorm: 0.478875557492 xtb: 6.7.1 (edcfbbe)
Fe          15.23300000000000        4.50700000000000       -2.14500000000000
N           14.06200000000000        6.01400000000000       -1.27600000000000
N           15.02600000000000        5.31800000000000       -4.06800000000000
N           16.47900000000000        2.94900000000000       -2.74000000000000
N           15.47900000000000        3.70900000000000        0.07500000000000
C           13.76100000000000        6.10800000000000        0.12000000000000
C           12.88900000000000        7.32800000000000        0.12800000000000
C           12.73800000000000        7.87500000000000       -1.18200000000000
C           13.47800000000000        7.04000000000000       -2.14800000000000
C           14.31000000000000        6.44700000000000       -4.45000000000000
C           14.41300000000000        6.67700000000000       -5.95600000000000
C           15.29900000000000        5.55200000000000       -6.44600000000000
C           15.61300000000000        4.77300000000000       -5.17000000000000
C           16.63600000000000        2.72600000000000       -4.22400000000000
C           17.32700000000000        1.45600000000000       -4.04900000000000
C           17.58000000000000        0.98400000000000       -2.70700000000000
C           16.79800000000000        1.92100000000000       -1.84100000000000
C           16.23800000000000        2.56300000000000        0.34500000000000
C           16.17200000000000        2.31500000000000        1.81600000000000
C           15.24200000000000        3.50400000000000        2.39000000000000
C           14.85900000000000        4.32900000000000        1.12600000000000
C           14.08900000000000        5.38600000000000        1.20900000000000
H           13.70500000000000        5.68800000000000        2.18300000000000
C           13.54000000000000        7.34800000000000       -3.63000000000000
H           13.02800000000000        8.20800000000000       -4.05500000000000
C           16.46100000000000        3.64800000000000       -5.42700000000000
H           16.93400000000000        3.46800000000000       -6.38600000000000
C           16.94600000000000        1.77500000000000       -0.50400000000000
H           17.63200000000000        1.02700000000000       -0.11000000000000
C           11.96300000000000        9.08000000000000       -1.63700000000000
H           11.46700000000000        9.55400000000000       -0.76300000000000
H           11.18600000000000        8.77200000000000       -2.36900000000000
H           12.65300000000000        9.81600000000000       -2.10200000000000
C           12.25900000000000        7.95900000000000        1.34600000000000
H           12.80300000000000        7.63000000000000        2.25700000000000
H           11.19700000000000        7.64200000000000        1.42600000000000
H           12.32000000000000        9.06600000000000        1.27000000000000
C           13.76000000000000        7.78600000000000       -6.73900000000000
H           13.65400000000000        8.68400000000000       -6.09300000000000
H           12.75200000000000        7.46400000000000       -7.07600000000000
H           14.38900000000000        8.04600000000000       -7.61700000000000
C           15.78400000000000        5.20800000000000       -7.84200000000000
H           16.65500000000000        4.55900000000000       -8.01000000000000
C           15.05200000000000        5.77100000000000       -8.99900000000000
H           14.17900000000000        6.42200000000000       -8.84400000000000
H           15.37300000000000        5.54500000000000      -10.02700000000000
C           17.83900000000000        0.76500000000000       -5.31600000000000
H           17.58400000000000        1.38200000000000       -6.20400000000000
H           17.35900000000000       -0.23200000000000       -5.42000000000000
H           18.94300000000000        0.65200000000000       -5.26200000000000
C           18.11600000000000       -0.36200000000000       -2.30100000000000
H           18.09900000000000       -0.68700000000000       -1.25100000000000
C           18.68300000000000       -1.27800000000000       -3.33700000000000
H           18.86300000000000       -0.91900000000000       -4.36100000000000
H           18.92600000000000       -2.32100000000000       -3.08700000000000
C           16.80300000000000        1.24300000000000        2.56500000000000
H           17.90500000000000        1.29700000000000        2.43300000000000
H           16.44300000000000        0.26100000000000        2.19000000000000
H           16.56400000000000        1.34800000000000        3.64500000000000
C           14.76800000000000        3.75000000000000        3.72400000000000
H           15.14300000000000        2.95500000000000        4.40300000000000
H           13.65700000000000        3.73900000000000        3.73600000000000
H           15.14200000000000        4.73400000000000        4.08000000000000
C           10.65700000000000        1.32900000000000       -1.11800000000000
H           10.85700000000000        0.28000000000000       -0.81000000000000
H            9.82700000000000        1.33500000000000       -1.85600000000000
H           10.37200000000000        1.92000000000000       -0.22100000000000
N           12.48600000000000        1.37900000000000       -2.86700000000000
H           12.15100000000000        0.57600000000000       -3.36000000000000
C           11.89200000000000        1.91300000000000       -1.73900000000000
C           13.55400000000000        2.09700000000000       -3.17900000000000
H           14.21800000000000        1.88500000000000       -4.01600000000000
N           13.66000000000000        3.08800000000000       -2.31100000000000
C           12.63800000000000        2.98900000000000       -1.39500000000000
H           12.53900000000000        3.69700000000000       -0.58200000000000
C           20.23100000000000        7.06400000000000       -2.02400000000000
H           20.67100000000000        7.10800000000000       -1.00500000000000
H           20.36400000000000        8.05100000000000       -2.51700000000000
H           20.75100000000000        6.27500000000000       -2.60700000000000
N           17.88700000000000        7.55400000000000       -1.24200000000000
H           18.13600000000000        8.41100000000000       -0.79100000000000
C           18.77200000000000        6.74100000000000       -1.92500000000000
C           16.67800000000000        7.01700000000000       -1.28400000000000
H           15.78900000000000        7.46000000000000       -0.83600000000000
N           16.75100000000000        5.87900000000000       -1.95000000000000
C           18.05200000000000        5.67600000000000       -2.35700000000000
H           18.34000000000000        4.79400000000000       -2.91400000000000
87
 energy: -128.306136025157 gnorm: 0.253028271462 xtb: 6.7.1 (edcfbbe)
Fe          15.23049974474817        4.51240111747480       -2.12747129177501
N           14.05487321654280        6.00168160551606       -1.31123613257344
N           15.02082220496696        5.31366653620031       -4.09124119662834
N           16.43418801700325        2.97679700098865       -2.74456917519909
N           15.48166703282406        3.71021584060573        0.04471736293003
C           13.73804926083799        6.14546719004502        0.06061557427094
C           12.88311596654038        7.34802800939106        0.10711616937295
C           12.74117126653513        7.86680833792484       -1.18062734347876
C           13.48074082017988        7.03214810280196       -2.12566227069470
C           14.31353858708862        6.44245385079371       -4.46434018570955
C           14.43459054503915        6.64385744847413       -5.94931744142534
C           15.28637760479805        5.57260493362815       -6.44028817196623
C           15.61883945555508        4.77860622561821       -5.19379044666952
C           16.67470955726952        2.71608881763308       -4.16908279650420
C           17.35396054795446        1.44280968240816       -4.07251583098578
C           17.56077906323534        0.95718416808338       -2.75258656007714
C           16.84531483158857        1.94483939604337       -1.89758037996179
C           16.21688999379238        2.59341859361492        0.37216926307509
C           16.13386295159889        2.37198039735276        1.82451265753397
C           15.27106169677753        3.46485626191367        2.34313230547767
C           14.89317539243424        4.28150011405895        1.12570702060707
C           14.08979992492904        5.39237679292711        1.18126448368752
H           13.70756065735065        5.69070171884171        2.16088323496132
C           13.56887717768739        7.29488913139464       -3.58508338240953
H           13.04926929458261        8.16640764041326       -4.01961151858400
C           16.44585295164421        3.62847932847087       -5.33835234056614
H           16.91206699851072        3.45343796879247       -6.32244420698330
C           16.93455514556981        1.80011233930996       -0.51520984431338
H           17.60821905401356        1.03838011114968       -0.11651506765222
C           11.96581046394931        9.07398096551624       -1.62740646720536
H           11.46924327517277        9.55258167614269       -0.77263056557189
H           11.19669857224691        8.77824645194416       -2.35910820528997
H           12.64222223660415        9.80697641977231       -2.09709459467512
C           12.26414051743895        7.95549463433596        1.33948282246542
H           12.79570575401194        7.63499474224201        2.24765197811171
H           11.20902770201788        7.64861563753182        1.42744936654583
H           12.31580548512470        9.05277097104786        1.27513732793642
C           13.77429801255221        7.76659482439667       -6.72341119651421
H           13.65657968696680        8.66907193123421       -6.09986082242217
H           12.76833947681115        7.46764873872764       -7.07097934351865
H           14.38085154237512        8.04200582240129       -7.60191109662801
C           15.73657981705647        5.24840263364940       -7.83701068566553
H           16.61289753439549        4.59047955017417       -8.00249966680677
C           15.07326532382217        5.75620838122351       -8.96051611103767
H           14.20050607280777        6.39934529500759       -8.84249002939723
H           15.37747179224830        5.54218143733180       -9.99220011274369
C           17.84041390859623        0.76557629596025       -5.32496092535450
H           17.58589295091619        1.37563984492682       -6.19912482501824
H           17.36396565909673       -0.22166569448944       -5.42551395124021
H           18.93272578307339        0.65620217821293       -5.27353305489479
C           18.12033141467809       -0.36222652560127       -2.35751311628387
H           18.09317682240348       -0.67563941901633       -1.29699015099025
C           18.66808940778012       -1.25228478560504       -3.30067953343176
H           18.85618817723600       -0.93564637650611       -4.32303449067031
H           18.92202641035549       -2.29117825012779       -3.07136708718235
C           16.79106409129319        1.26298725317644        2.56212116759899
H           17.88971959684462        1.29634227614980        2.43603545257637
H           16.44728454832016        0.27629523440296        2.19738872721674
H           16.56814391409226        1.34144938539422        3.63615502893818
C           14.77996323491316        3.73777105242724        3.70843220980563
H           15.13811508049541        2.96328588400386        4.40244329325336
H           13.67352354416160        3.73995906023547        3.73837921719674
H           15.13554097849314        4.71951552782439        4.07632815286177
C           10.65876878616498        1.32697692727036       -1.11978240843594
H           10.85129091933438        0.28866528042348       -0.81174903007698
H            9.83220743445060        1.33371461208093       -1.84546239258166
H           10.37519499214637        1.91235528007901       -0.23444519709378
N           12.47685220638558        1.37367486420521       -2.86155774762084
H           12.14541731304182        0.56835167024306       -3.35968806861194
C           11.88628194110211        1.90914447461624       -1.73898585608572
C           13.55206560438748        2.10851070920980       -3.17205121742330
H           14.21156461514243        1.89398150751942       -4.00377030440502
N           13.66911455333382        3.09958716220919       -2.31119373007254
C           12.64433300315282        2.98884054496249       -1.40475034666086
H           12.54255198173819        3.69072314321839       -0.59297391072075
C           20.23119439486712        7.06526773993332       -2.02276311187817
H           20.67122990587054        7.10903567237493       -1.01568850670605
H           20.36776974400862        8.04061658290258       -2.51267825099949
H           20.74488149252437        6.28625284210127       -2.60063858050244
N           17.90031654964799        7.55885770851418       -1.24487868315941
H           18.14381245711221        8.41890627226483       -0.79050973703538
C           18.77950193880460        6.74351919320104       -1.92048845562807
C           16.68357254809463        7.00716489050455       -1.28810805907103
H           15.80219515296046        7.45052571485285       -0.84376279389814
N           16.74583992500256        5.86704311230313       -1.94440735669327
C           18.04382793702027        5.68177930997783       -2.35159902139452
H           18.33317685375611        4.80432306911360       -2.90782843296850
87
 energy: -128.392483200147 gnorm: 0.092753585526 xtb: 6.7.1 (edcfbbe)
Fe          15.23302867272553        4.50589562529065       -2.10743613221275
N           14.04882337053115        5.98783864021798       -1.34260440895286
N           15.01958970161371        5.30461378276110       -4.10582898749051
N           16.41234047110891        2.99104248813523       -2.75103408834644
N           15.48229699723236        3.71863912790463        0.01266180900729
C           13.72319109472466        6.16568358535466        0.00393532860516
C           12.88500067537161        7.35683649986791        0.08391478418472
C           12.74892370268122        7.85658344685337       -1.18738923520905
C           13.48775525851327        7.00765146312046       -2.11166889704084
C           14.31913116307041        6.42862925228961       -4.47044310680249
C           14.45416584030562        6.61301240521016       -5.93607544341550
C           15.26963044356487        5.58963165513103       -6.41959237683499
C           15.62235170176133        4.77683207299347       -5.20943623123990
C           16.69228067350053        2.72220546249162       -4.10495976034166
C           17.37280848017002        1.44495772942220       -4.09106768519698
C           17.55217752314346        0.95816857402571       -2.79245204492626
C           16.88454247640989        1.96312324006284       -1.94683974033343
C           16.20114157576620        2.62638307904249        0.38322121377680
C           16.09216506720849        2.43427650665735        1.83092226927421
C           15.29897975100099        3.42683197481591        2.29200933609253
C           14.91732825784007        4.24638261448986        1.12404702161537
C           14.09587943100808        5.39066422652698        1.13670461774853
H           13.71618178933684        5.69004358177136        2.11835739304502
C           13.59859521541709        7.23366383798915       -3.53630347802868
H           13.07723775605723        8.11296061516324       -3.97338710718741
C           16.43196661984306        3.60970152590836       -5.23946917227832
H           16.88484560614753        3.42971402473755       -6.24071927539230
C           16.91381243495684        1.83268646169428       -0.53613359557545
H           17.57015359854616        1.05569700553528       -0.13190270033278
C           11.97076642163764        9.06674963961700       -1.62231601955770
H           11.47459619965464        9.54633156716415       -0.77953540313275
H           11.20642261288199        8.78189406366629       -2.35138287446216
H           12.63464120892825        9.79859867375450       -2.09372588029147
C           12.27241584765562        7.94935084970999        1.32709786315564
H           12.79316684834895        7.63561128848155        2.23286006993552
H           11.22241920221038        7.65183976193042        1.42407288648508
H           12.31302848417461        9.04031996661517        1.27719609607892
C           13.79038588256787        7.74536387192395       -6.70667591102136
H           13.66448979740366        8.64657620969580       -6.09642661977072
H           12.78791818892274        7.46203571949854       -7.06076403733181
H           14.37972014893643        8.03243992133187       -7.58391624765033
C           15.69296768667971        5.28543085588458       -7.82188270558972
H           16.56952151828934        4.62262086711733       -7.97697396707168
C           15.08853159449034        5.74486231055080       -8.91190779818954
H           14.21376205026253        6.38127013241159       -8.84080861068285
H           15.38498380827584        5.53641431578466       -9.94358929836504
C           17.83840901430343        0.77434928336821       -5.33467269884865
H           17.58517518455858        1.37263774792306       -6.20325220199854
H           17.37048859463823       -0.20929496776170       -5.43315776645941
H           18.92312600249173        0.65975898238524       -5.29204513326750
C           18.11880202574749       -0.35273872984866       -2.40951037148370
H           18.07395093228139       -0.65505590204801       -1.34551957131030
C           18.64661454109302       -1.22004708457749       -3.26792448659564
H           18.84558118552521       -0.95456959313903       -4.29402572805139
H           18.92398469447239       -2.25021977876749       -3.04342505292281
C           16.77425467304750        1.29045018001932        2.55629138719670
H           17.86693970625511        1.30985130344871        2.43127311918722
H           16.44241709963451        0.30474704585065        2.19669159551862
H           16.56744086352246        1.34186050888948        3.62667731170508
C           14.79463081244526        3.72418408603174        3.68574748293772
H           15.13805711977459        2.96775627634047        4.39347795227873
H           13.69514164347973        3.73694172842828        3.72653922689816
H           15.13603505008230        4.70202367191405        4.05756745168931
C           10.66130034859330        1.32607520232536       -1.12122135386686
H           10.84666468389112        0.29537495356458       -0.81340190194669
H            9.83617685557537        1.33239897259439       -1.83654222972411
H           10.37813736527465        1.90689147966566       -0.24544243818247
N           12.47011469801980        1.37031817231437       -2.85650205438315
H           12.14331124330072        0.56294551057487       -3.35962686648706
C           11.88278164192091        1.90758960647944       -1.73870411252059
C           13.54909880388694        2.12097395290845       -3.16477460658748
H           14.20332529971821        1.90461558936547       -3.99165648914158
N           13.67449997547551        3.11104916837020       -2.31094858527293
C           12.64949396881903        2.98987182555533       -1.41406657556158
H           12.54413887230041        3.68479359433911       -0.60240857130410
C           20.23125498788399        7.06555727204089       -2.02253021801041
H           20.67288639474564        7.11050212939777       -1.02495056918890
H           20.37174773695893        8.03207562517568       -2.50981484890405
H           20.74037092043258        6.29495412673785       -2.59655832657013
N           17.91202901204791        7.56329376160886       -1.24851447686616
H           18.14928557429499        8.42635540695522       -0.79129475265056
C           18.78503391662801        6.74439872888182       -1.91662360665488
C           16.69053164888604        6.99637626129394       -1.28969531715156
H           15.81777386310987        7.44167605171955       -0.84909159793883
N           16.74178495741201        5.85292585748179       -1.93454205592564
C           18.03576228940946        5.68538108818892       -2.34313031649983
H           18.32838294718378        4.81491038340133       -2.90104249388320
87
 energy: -128.426341695901 gnorm: 0.047001892403 xtb: 6.7.1 (edcfbbe)
Fe          15.23444577364827        4.49870755757384       -2.08664747158322
N           14.03387306396225        5.95889755646428       -1.36529855853671
N           15.01742722318154        5.27990848260947       -4.08628281117055
N           16.40777977186349        3.00770888258559       -2.74688661729188
N           15.48382128746015        3.73310978579344       -0.02197604944837
C           13.71214517217917        6.16388091049040       -0.03814661126706
C           12.88774423664540        7.35758927194487        0.06158664251375
C           12.75269252986156        7.85061836623198       -1.20591727679095
C           13.49028537969795        6.97744126467767       -2.10932931779326
C           14.32496155106001        6.39747589486502       -4.44655094464791
C           14.45615192616668        6.59774615232018       -5.89868135194330
C           15.26076002847975        5.58184382458883       -6.37510591385139
C           15.61905951558235        4.76147598343064       -5.18570472532201
C           16.70110364105049        2.73998308941025       -4.06427879934616
C           17.38965233176968        1.46554912133463       -4.11444312971379
C           17.54317952032504        0.98147715368500       -2.82661441761443
C           16.90550646724323        1.98544573665334       -1.97239837082892
C           16.20415237701794        2.64831081211255        0.35242226334725
C           16.09741654536328        2.44480982143198        1.79888464372224
C           15.28351766276446        3.44551527407845        2.26332214377625
C           14.91574494558735        4.25054155639276        1.09191320755832
C           14.09429171735047        5.39243407705245        1.08497862433609
H           13.72028329563631        5.69859100752552        2.06070918354754
C           13.61909469970495        7.18118098790171       -3.50332159090656
H           13.10543491405028        8.05733635429515       -3.92074185488367
C           16.41748815092898        3.59833259365889       -5.16754261174247
H           16.86054356161641        3.38022836238096       -6.14966758871927
C           16.90908955821948        1.86185925797734       -0.56677917486271
H           17.52799465278005        1.06408502164671       -0.15686482141494
C           11.97681159751491        9.06080207585918       -1.62769483491799
H           11.48385116213679        9.53505359339501       -0.78208395158911
H           11.21115228182697        8.78237343994329       -2.35192300068675
H           12.63446757812615        9.79413818363869       -2.09660212074150
C           12.28261801946025        7.94266965858144        1.30901156481919
H           12.80236349315631        7.62698858431293        2.21126844630284
H           11.23532949275152        7.64791852109459        1.41207451266040
H           12.31526246575462        9.03202440466984        1.27268553109935
C           13.80635009921359        7.72301979439863       -6.67737103741326
H           13.67812769454543        8.61935547801663       -6.06933039788324
H           12.81089318319436        7.44049281401432       -7.03850403394668
H           14.39565131112270        8.01012400869029       -7.55015698814427
C           15.67153391590162        5.30342691195228       -7.76826810939898
H           16.53917776408607        4.64961407124070       -7.91463054496946
C           15.07932189324279        5.74823282306547       -8.87809169413690
H           14.19958821644778        6.37281229389908       -8.84194026542270
H           15.40589893575897        5.52171743027382       -9.88843490569462
C           17.83718567073788        0.79392771944144       -5.36310345159708
H           17.57657728315966        1.38414271743383       -6.23196433929621
H           17.37130792167831       -0.18987879864932       -5.45348479969799
H           18.92044769707628        0.67328703232529       -5.33601277043443
C           18.09072274993026       -0.31971250664637       -2.43508075670215
H           18.02223350147657       -0.60750723721847       -1.37981812531603
C           18.64841705746356       -1.21544555314700       -3.25759746360873
H           18.84130866295135       -0.99813290335142       -4.29136995315119
H           18.94272418832638       -2.21986550362717       -2.97879465001262
C           16.76586835741273        1.31007749884781        2.54303136333534
H           17.85172168208822        1.33399145807555        2.41860882388160
H           16.42755788480598        0.33432530284217        2.18336363957427
H           16.55690375615909        1.35819786599173        3.61125455406508
C           14.79760269293585        3.72269027827501        3.66642474342479
H           15.14604690217233        2.96607298414127        4.36834741254675
H           13.70531272494481        3.73259358996619        3.70751107621198
H           15.14334337230200        4.69379061392251        4.03107824290499
C           10.66310156391714        1.32564942764853       -1.12245919785894
H           10.84356788027653        0.29643143028917       -0.81334865211421
H            9.83530006177627        1.33066931400888       -1.83151999943341
H           10.37988594038041        1.90613508254541       -0.25030509659735
N           12.46865320797000        1.37181506500505       -2.85448696429410
H           12.14524998160842        0.56157680513462       -3.35768602086371
C           11.88183075758682        1.90945615250611       -1.73879876962097
C           13.54466373764423        2.13163804890136       -3.16146913914095
H           14.19673277251708        1.91952594384847       -3.98593523358999
N           13.67324126676954        3.11988657786970       -2.30897358808784
C           12.64809357524804        2.99335424015183       -1.41766055048253
H           12.54152193227533        3.68414883046382       -0.60658340908446
C           20.23445037678757        7.06552044727728       -2.02412782343551
H           20.68146268916763        7.11295934473108       -1.03099244614886
H           20.37825307482421        8.02871241515658       -2.51213805425870
H           20.74086970979996        6.29723389918903       -2.59812300947363
N           17.92128351797569        7.56657148277211       -1.24988493073573
H           18.15646482862843        8.43439492009445       -0.79797781078994
C           18.79057899755579        6.74315689911037       -1.91313872645673
C           16.70190171650384        6.98933528819402       -1.28071749243162
H           15.83322309421067        7.43637569986518       -0.84461185485834
N           16.74739111068961        5.84008547709050       -1.91293496870319
C           18.03732345526995        5.68276409340039       -2.33006642393621
H           18.32863203955730        4.81920030796357       -2.89309825279000
87
 energy: -128.444936356879 gnorm: 0.026858461173 xtb: 6.7.1 (edcfbbe)
Fe          15.23267275218788        4.49148030652025       -2.07226526879896
N           14.03342709860969        5.93526609030661       -1.37219920566638
N           15.01905188084354        5.25534104842658       -4.05434027842150
N           16.40553770027350        3.01551195678278       -2.73315346333774
N           15.48446934902975        3.75361328724437       -0.06373731131852
C           13.70374567686379        6.15265921396065       -0.06242049489357
C           12.89017249424365        7.35092779207646        0.04192810554186
C           12.75618399321553        7.83996024072675       -1.22486083079133
C           13.49051526083279        6.94572733640132       -2.11092367244321
C           14.32703067079028        6.36635839957222       -4.41058115308758
C           14.45151000124069        6.57975750329447       -5.84847547226825
C           15.25198777423434        5.56265474023197       -6.33305134313409
C           15.61566871483117        4.74770748119780       -5.15707427091082
C           16.70719906594802        2.76710607796255       -4.04094304373289
C           17.39871177720813        1.49473532593285       -4.13492028029778
C           17.53619787627563        1.00095788195851       -2.85481715195772
C           16.91593909462080        1.99421833739655       -1.98389558261399
C           16.20640456148463        2.67151235717901        0.31551544834230
C           16.09583535221442        2.46578731427461        1.75697633428741
C           15.28006828216447        3.46062083559849        2.21950753120303
C           14.91109478719147        4.25824224376321        1.05432416131509
C           14.08928123366884        5.38817083206794        1.04489572139045
H           13.72024007388229        5.70161428735187        2.01422658896811
C           13.62355159106944        7.14379362451367       -3.48358347355662
H           13.12135116843876        8.01789044378619       -3.88598105461764
C           16.40323979709275        3.59502175425096       -5.12985918783448
H           16.83367186828133        3.33184396597482       -6.09288780401156
C           16.90084797077465        1.87714232905023       -0.59091139134088
H           17.48489834618533        1.06361229541477       -0.17347277115812
C           11.98643028516691        9.05047089115184       -1.64193363560958
H           11.49929072371176        9.51622574337386       -0.78779966975904