87
 energy: -128.467841739928 gnorm: 0.000121944730 xtb: 6.7.1 (edcfbbe)
Fe          15.20364607781217        4.43130172010266       -2.01342406833236
N           14.04445891210100        5.91170440310051       -1.31894889503549
N           15.00462028800107        5.14467649230204       -3.87773155822307
N           16.34616252906003        2.93259552399799       -2.70473685868391
N           15.41981838158336        3.73413691458833       -0.14640178694725
C           13.67859744473214        6.13084043937493       -0.02967258346205
C           12.81532647791079        7.28769426776328        0.06871070602243
C           12.67138877338321        7.76332485711254       -1.19683683840061
C           13.45009311295515        6.89093909065278       -2.04956040202159
C           14.30430858602589        6.24577640030515       -4.25911362982156
C           14.40458333741233        6.45062820683021       -5.68121056398091
C           15.18625263544474        5.43345703691890       -6.16340353205450
C           15.55283860482628        4.63372942247815       -5.00965995329963
C           16.68302753199949        2.69578740468947       -4.00213348078414
C           17.49572598978391        1.51208923338517       -4.11336706739314
C           17.65316639882210        1.03402039613401       -2.83852411379727
C           16.91580885192378        1.93997810438544       -1.97852246515261
C           16.14506753235860        2.65315822630184        0.23921931472476
C           16.08396854333570        2.48208485687408        1.67477608546356
C           15.29767929106599        3.48663622999877        2.14572604405993
C           14.89247211874310        4.25795543029951        0.99102549866855
C           14.07348915126005        5.37124056363900        1.05793866033688
H           13.71338795124125        5.66852577116454        2.03179434276459
C           13.56836911458842        7.05962341424055       -3.41428868109811
H           13.03976662035288        7.88953064828709       -3.85858845576016
C           16.32061499426543        3.48596513713224       -5.08138806441770
H           16.67305259631022        3.18362863951799       -6.05637855240450
C           16.84438128807704        1.81100271421400       -0.60365788588475
H           17.37558559819266        0.98765402683118       -0.15056376774943
C           11.88990689486022        8.93672605106055       -1.68111551878724
H           11.37971614970819        9.42994207245327       -0.85708053512102
H           11.14174636764864        8.62413323811935       -2.40994187479958
H           12.54619494944630        9.66298815958258       -2.16172116973428
C           12.23365856661869        7.79862489754931        1.34311767993167
H           13.02263484031061        8.07774159575765        2.04249907542323
H           11.61788750998137        7.03414741555904        1.81789726676943
H           11.61329775410396        8.67311350606365        1.16220789820056
C           13.82014756490680        7.59972489527306       -6.42693361746938
H           13.88090970968656        8.51249993927203       -5.83617873833984
H           12.76955204255979        7.41931509104926       -6.66174189996888
H           14.35883367558964        7.75244398628783       -7.36014501078006
C           15.61760531025250        5.17279589520507       -7.51810879291765
H           16.59845248431482        4.72158043742157       -7.61852102650978
C           14.91629140026756        5.43008559011851       -8.61811858473385
H           13.91917338764412        5.83273835948412       -8.58145971305895
H           15.31062845723089        5.22202955580134       -9.59917516889910
C           17.98380982261599        0.92057777714302       -5.39056741520353
H           17.24275394105500        1.03803059412192       -6.18020648354344
H           18.18460743852820       -0.14073658134573       -5.25723097962907
H           18.90520528093359        1.40513409902665       -5.71877277341104
C           18.36188798608049       -0.14097057276714       -2.38441842693164
H           17.93931849684884       -0.63473591254099       -1.51670310028159
C           19.46546842074595       -0.64095768798871       -2.93205189534822
H           19.95833177313464       -0.16827854826151       -3.76346823382086
H           19.93207748151319       -1.53217815985764       -2.54561181280040
C           16.77180636437831        1.39192600517617        2.42327743709249
H           17.84695550984699        1.42379311873325        2.24511747834711
H           16.40554696618760        0.41647276948373        2.10177139630406
H           16.59858266199592        1.48620803032983        3.49275846474315
C           14.89184545895273        3.79232014784358        3.54769241321752
H           15.32930067499215        3.07844465297580        4.24143467375353
H           13.80713936633911        3.74949016308548        3.65165394674121
H           15.21825662910159        4.79264937941956        3.83440416606476
C           10.36452515078664        1.68751544735444       -1.38754169208956
H           10.39832734628841        0.59891411834742       -1.34155284728009
H            9.52505882283023        1.97582458190082       -2.02036772429916
H           10.19440996623327        2.07274285186929       -0.38702743663731
N           12.11024367078921        1.91956330104163       -3.16834277960914
H           11.66079006513233        1.30995329250803       -3.83160579538600
C           11.63897086127789        2.23311980433909       -1.91990337612146
C           13.28040436416437        2.57484071027700       -3.34006031708880
H           13.87489410970985        2.51628465780178       -4.22845056084622
N           13.57813088749408        3.28282556142498       -2.27882411871825
C           12.56701593016906        3.08077369861813       -1.38689972536224
H           12.57539226998549        3.55567699365223       -0.42807571003770
C           20.10347867721850        7.07134038654216       -2.59706164790592
H           20.91519045558406        6.79045521951304       -1.92586993221537
H           20.09599654137128        8.15766662424434       -2.68700989618613
H           20.29720215950189        6.64269205535376       -3.57531259843904
N           18.29220000325586        6.95350719943058       -0.87114137633040
H           18.73138458362909        7.58353750995334       -0.22022372576851
C           18.80054496695139        6.57455855154084       -2.08651880191738
C           17.10436971846906        6.32725873873698       -0.71173092167817
H           16.47942427993641        6.43647255518181        0.15044730119084
N           16.83011013941849        5.57684202613358       -1.74973610685125
C           17.87541214318096        5.71995770636269       -2.61328983241505
H           17.89233281466787        5.20217087467179       -3.54953694988908
