78
 energy: -116.058074895679 gnorm: 0.000055958250 xtb: 6.7.1 (edcfbbe)
Fe         -11.59979703462839        2.38512561924748        1.09691129533617
N          -12.23838186524812        0.72381759204236        2.03999002329101
N           -9.96116929662241        2.40011603125127        2.23415488430453
N          -10.95550683487281        3.99306729315443        0.11175456374150
N          -13.23105199187755        2.31869958422405       -0.08087009133987
C          -13.40639033117654        0.05758558384760        1.83201836740786
C          -13.52745556118937       -1.05780045218317        2.74295646994410
C          -12.40545061354806       -1.04742395827616        3.51277232817208
C          -11.61461303552538        0.07509142337989        3.06223913798373
C           -9.63077998129170        1.51430674237867        3.21310883372260
C           -8.37636071029430        1.87009930144601        3.82686012205966
C           -7.95266167663787        3.01088988841722        3.19930481531083
C           -8.95923014096619        3.31360980019487        2.19885488016931
C           -9.82029742722979        4.69716801984449        0.36464456726791
C           -9.69730457063719        5.81575358814225       -0.53669961558652
C          -10.79633541463543        5.77463423849326       -1.35181379547359
C          -11.56501043219782        4.61998610119941       -0.92552231099465
C          -13.55177799841574        3.18789882497956       -1.07711443760420
C          -14.82754421598268        2.84527674642251       -1.66365341510022
C          -15.27536718675535        1.75053466811504       -0.99123753292363
C          -14.26654494111864        1.43886020699430       -0.00407790789752
C          -14.35690887760541        0.38167784581243        0.88154572049505
H          -15.24091393782975       -0.23516369923204        0.83177116103249
C          -10.39562871033822        0.42885282018483        3.60685889811457
H          -10.01829604717574       -0.18111353743595        4.41353411250981
C           -8.89404746086719        4.39758811576478        1.34660935798089
H           -8.04866743450068        5.06070926803843        1.44855280147200
C          -12.77796965075528        4.25890165143466       -1.48324886539975
H          -13.16018697036628        4.86797731880755       -2.28815846881610
C          -12.00425159713276       -1.97187441843228        4.61097298582875
H          -12.75907565792630       -2.73875806813791        4.76628193580722
H          -11.87332149941506       -1.42559798298134        5.54555208061005
H          -11.06048706327355       -2.46325580019257        4.37295114710520
C          -14.68488099432344       -1.99613172543875        2.77429027866041
H          -14.79461674890734       -2.50302107060608        1.81516684429656
H          -15.61001010155502       -1.45652564930491        2.97822447251326
H          -14.55109296553510       -2.75030935437901        3.54592365959154
C           -7.68168875654965        1.07903220081331        4.88020560281571
H           -7.80250419169376        0.01144840919944        4.70260792994323
H           -8.08408870687420        1.30470847318634        5.86953277285124
H           -6.61917062937386        1.31319222064119        4.88114611067651
C           -6.74565201287988        3.77725471961916        3.41526732605961
H           -6.32278610448272        4.24259240480893        2.53268511832022
C           -6.14075774520751        3.95114778182842        4.58601793219558
H           -6.53964883541149        3.55274696686806        5.50264801017642
H           -5.23253615668608        4.52449484453292        4.67117101604041
C           -8.54298766237933        6.75444917383647       -0.58598254499471
H           -7.60772012664452        6.22206687925581       -0.42033204756440
H           -8.63395493882771        7.52453181870410        0.18194082295177
H           -8.49869763248856        7.24112592010186       -1.55814116917691
C          -11.15920399613236        6.64803032831597       -2.44592040102861
H          -11.67424796158924        6.17326856807723       -3.27324546887210
C          -10.91879428411391        7.95403297054382       -2.50240798390447
H          -10.45366427827028        8.48612254814303       -1.69098415563571
H          -11.20429786383195        8.54324563975296       -3.35815107485445
C          -15.46430905871375        3.59183970529069       -2.78521551384177
H          -14.82076543581056        3.58403828613459       -3.66534170870543
H          -15.63874397473286        4.63076170197155       -2.50429352406586
H          -16.41822832004067        3.14549347014776       -3.05518852584273
C          -16.53581889233188        0.97767922324751       -1.17834913703180
H          -17.13392875964968        1.40173765972709       -1.98111231628861
H          -17.13063833551739        0.98850122622735       -0.26472563240907
H          -16.31682814429873       -0.06137017848712       -1.42621507992454
O          -10.61958533831194        0.97453615443129       -0.42380894615990
H          -10.72721370630428        0.13778269997474        0.04135423985278
H          -11.28225121188615        0.99783717895083       -1.12279631031815
C          -14.71505664495751        6.28311467703507        3.58065708607825
H          -14.21706835471874        7.00285790281623        4.23015211362824
H          -15.63503654413067        5.96243213694891        4.06943418025332
H          -14.96996607471185        6.77490790165427        2.64721942792826
N          -13.33953745579974        4.31781877354778        4.29964279978767
H          -13.51644890907052        4.42530813159250        5.28490216203900
C          -13.83129753462429        5.12224550139808        3.30527708277300
C          -12.57737443321685        3.36522323786332        3.71681428002656
H          -12.06425310526239        2.59453881928415        4.25414608434663
N          -12.55711966412856        3.51738415842017        2.41485406026176
C          -13.33263686551481        4.60621343562424        2.14362911401276
H          -13.47910437448317        4.94337377076644        1.13849696400847
