78
 energy: -115.991391107120 gnorm: 0.237437267900 xtb: 6.7.1 (edcfbbe)
Fe         -11.65700000000000        2.41800000000000        1.12900000000000
N          -12.21800000000000        0.72300000000000        2.05900000000000
N           -9.94900000000000        2.41200000000000        2.25700000000000
N          -11.00300000000000        4.03000000000000        0.08400000000000
N          -13.22800000000000        2.28500000000000       -0.15700000000000
C          -13.35300000000000       -0.00500000000000        1.74800000000000
C          -13.36200000000000       -1.19300000000000        2.55300000000000
C          -12.26900000000000       -1.17600000000000        3.32100000000000
C          -11.52300000000000        0.01700000000000        3.00100000000000
C           -9.62600000000000        1.49800000000000        3.24900000000000
C           -8.40500000000000        1.92300000000000        3.87900000000000
C           -8.01300000000000        3.05700000000000        3.29100000000000
C           -8.98100000000000        3.39000000000000        2.26100000000000
C           -9.82400000000000        4.69900000000000        0.35300000000000
C           -9.63300000000000        5.70800000000000       -0.67600000000000
C          -10.68400000000000        5.64000000000000       -1.52200000000000
C          -11.57500000000000        4.62100000000000       -1.02800000000000
C          -13.60800000000000        3.26200000000000       -1.06300000000000
C          -14.99000000000000        3.01700000000000       -1.43300000000000
C          -15.43100000000000        1.91300000000000       -0.79700000000000
C          -14.33300000000000        1.45800000000000        0.04700000000000
C          -14.34600000000000        0.34500000000000        0.85400000000000
H          -15.21000000000000       -0.31500000000000        0.78200000000000
C          -10.33900000000000        0.37700000000000        3.59500000000000
H           -9.94300000000000       -0.26200000000000        4.38400000000000
C           -8.93100000000000        4.46400000000000        1.38700000000000
H           -8.12300000000000        5.18300000000000        1.52400000000000
C          -12.78400000000000        4.24900000000000       -1.57100000000000
H          -13.11600000000000        4.77100000000000       -2.46800000000000
C          -11.80500000000000       -2.21200000000000        4.36400000000000
H          -12.53900000000000       -3.04400000000000        4.41200000000000
H          -11.73700000000000       -1.73300000000000        5.36400000000000
H          -10.81500000000000       -2.62200000000000        4.07100000000000
C          -14.45500000000000       -2.27700000000000        2.51000000000000
H          -14.89300000000000       -2.32200000000000        1.49000000000000
H          -15.25800000000000       -2.02900000000000        3.23600000000000
H          -14.01300000000000       -3.26600000000000        2.75600000000000
C           -7.78400000000000        1.12800000000000        5.03300000000000
H           -7.87900000000000        0.04000000000000        4.82700000000000
H           -8.31600000000000        1.36300000000000        5.98000000000000
H           -6.70700000000000        1.38400000000000        5.12800000000000
C           -6.80200000000000        3.93500000000000        3.59000000000000
H           -6.37500000000000        4.56300000000000        2.79500000000000
C           -6.22400000000000        3.97900000000000        4.79300000000000
H           -6.61300000000000        3.37000000000000        5.62200000000000
H           -5.35200000000000        4.62500000000000        4.97000000000000
C           -8.38800000000000        6.63100000000000       -0.74600000000000
H           -7.47800000000000        6.04600000000000       -0.49300000000000
H           -8.49600000000000        7.46300000000000       -0.01800000000000
H           -8.28000000000000        7.03800000000000       -1.77400000000000
C          -11.01900000000000        6.46400000000000       -2.77600000000000
H          -11.58400000000000        6.00200000000000       -3.59900000000000
C          -10.65000000000000        7.73400000000000       -2.91400000000000
H          -10.08300000000000        8.24000000000000       -2.11900000000000
H          -10.90700000000000        8.29400000000000       -3.82500000000000
C          -15.75400000000000        3.89300000000000       -2.45500000000000
H          -15.34600000000000        3.71700000000000       -3.47300000000000
H          -15.62800000000000        4.96600000000000       -2.19700000000000
H          -16.83200000000000        3.62400000000000       -2.44800000000000
C          -16.85300000000000        1.28200000000000       -0.86400000000000
H          -17.30600000000000        1.49200000000000       -1.85700000000000
H          -17.49700000000000        1.72300000000000       -0.07400000000000
H          -16.78200000000000        0.18200000000000       -0.72600000000000
O          -10.61000000000000        0.71300000000000       -0.21000000000000
H          -10.84700000000000       -0.12200000000000        0.19300000000000
H          -10.10400000000000        0.82300000000000       -0.93300000000000
C          -15.07400000000000        6.18500000000000        3.61000000000000
H          -14.59900000000000        7.13300000000000        3.94100000000000
H          -15.74500000000000        5.81800000000000        4.41600000000000
H          -15.66000000000000        6.37900000000000        2.68600000000000
N          -13.12300000000000        4.73000000000000        4.28400000000000
H          -13.09500000000000        5.06100000000000        5.22700000000000
C          -14.01300000000000        5.16500000000000        3.33100000000000
C          -12.32700000000000        3.82000000000000        3.75500000000000
H          -11.56000000000000        3.27500000000000        4.30300000000000
N          -12.62800000000000        3.70000000000000        2.47700000000000
C          -13.68200000000000        4.51900000000000        2.18500000000000
H          -14.10100000000000        4.56800000000000        1.18800000000000
78
 energy: -116.034228062134 gnorm: 0.092984876961 xtb: 6.7.1 (edcfbbe)
Fe         -11.63174588798281        2.39665370568654        1.10445445876153
N          -12.22733992042697        0.72408599315971        2.05164613005098
N           -9.95624669629453        2.42285113757689        2.26415296613560
N          -10.99121028182597        4.02151521911879        0.08056954409482
N          -13.25932662382596        2.31658627783272       -0.11293430792236
C          -13.35329022018582       -0.00403320218243        1.75433612556649
C          -13.37393246763018       -1.20670278803973        2.55357631610765
C          -12.26578603310011       -1.18866470919118        3.33047974472353
C          -11.54364441273860        0.02145771781689        3.00224296505516
C           -9.62422880487136        1.51925140481220        3.24436230243552
C           -8.39918626948830        1.92667418697032        3.88935991526500
C           -7.99956569586565        3.08192659842917        3.29370888961979
C           -8.98423716399906        3.38469797623212        2.26132508149932
C           -9.82865762558735        4.70002159489233        0.33796120210430
C           -9.62920842555638        5.72098124158705       -0.67899934669226
C          -10.69119118900895        5.65039660836893       -1.53273101164032
C          -11.55444949950266        4.59643560912605       -1.03236546608051
C          -13.61823263703213        3.24797638626258       -1.05549490356484
C          -14.99223154231727        3.01641204082981       -1.45834727964439
C          -15.43719695913209        1.91500060060717       -0.79983576533954
C          -14.33613875260473        1.47166428220061        0.04058599240136
C          -14.34301671875084        0.35364490461607        0.85331472981949
H          -15.20532909040489       -0.30033683670861        0.78782998433138
C          -10.34723837499337        0.39106509788455        3.58617315994368
H           -9.95154725828145       -0.24925801956429        4.36695941544165
C           -8.94123173444556        4.45720023862763        1.38127171467872
H           -8.13024036743932        5.16583669469863        1.51117464342662
C          -12.78118817873009        4.23407462207593       -1.56288234379218
H          -13.12418274669655        4.77493332156720       -2.43999259562497
C          -11.81044818703799       -2.20436506243719        4.35312072329580
H          -12.52585760593819       -3.02922204673781        4.41250701915326
H          -11.73585650056867       -1.74139147297536        5.34282933365477
H          -10.83116810559832       -2.61123720130476        4.07873936041232
C          -14.44794207341574       -2.26803389939304        2.50670949278416
H          -14.88663412432752       -2.32512081760457        1.50659274753693
H          -15.24353719179305       -2.03538984794803        3.22311770799427
H          -14.02487728803636       -3.24615693144482        2.75373713677897
C           -7.78291841623401        1.13493080445899        5.01764318949786
H           -7.87538653920568        0.06051118605343        4.82799593487541
H           -8.29875378524276        1.35935567185668        5.95989856640496
H           -6.72190542458938        1.37313530603114        5.12445403450880
C           -6.81502839234524        3.92165821440510        3.59472733243946
H           -6.40902661639181        4.53835387443347        2.79496575751327
C           -6.22990794902257        3.97657215364062        4.78777729020519
H           -6.60510743731319        3.40069681285668        5.62300411912856
H           -5.36815102801002        4.61107081050953        4.96579378540711
C           -8.40515695138328        6.61546029598432       -0.74683678126198
H           -7.50039400918520        6.05111380393669       -0.49721727695641
H           -8.49830095768746        7.44401410177491       -0.03469130662159
H           -8.28651646731920        7.02505713837221       -1.75389836985192
C          -11.00162776671460        6.45716517089375       -2.74902328260526
H          -11.56772330000632        5.98222327476669       -3.55052432364594
C          -10.64445862534431        7.72674956957370       -2.90432464867622
H          -10.09891975664430        8.25097648257180       -2.13106970508657
H          -10.89927245293591        8.28113311217367       -3.80281311582946
C          -15.74372907823884        3.88255408445968       -2.44789940703862
H          -15.35092394250763        3.72037352059922       -3.45764299655784
H          -15.62927111826871        4.94265962905849       -2.19937035356775
H          -16.80834658227506        3.63207906129987       -2.44533795174266
C          -16.82358889648383        1.29197696977025       -0.86381321272343
H          -17.28674381792252        1.48891783906911       -1.83641570413032
H          -17.47229081629533        1.71370588503861       -0.08706444520999
H          -16.77508585001100        0.20790826921987       -0.72486539336527
O          -10.62102366195212        0.73256358300341       -0.19119798032546
H          -10.84264429136939       -0.11760127924002        0.18480123490085
H          -10.08651136525889        0.81995830509224       -0.95931662370474
C          -15.06685607454468        6.18631760134442        3.61210719083567
H          -14.61300793511573        7.12815688953799        3.93968895748613
H          -15.73931393926303        5.83133224489125        4.40153484843288
H          -15.64839051348786        6.37404085723323        2.70634171135200
N          -13.13752338269431        4.73232359412627        4.28817584662596
H          -13.10807824595684        5.06331758198155        5.23737206384948
C          -14.01061848293524        5.17410838472580        3.32954619942351
C          -12.32746145889437        3.81796822252646        3.73569647157645
H          -11.56518742732099        3.28433630416944        4.27732723403093
N          -12.62577298467746        3.66427261797394        2.46231134611729
C          -13.66809074003966        4.50679977797006        2.18937503616649
H          -14.08864086347651        4.55932164640744        1.20252894535143
78
 energy: -116.045790931000 gnorm: 0.023825025472 xtb: 6.7.1 (edcfbbe)
Fe         -11.63014504343406        2.38818495613285        1.10014085651160
N          -12.23663199365389        0.72321356594224        2.04360680106878
N           -9.96314524721366        2.42557392390135        2.25893878547787
N          -10.96631400175136        3.99200013729525        0.06625723687008
N          -13.27194276704684        2.32699242129625       -0.08973483354263
C          -13.35598878280135       -0.00061398899531        1.75994253763656
C          -13.38370960050982       -1.21271914442038        2.55282693349312
C          -12.26708594161391       -1.19160225936961        3.33455034174475
C          -11.56004158759513        0.02584188128664        2.99833401383869
C           -9.63091078002877        1.53666261365224        3.23603347426273
C           -8.40750777390012        1.93125606234226        3.89431192569092
C           -8.00323385843923        3.09952486803016        3.29561721407086
C           -8.99230712205789        3.37750037976258        2.25710761451570
C           -9.82346714617020        4.68581824720067        0.32050238393754
C           -9.62646076087042        5.72181960853705       -0.67621244506571
C          -10.69596746862384        5.64772224375217       -1.53334793686705
C          -11.53419595701386        4.56576968942641       -1.03121827906651
C          -13.61989241985644        3.23906142614877       -1.03839082190452
C          -14.98421093684339        3.01401856805919       -1.47405807938279
C          -15.43234260173372        1.91657971395621       -0.79946787183341
C          -14.33756320070284        1.49260329009869        0.05238991773603
C          -14.34747026849188        0.37008340902921        0.86480348459969
H          -15.20842478833126       -0.27956364298761        0.79777175240271
C          -10.35941307360238        0.40516668260496        3.57440915628011
H           -9.96409606929292       -0.23423216306248        4.35016591486181
C           -8.94505484590797        4.44433613339870        1.37229456136350
H           -8.13042144997047        5.14442850199826        1.49486863232909
C          -12.77945435512328        4.22560685946627       -1.54208043303830
H          -13.13551898329143        4.78516234951811       -2.39855472306398
C          -11.81590715302114       -2.19322010829135        4.34210693814375
H          -12.52150473905454       -3.01575072789199        4.40738313195912
H          -11.73561922147763       -1.73820763192884        5.32763739136836
H          -10.84006229027433       -2.59806065663651        4.07847078315184
C          -14.44316561983858       -2.25984020077809        2.50390027502891
H          -14.88172783467119       -2.32465294357096        1.51297687335156
H          -15.23762460829452       -2.03466747804084        3.21439150714218
H          -14.02998992091144       -3.23277142136179        2.75617864190762
C           -7.78393400036651        1.14464081164040        4.99929307419370
H           -7.87843454984076        0.07722612708774        4.81436456452922
H           -8.28285553864812        1.36226992594729        5.94524277619184
H           -6.72933508280334        1.37536385787881        5.10423636617891
C           -6.84444561650479        3.91190622689382        3.59617521325177
H           -6.45237942109001        4.51274134279084        2.78478317569368
C           -6.24485124186718        3.98093298114979        4.78212486944513
H           -6.60551567018745        3.43465539172994        5.63329703554613
H           -5.37829546937846        4.59813841465590        4.94795455851157
C           -8.42462286262379        6.60162546757695       -0.74588265760014
H           -7.52475330452971        6.04351734191962       -0.49659849075567
H           -8.50839290239340        7.43106385593670       -0.04307252011849
H           -8.30406990639385        7.00937441617678       -1.74523107558966
C          -10.99289973065065        6.44413824041824       -2.70858029482546
H          -11.55400094050480        5.95118182076419       -3.49458627988940
C          -10.64320287083212        7.71536266115280       -2.88556020093541
H          -10.11326311487322        8.26541277617914       -2.13042439519701
H          -10.88784210672105        8.25541343150686       -3.78553670856383
C          -15.72623692515803        3.86956761547935       -2.44452235531031
H          -15.34554385238981        3.72256546062315       -3.45447982622540
H          -15.61845781039219        4.92286791645280       -2.19497937095075
H          -16.78496386907375        3.62792688149775       -2.44057295677501
C          -16.79074354299878        1.29948479326194       -0.86386176571506
H          -17.25812011555698        1.49216958828055       -1.82681919960517
H          -17.43916397127301        1.71221589500488       -0.08999917934094
H          -16.74839814094615        0.22340150975592       -0.72122230154634
O          -10.61923090903131        0.77597583600140       -0.18476035913565
H          -10.82806831187656       -0.09529954079308        0.15548906290285
H          -10.08148218446476        0.82031632878145       -0.97664107379145
C          -15.06016954332148        6.18792775185767        3.60895824532132
H          -14.61758088872008        7.12648805219523        3.93709833593511
H          -15.73103198953813        5.83618624293506        4.39092626267342
H          -15.63986589948270        6.37142623197549        2.71208983625027
N          -13.14640931282364        4.73053399528232        4.29276812067064
H          -13.11628176523799        5.05731230926829        5.24557603630187
C          -14.00771683744572        5.17898159837453        3.32749105474303
C          -12.33109377749420        3.81384908332128        3.72531983673880
H          -11.56771400306165        3.28859584588509        4.25944415469031
N          -12.62050957878530        3.65191649099558        2.45664442529301
C          -13.66115587006859        4.49639449447697        2.19463809776869
H          -14.08344635723440        4.55420536217985        1.21356225205930
78
 energy: -116.048529592541 gnorm: 0.018072356487 xtb: 6.7.1 (edcfbbe)
Fe         -11.62812223280394        2.38227347966084        1.10205613689710
N          -12.24867295668752        0.72775134962516        2.04514948725411
N           -9.97328084902497        2.42755317079024        2.26114109523610
N          -10.95430429678465        3.97163866845853        0.06686376139813
N          -13.27561181369639        2.33622681011474       -0.06634720666745
C          -13.36662570679773        0.00520259413984        1.76642429506698
C          -13.39335964819373       -1.20897531814700        2.55475358621490
C          -12.27546132109056       -1.18603910498430        3.33474231462596
C          -11.57241760214040        0.03141296317980        2.99862093572049
C           -9.64527864980691        1.54284516252527        3.23872144838231
C           -8.42599111710787        1.93492455195194        3.90062321825804
C           -8.02024948893233        3.10404692337721        3.30214517068044
C           -9.00033980949872        3.37363274522962        2.25742090036073
C           -9.81409251482035        4.66729552353100        0.31678741050134
C           -9.62617103212084        5.71158874176096       -0.66516400773134
C          -10.69849996952301        5.63842874799861       -1.51832664780945
C          -11.52626665093072        4.54761825376456       -1.02190639712865
C          -13.61425523604051        3.23840709820781       -1.02431691233836
C          -14.97209950352830        3.01312565313965       -1.47356875071309
C          -15.42338130273528        1.91999082138130       -0.79519884440492
C          -14.33886710249147        1.50295067102954        0.06786722364088
C          -14.35962477853539        0.38032938167782        0.87792012796785
H          -15.22674862665167       -0.26038349783236        0.81476845668232
C          -10.37380916562840        0.41156415093980        3.57351407923645
H           -9.97837831197512       -0.22795931808098        4.34741977919160
C           -8.93727907772822        4.43018496352947        1.36631892341194
H           -8.11679677014568        5.12365722956195        1.48072298216389
C          -12.77626939940595        4.22351796691402       -1.52539765453100
H          -13.14483091340001        4.80347488097962       -2.36219671647643
C          -11.81899030220951       -2.18607036207988        4.33849720895044
H          -12.52222093371323       -3.01136899569792        4.40516733977853
H          -11.73640346623819       -1.73064502912607        5.32462411096164
H          -10.84094681069080       -2.58712849285941        4.07339374577495
C          -14.44943607355525       -2.25704723730834        2.50289869934438
H          -14.88391382010147       -2.32625770135412        1.50953220550169
H          -15.24884221070537       -2.03208102380203        3.20942390467341
H          -14.03604260461593       -3.22925390539160        2.76150285958647
C           -7.78418192477623        1.14657957073187        4.98895567961161
H           -7.88362466437456        0.07974776997359        4.79983842103589
H           -8.26246465925370        1.36233836819398        5.94704374923560
H           -6.72684544252821        1.37955891642964        5.07107126657037
C           -6.86161222357232        3.90994026499742        3.59308582620652
H           -6.47706585322750        4.50051362765739        2.77004728087966
C           -6.25207774716957        3.99332247962285        4.77418444235195
H           -6.61931248774576        3.48182854201260        5.64768810696650
H           -5.37882986910423        4.60557120604815        4.92129629243022
C           -8.43071282220058        6.59268654137075       -0.74214863763019
H           -7.52948773268307        6.03598670970721       -0.49210870178778
H           -8.51451044727592        7.42703049213743       -0.04435234573316
H           -8.31816874092633        6.99519304604940       -1.74541602605457
C          -10.99143976636148        6.43165401212861       -2.68675353228516
H          -11.55440532793210        5.92888474011056       -3.46471105213604
C          -10.64285860015732        7.70238860858453       -2.87500319346795
H          -10.13350688769868        8.27394789263022       -2.11859415293989
H          -10.88661828675400        8.23080458980333       -3.78110846375062
C          -15.70809047278582        3.86443843144351       -2.44857107012395
H          -15.32751620429383        3.72215288224610       -3.46010706073175
H          -15.60132924255601        4.91778119043361       -2.19510945001334
H          -16.76726057856521        3.62134689518443       -2.44474565242142
C          -16.77401790387648        1.29752598066937       -0.86322037327637
H          -17.23972194508131        1.49165767256667       -1.82664096971794
H          -17.42146347394080        1.70671585565736       -0.08564123041748
H          -16.72310790268387        0.22138328029425       -0.72087094060052
O          -10.59447858650176        0.81970649822661       -0.19443136393071
H          -10.81119980955357       -0.06851784524948        0.10377029750620
H          -10.08114488886113        0.84528943501919       -1.00631952115358
C          -15.05312616653110        6.18519925285058        3.60254614847709
H          -14.61186576152409        7.12462028397546        3.93206206674233
H          -15.72634486762646        5.83483644967326        4.38385742001674
H          -15.63174391123549        6.36954599701104        2.70447915811762
N          -13.14572201356971        4.72109273544340        4.29144091867027
H          -13.11800004753385        5.04272267139967        5.24594479269813
C          -14.00257710583584        5.17375626906666        3.32273405660683
C          -12.33020689103713        3.80445242803249        3.72069764193024
H          -11.56189691708142        3.28317302433550        4.25144271787808
N          -12.61780567930407        3.64306600870622        2.45331439944805
C          -13.65547232964765        4.49005455420092        2.19141024505934
H          -14.07930174657575        4.55259015381830        1.21134454007072
78
 energy: -116.050239289965 gnorm: 0.020830586991 xtb: 6.7.1 (edcfbbe)
Fe         -11.62985419085316        2.38073666695321        1.10725520079663
N          -12.25773084951632        0.72989506352987        2.04196665900802
N           -9.98765007874740        2.42763146370740        2.26259325399121
N          -10.94488062608662        3.95191690918521        0.07434880103782
N          -13.27103062481391        2.33884058790993       -0.04726890820641
C          -13.37955018380875        0.01086318287338        1.77355231008319
C          -13.40578701286859       -1.20304615953640        2.55943522654064
C          -12.28678140351984       -1.17975215447267        3.33489874108084
C          -11.58411661089547        0.03525308041394        2.99788478186333
C           -9.66369122471723        1.54664718158754        3.24418697094337
C           -8.44974606036342        1.93924731476554        3.90934149816718
C           -8.04245450333871        3.10575017106009        3.30987041313526
C           -9.01176860178967        3.36940463475618        2.25995930322495
C           -9.80332981194553        4.64768544477459        0.31773264651266
C           -9.62470814986823        5.69662239105829       -0.65239730033086
C          -10.70247957143498        5.62787484555512       -1.49705576203508
C          -11.52223229608253        4.53398966991806       -1.00487404540271
C          -13.60550190070865        3.23839269659463       -1.00769747436374
C          -14.95619659263780        3.01023897856716       -1.47025963773591
C          -15.41189890100715        1.92254078584047       -0.79026011884874
C          -14.33818158032488        1.51098421768026        0.08503977906391
C          -14.37709082936229        0.39190944004525        0.89599129412490
H          -15.25492863310146       -0.23459162285935        0.84145989315634
C          -10.39082256192057        0.41613346182890        3.57645187202743
H           -9.99678216630906       -0.22139860547352        4.35219074737531
C           -8.92632806768786        4.41477232202672        1.36254012535720
H           -8.09691696341920        5.09834622649996        1.46676484365949
C          -12.77573154644565        4.22778763852145       -1.50183827511849
H          -13.15308030349536        4.82493589857720       -2.32010140043425
C          -11.82296475392828       -2.17925405760107        4.33714652359842
H          -12.52313921706692       -3.00830788242024        4.40558576604163
H          -11.73838861416820       -1.72225931739715        5.32371151347429
H          -10.84286041400149       -2.57504340361617        4.06691286372756
C          -14.46161025819210       -2.25296085122015        2.50351370365374
H          -14.88625564175796       -2.32811055169078        1.50468794078377
H          -15.26977514547875       -2.02553016536107        3.20132751978105
H          -14.04836315291130       -3.22414442341186        2.77154256490098
C           -7.78308446208649        1.15114733667552        4.98161867471343
H           -7.88601244996369        0.08390677179570        4.79035509839171
H           -8.23138413105948        1.36298095555901        5.95646343258398
H           -6.72266735354820        1.39184607469283        5.02996588994305
C           -6.88250330077661        3.91339162682023        3.59104138835041
H           -6.49178457047543        4.47754969766986        2.75102148966882
C           -6.27130298129382        4.02123112740374        4.76924997751833
H           -6.62608564993980        3.52200994594609        5.65427073931159
H           -5.38390530253644        4.62128707669781        4.89118034796425
C           -8.43384847393844        6.58361095568630       -0.73830491816458
H           -7.52848224674659        6.03256266561135       -0.48673766303662
H           -8.52014060713183        7.42466599641010       -0.04766156470681
H           -8.33159023541782        6.97794178677339       -1.74739242882737
C          -11.00021439278519        6.42098060860201       -2.66343300800857
H          -11.55138945157264        5.90541739068171       -3.44191312290468
C          -10.65774930340319        7.69203984779358       -2.85744443978701
H          -10.14603945693191        8.27375804052779       -2.11062495312250
H          -10.88735045576667        8.20334217837801       -3.77794287576232
C          -15.68373440677268        3.85879220457961       -2.45551009444264
H          -15.29542717112597        3.71694968733288       -3.46491425544752
H          -15.57905993782280        4.91337490880715       -2.20052161429208
H          -16.74356732083567        3.61335513586066       -2.45854876053437
C          -16.75858706014596        1.29108321734840       -0.86399213573345
H          -17.22445501479654        1.48851946399262       -1.82695952916602
H          -17.40725372393899        1.69067263505874       -0.08110874586149
H          -16.69583683425089        0.21375665573679       -0.72843022124488
O          -10.53618809008076        0.87708003011715       -0.18844702753515
H          -10.80427254033384       -0.03449275561038        0.02035057245637
H          -10.10717977066272        0.88680502677883       -1.05721965896480
C          -15.04384661867807        6.18018780797457        3.59380467020607