87
 energy: -124.359983682631 gnorm: 0.462748679139 xtb: 6.7.1 (edcfbbe)
Fe           2.80400000000000       20.97700000000000       13.20300000000000
N            4.23100000000000       19.90600000000000       12.36800000000000
N            3.47800000000000       20.35100000000000       14.98300000000000
N            1.42200000000000       22.06600000000000       14.13000000000000
N            2.19200000000000       21.62900000000000       11.41100000000000
C            4.51600000000000       19.81100000000000       10.91700000000000
C            5.47300000000000       18.82000000000000       10.69200000000000
C            5.79400000000000       18.23200000000000       11.84500000000000
C            5.10100000000000       19.02600000000000       12.88800000000000
C            4.34500000000000       19.32700000000000       15.19800000000000
C            4.57000000000000       19.23100000000000       16.63800000000000
C            3.74600000000000       20.11200000000000       17.22800000000000
C            3.05700000000000       20.79200000000000       16.23200000000000
C            1.28300000000000       22.36100000000000       15.46600000000000
C            0.10300000000000       23.19900000000000       15.66900000000000
C           -0.40400000000000       23.54000000000000       14.46600000000000
C            0.39100000000000       22.77300000000000       13.59000000000000
C            1.15200000000000       22.44200000000000       11.16300000000000
C            1.04900000000000       22.82000000000000        9.77900000000000
C            2.15300000000000       22.25500000000000        9.23000000000000
C            2.94200000000000       21.56000000000000       10.24300000000000
C            3.97000000000000       20.65100000000000       10.03000000000000
H            4.38100000000000       20.61800000000000        9.02100000000000
C            5.10600000000000       18.70200000000000       14.23700000000000
H            5.76100000000000       17.89300000000000       14.55900000000000
C            2.10500000000000       21.73400000000000       16.35700000000000
H            1.96000000000000       22.06500000000000       17.38200000000000
C            0.20900000000000       22.80900000000000       12.14100000000000
H           -0.75900000000000       23.15700000000000       11.77900000000000
C            5.97500000000000       18.37400000000000        9.26600000000000
H            6.39900000000000       19.35900000000000        8.97800000000000
H            4.96600000000000       18.27000000000000        8.81300000000000
H            6.64400000000000       17.57000000000000        8.89200000000000
C            6.81000000000000       17.18200000000000       12.19300000000000
H            6.10400000000000       16.52500000000000       12.74600000000000
H            7.41800000000000       17.75500000000000       12.92600000000000
H            7.47200000000000       16.55000000000000       11.56300000000000
C            2.67800000000000       22.41800000000000        7.75700000000000
H            1.79100000000000       21.88500000000000        7.35300000000000
H            3.54800000000000       22.22200000000000        7.09500000000000
H            2.46100000000000       23.50700000000000        7.78700000000000
C           -0.02500000000000       23.70100000000000        9.19700000000000
H            0.34000000000000       24.63900000000000        8.75400000000000
C           -1.17200000000000       22.93300000000000        8.52000000000000
H           -1.54700000000000       21.99400000000000        8.95300000000000
H           -1.63000000000000       23.31500000000000        7.59600000000000
C           -1.58000000000000       24.41700000000000       14.16300000000000
H           -2.09700000000000       23.68000000000000       13.51200000000000
H           -1.04700000000000       25.15200000000000       13.52300000000000
H           -2.33600000000000       24.93700000000000       14.78900000000000
C           -0.14300000000000       23.79700000000000       17.08900000000000
H            0.72500000000000       23.87800000000000       17.72000000000000
C           -1.64300000000000       23.79600000000000       17.46100000000000
H           -2.41200000000000       23.70300000000000       16.68000000000000
H           -1.95800000000000       23.88900000000000       18.51100000000000
C            3.52600000000000       20.27500000000000       18.80100000000000
H            3.40100000000000       19.17800000000000       18.92500000000000
H            2.87100000000000       20.79700000000000       19.53100000000000
H            4.58900000000000       20.53900000000000       18.98700000000000
C            5.42400000000000       18.16900000000000       17.37500000000000
H            4.56900000000000       17.75500000000000       17.95100000000000
H            5.94100000000000       18.93100000000000       17.99600000000000
H            6.12400000000000       17.34300000000000       17.12600000000000
C            5.46300000000000       25.84200000000000       12.54500000000000
H            6.17400000000000       25.83100000000000       11.69100000000000
H            5.95000000000000       26.33500000000000       13.41300000000000
H            4.55300000000000       26.40600000000000       12.24900000000000
N            5.99500000000000       23.50800000000000       13.29600000000000
H            6.97700000000000       23.67600000000000       13.38600000000000
C            5.09000000000000       24.42900000000000       12.90600000000000
C            5.40700000000000       22.42800000000000       13.52200000000000
H            5.92000000000000       21.54500000000000       13.90400000000000
N            4.07300000000000       22.50400000000000       13.23300000000000
C            3.86800000000000       23.78800000000000       12.85700000000000
H            2.88300000000000       24.14600000000000       12.58600000000000
C            1.01700000000000       17.95200000000000       15.59900000000000
H            0.26000000000000       17.81900000000000       16.40100000000000
H            1.90100000000000       18.47000000000000       16.02800000000000
H            1.31600000000000       16.95000000000000       15.22400000000000
C            0.42300000000000       18.79300000000000       14.44100000000000
H            0.12900000000000       19.78100000000000       14.85200000000000
H           -0.49100000000000       18.27900000000000       14.07900000000000
S            1.48200000000000       19.03400000000000       13.12200000000000
C            0.27400000000000       19.32200000000000       11.82500000000000
H           -0.36000000000000       20.20500000000000       12.05300000000000
H           -0.39200000000000       18.43900000000000       11.71800000000000
H            0.78700000000000       19.50900000000000       10.85800000000000
87
 energy: -124.542023371635 gnorm: 0.259399150483 xtb: 6.7.1 (edcfbbe)
Fe           2.81172118035131       20.97452431375592       13.20664549292386
N            4.24043381636258       19.89816347417717       12.33687674509805
N            3.47045297469377       20.34805679052856       14.97607923009710
N            1.40578701468009       22.07993549697795       14.12323529196951
N            2.20699845977528       21.64396214392685       11.42526327203707
C            4.51781711507611       19.81721029075774       10.93047003297740
C            5.48361011697175       18.80139668206568       10.68231054335385
C            5.81525564644329       18.24168011731840       11.85238131664499
C            5.07878182140776       18.99663570827064       12.88231635027845
C            4.36113096342472       19.34916196391455       15.20032327957726
C            4.56383847783601       19.21070975685298       16.62875190783326
C            3.73825083281144       20.11271040859227       17.23416423092376
C            3.05874377339313       20.79949404393192       16.21169626320532
C            1.27917435848025       22.36068032033333       15.46270541894122
C            0.13182964856651       23.22609383728025       15.70641414906428
C           -0.40488337067714       23.52434203128658       14.48865523071155
C            0.38569132469592       22.77506918393250       13.55385431412137
C            1.13573172580833       22.42855453128175       11.17716949633254
C            1.05351063672220       22.81189915761203        9.78412386855287
C            2.18722031912557       22.26473778841416        9.23350394816278
C            2.91612142073174       21.54843372516390       10.24996998418198
C            3.96167073108377       20.66146031750997       10.02378651044898
H            4.37044030248547       20.62186514299447        9.01733170414968
C            5.10807694226067       18.69817899907623       14.23715779004710
H            5.76192162705647       17.89779220511146       14.56386647048278
C            2.09707484969552       21.75081399832880       16.37500832800363
H            1.95252489231547       22.06425722502546       17.40016618031099
C            0.20247506410103       22.80836251634609       12.14393836316587
H           -0.75151032519634       23.17391085602796       11.77908390281772
C            5.94993336254793       18.40715447832111        9.26531477669311
H            6.39914813498949       19.35547910408403        8.94742993700571
H            4.97563631698857       18.27008222567180        8.78290909593953
H            6.62288019347230       17.58745016781964        8.94759433697581
C            6.79997431474672       17.18288180256123       12.22508951896434
H            6.12859488100002       16.50251529352948       12.76334369839523
H            7.43296422673335       17.72936470250933       12.93545712667104
H            7.44049317986520       16.58584047707539       11.55332429789947
C            2.63078963359952       22.43665454400483        7.76278983239608
H            1.78679821906444       21.90113684814466        7.31270124847173
H            3.53554217780816       22.20999071233031        7.16295739041019
H            2.45801181699110       23.51777826644518        7.73777902313322
C           -0.02437163079068       23.62636764482040        9.13202765456921
H            0.31228748695116       24.61048948989850        8.75775569603028
C           -1.12751965865526       22.95981156111178        8.53831223977117
H           -1.51512474452778       22.01995886705823        8.94603873131584
H           -1.62583888848885       23.33182194472289        7.63724916315665
C           -1.56869568911206       24.40240124719290       14.13050365254279
H           -2.12320458361312       23.70253912546115       13.49345503305784
H           -1.07304164760432       25.16117583457926       13.50924583838232
H           -2.28962164200944       24.90910562137491       14.79685133252552
C           -0.21348517056779       23.75266974293396       17.07757302234187
H            0.66866290944939       23.87823493291312       17.71310611390733
C           -1.58186415325813       23.79547591014721       17.45411261857645
H           -2.36958227754936       23.69660324253985       16.69913347465153
H           -1.92954227188197       23.90283789103407       18.48675064995047
C            3.56067409670873       20.24424571672168       18.77981673775783
H            3.40903731125834       19.17435559061065       18.96716876458184
H            2.87747116499219       20.79882365711974       19.45724312910507
H            4.59142806254100       20.52929210914861       19.02297014223125
C            5.40428503995684       18.19317087344823       17.39861527521790
H            4.59028859235528       17.73672923469607       17.97749599195119
H            5.95518411370852       18.90546058629949       18.02543734583341
H            6.09331664448500       17.38459531145368       17.09070195646452
C            5.46270676341471       25.84574953063387       12.54235044228865
H            6.16771599406583       25.83666533321623       11.69846223472659
H            5.94408264924587       26.33506525369826       13.40156521095450
H            4.56470662170972       26.40260452859845       12.25298401188321
N            5.99969554150453       23.52907160169145       13.29541479384064
H            6.98545504730044       23.69101939573389       13.38702235081276
C            5.08421377700849       24.44719870224842       12.89411976093012
C            5.38854441112789       22.40027892439473       13.52308662735602
H            5.90120063396287       21.53174729079659       13.89996468029936
N            4.07984457103213       22.49715313350755       13.24678753343722
C            3.87881382518383       23.78459737319361       12.85941032307391
H            2.89646022235024       24.14032992039717       12.58979075783564
C            1.01621881649014       17.95360531067126       15.59631187962503
H            0.26914925594414       17.82134864806338       16.39131747367260
H            1.89081202570711       18.46116150227537       16.02147535138502
H            1.31511196871903       16.96265534614662       15.22776940327825
C            0.41171459498999       18.79398625238345       14.45749557448099
H            0.12269556543516       19.77796211878493       14.85611085418524
H           -0.48991440601112       18.28236195585448       14.08553836207495
S            1.49720144200899       19.02673255218404       13.10032123059102
C            0.26321410203324       19.32262447008187       11.81784250324750
H           -0.35277619135798       20.20068766884598       12.05353551947847
H           -0.38632604043727       18.44228764432208       11.71748676590889
H            0.78405694593485       19.50551775769731       10.87033189134045
87
 energy: -124.634701148280 gnorm: 0.129008473991 xtb: 6.7.1 (edcfbbe)
Fe           2.82067135734080       20.97539770701461       13.20805948990913
N            4.25166146644063       19.88954657410525       12.29890007436564
N            3.46676201587660       20.35063336239643       14.97147066590673
N            1.39021422683375       22.09379019598531       14.12557671142948
N            2.21882329252261       21.65335661113230       11.43340679491899
C            4.51742233808505       19.82486691801572       10.95120436859085
C            5.49214968062110       18.78544401042485       10.67060061273811
C            5.82896045727020       18.25026675175405       11.85796123991037
C            5.06101215839583       18.97131336637377       12.87607239578515
C            4.37490044053847       19.36897249767546       15.20494441945021
C            4.55720025588808       19.19708968057524       16.62262832431799
C            3.72829028217133       20.11313494344651       17.24174701743421
C            3.05871338822936       20.80708573785062       16.19099630198679
C            1.27581529035381       22.36215631683696       15.45857184780393
C            0.14584745862651       23.24692220071778       15.73121456884723
C           -0.41166546203604       23.50633315716287       14.50896961071326
C            0.38013162167015       22.77678025633082       13.52680813342882
C            1.12087801367062       22.41618992337414       11.18951470908734
C            1.05415949481400       22.79939975273386        9.79269446073980
C            2.20887295016808       22.27025326099654        9.23312868550702
C            2.89384647332834       21.54028008745581       10.25619213403590
C            3.95698707999640       20.67167050399202       10.02127315686420
H            4.35859702748222       20.62374648399774        9.01676295763208
C            5.10724144960469       18.69578159090753       14.23489134882692
H            5.76274669741081       17.90506766187077       14.56818890117090
C            2.08850607633058       21.76787968436031       16.39710262559075
H            1.94414894998796       22.06335573804710       17.42108689492941
C            0.19603026657979       22.81241028430520       12.15024606207008
H           -0.74299132005620       23.19952792640357       11.77759096788468
C            5.92454308332723       18.44262435640658        9.26906527237978
H            6.39833458775344       19.35535728710067        8.91260412025873
H            4.98398607079161       18.27368555595945        8.74936906197331
H            6.60032083224715       17.60490583641677        9.01732256793609
C            6.78846003397694       17.18506223204219       12.25710436533614
H            6.15532573959397       16.47580468121685       12.78362612532952
H            7.45185432597613       17.69743686138651       12.95186783468651
H            7.40361170988331       16.62855600002757       11.53570498628543
C            2.57981104415740       22.45624411683588        7.77723374457375
H            1.77972934118921       21.91932610080715        7.27209724094620
H            3.52327111997630       22.19414161151407        7.25258774999588
H            2.44797149387263       23.53112252079438        7.68390301976287
C           -0.02090712187426       23.55592673120626        9.06981410495308
H            0.29563122274341       24.57118782654373        8.75315284065850
C           -1.06973695552954       22.97983137001431        8.55727793867430
H           -1.47112692458537       22.03314116533929        8.92970824253977
H           -1.62845347698424       23.36118577476130        7.69470644761752
C           -1.55572161343400       24.38688261300813       14.09764984827145
H           -2.14955182135535       23.72574459561300       13.47124783498810
H           -1.09606033590760       25.16912420222389       13.49332320977567
H           -2.23675443547852       24.87518283512595       14.81191109203877
C           -0.26826608388729       23.71522270873876       17.06409146218705
H            0.61148544179195       23.87077222275286       17.71548131278280
C           -1.51427589328138       23.78597315428335       17.43550812656164
H           -2.33162299609741       23.67906027564714       16.71565697303038
H           -1.88878627320224       23.92545880842627       18.45475777185544
C            3.59524811036665       20.21220582041163       18.75113247774434
H            3.42129060168330       19.16812052324286       19.01174802400160
H            2.88021515767781       20.80428319299124       19.36216604204234
H            4.59593616994058       20.51691919355168       19.05873360765676
C            5.38049367077492       18.22040251479621       17.41978241145843
H            4.61290323927574       17.71786633090893       18.01042402493193
H            5.96907683981795       18.88017563701412       18.05633227427290
H            6.05609190390335       17.43373638484393       17.03983161327066
C            5.46062128258067       25.84687858139050       12.53989320341567
H            6.16280591655901       25.84226677790159       11.70409939880807
H            5.93870060913037       26.33441351207006       13.39216870843909
H            4.57321354037495       26.40365095716483       12.25512494446619
N            6.00298794348961       23.54299321799841       13.29753089727941
H            6.99179092387886       23.69741438892874       13.39034581340327
C            5.07719057124940       24.45735300372339       12.88391657930973
C            5.37260683458212       22.38304845050352       13.52409619493959
H            5.88726815075132       21.52377022155647       13.89511357470149
N            4.09073091368572       22.49297283150101       13.25792704276635
C            3.88695070172524       23.78173413082509       12.86257267984378
H            2.90794014884901       24.13526813412638       12.59350229114959
C            1.01469296764157       17.95560158814182       15.59552271392779
H            0.27584340857189       17.82218687836389       16.38608455569673
H            1.88364980106890       18.45573873633590       16.01523059778877
H            1.31363086794236       16.97432784099081       15.22765831614968
C            0.39810967602344       18.79286634167812       14.47822057468623
H            0.11971814346505       19.77675548803120       14.85846488950678
H           -0.48939085442349       18.28568013744781       14.09014341844582
S            1.51102476782911       19.02212303405738       13.08102420273576
C            0.25260761099558       19.32307248486259       11.80886313819794
H           -0.34609881949177       20.19687699463769       12.05614799527310
H           -0.38218715386577       18.44393980689498       11.71640051875007
H            0.78133081013753       19.50274223267174       10.87721849766552
87
 energy: -124.677332946439 gnorm: 0.059821755861 xtb: 6.7.1 (edcfbbe)
Fe           2.82449944464680       20.97408233092895       13.21015954295482
N            4.25043016002176       19.88173821163468       12.28682490260429
N            3.46779394991627       20.35806835862808       14.97155974993905
N            1.38872020077476       22.09821937838643       14.12554445389092
N            2.22531535268677       21.65686094143331       11.44245738618891
C            4.51693010536756       19.83048291881378       10.96048493616392
C            5.49538337877850       18.78674866201638       10.67108383381372
C            5.83236481341338       18.25487487122860       11.86580576448281
C            5.04526923882845       18.95449961566392       12.87557576441028
C            4.38411719521484       19.38233287166209       15.20799514065253
C            4.54925434063771       19.19468876526915       16.62319810861053
C            3.72368156223708       20.10997639157319       17.24053456415241
C            3.05806054235935       20.81495613402925       16.18531614195173
C            1.28203548370189       22.36325703917079       15.45311689116079
C            0.15880629259720       23.25146861042396       15.71958602069690
C           -0.41348443978198       23.49409830332325       14.50329392457885
C            0.37919301346267       22.77255493173711       13.51604952337051
C            1.11601812248563       22.40440646425286       11.19521764067361
C            1.06781662706012       22.78460367978141        9.80292791311799
C            2.21460753246138       22.26975162144247        9.23590474031158
C            2.88659563286292       21.53275181242888       10.26158415734505
C            3.95434325836673       20.67449698571678       10.02200168441516
H            4.34343040666900       20.62500853669963        9.01472337708860
C            5.10310262863871       18.69653150085082       14.23498937241179
H            5.76545558142434       17.91497785581856       14.57500762803498
C            2.08628575489478       21.77789286210035       16.40949927444624
H            1.93077758021796       22.05947654349972       17.43826921162820
C            0.19019375843200       22.81537184471106       12.14671023595183
H           -0.73138006922929       23.24219902621217       11.76927675095154
C            5.90602904998769       18.47287782192672        9.27093484696359
H            6.39693571673726       19.36104335813945        8.86650182326538
H            4.99134596855659       18.28239330727012        8.70513373639302
H            6.58327252277990       17.61646437519705        9.10320562126479
C            6.78135030296058       17.18707052289831       12.28055532550432
H            6.18836919060495       16.44144610706757       12.81068965062218
H            7.47808591912979       17.65683215008607       12.97728083747215
H            7.36566790338652       16.67533921421268       11.50361660446179
C            2.54018085046235       22.47146173146535        7.78740700794736
H            1.76622082270780       21.94499968805762        7.22112861078086
H            3.52070756003851       22.16990820604880        7.35522291814862
H            2.42972049754882       23.54758614867565        7.61651942086346
C            0.03746514372875       23.53016156277719        9.03988622818493
H            0.32319632338999       24.54279405023429        8.72976866717236
C           -1.09059014618271       22.98329695974291        8.57073893006630
H           -1.43283358651376       22.00468748139416        8.90066308744344
H           -1.67533936493561       23.40842756879586        7.75341298284851
C           -1.54562031295735       24.37164029787972       14.07205896428464
H           -2.18406387303529       23.75209231882688       13.43946799985665
H           -1.12147547795623       25.17590352013205       13.46827659459585
H           -2.17869048638568       24.83760838310182       14.84035840211657
C           -0.25154449290851       23.67550265034081       17.04938863098052
H            0.59103205172741       23.84692954485552       17.72990829771753
C           -1.52406058911234       23.79966347099835       17.43663627258085
H           -2.33294128810000       23.64418205338831       16.72887126887000
H           -1.86439066578801       23.97188000729651       18.45160487458413
C            3.62211606030349       20.18740572279220       18.73141142577325
H            3.43946133059631       19.15840826792257       19.06866804081615
H            2.87002236304553       20.82418452274874       19.24887331041538
H            4.60578825741535       20.49816735542020       19.10252594570911
C            5.36329122792638       18.23922232578737       17.43480143853087
H            4.64113667908416       17.69356540631340       18.05392880706804
H            5.98483728932968       18.85080057136810       18.09649402740352
H            6.02006201936883       17.48443438712360       16.96534668386054
C            5.45785831460324       25.84879812797266       12.53694728845518
H            6.16045971040454       25.85083732544856       11.70415101912451
H            5.93399424305691       26.33754520839262       13.38663250633034
H            4.57476605331984       26.40991083760795       12.25432919390480
N            6.00670260246451       23.54759940677944       13.30188467321573
H            6.99620671497678       23.70382143405913       13.39570201961107
C            5.07667470825168       24.45838296992310       12.87997007862662
C            5.36929012349216       22.37841692843768       13.52656409249855
H            5.87763468321704       21.51187772954337       13.89029950065440
N            4.09299790116727       22.49154178815169       13.26729241849100
C            3.89126743530842       23.77954650457227       12.86589420105289
H            2.91526364324549       24.13080686463556       12.59665532107406
C            1.01227490165289       17.95840538634668       15.59362348900800
H            0.28028732981317       17.82071434912340       16.38678971420524
H            1.88212425305175       18.45436271223821       16.00948152869142
H            1.31291432936031       16.98187168518640       15.22225048145063
C            0.39091518230999       18.79426671423393       14.48657203078415
H            0.11703065118054       19.77953416186276       14.86104884450313
H           -0.49287707060989       18.28894662583395       14.09528597623152
S            1.51591556131866       19.01640177924833       13.07041774495361
C            0.24777723009588       19.32051703638312       11.80368827238218
H           -0.34123722948200       20.19548571864772       12.06061642444272
H           -0.38223879738018       18.44054895637393       11.71320112157152
H            0.77963530909263       19.50010161927410       10.87671613817063
87
 energy: -124.694208012229 gnorm: 0.057367545865 xtb: 6.7.1 (edcfbbe)
Fe           2.82389638965726       20.97644639806678       13.21235096816327
N            4.24199930812811       19.87996829388717       12.28940318341608
N            3.47039639858456       20.36755308369780       14.97705304761211
N            1.39098309392717       22.09729889267541       14.12753700600468
N            2.22402622625011       21.65793451702180       11.44348587169852
C            4.51133972660679       19.83733916572980       10.96842328226145
C            5.49445521555738       18.79630700074948       10.67688696093524
C            5.82649135534765       18.25820461663142       11.87613547823030
C            5.03176457723530       18.94838189418047       12.87946666005304
C            4.38917181899857       19.39094264482257       15.21375400732679
C            4.54471597285584       19.19527188692658       16.62893668402705
C            3.72241608288156       20.10636299634697       17.24332270586218
C            3.05602681281310       20.82250591104246       16.18888228114333
C            1.28734250987584       22.36426651668010       15.45069450270444
C            0.15945071460391       23.24978413831922       15.70842070677092
C           -0.41941325532366       23.47927014872761       14.49202609207336
C            0.38107048625817       22.76617005464538       13.51280317943859
C            1.10978473725584       22.39833532030922       11.19585168253449
C            1.06003749968342       22.77116934935425        9.80726907529484
C            2.20362549776326       22.27416693530914        9.23302826984239
C            2.87924030488586       21.52955626230150       10.25938569161260
C            3.94850281799136       20.67687582057326       10.02185102778412
H            4.32707090407097       20.62472377440997        9.01230277710230
C            5.09773046118124       18.70166351218086       14.23794965245096
H            5.76776861440730       17.92795824221864       14.58144245497080
C            2.08346252185884       21.78513600078394       16.42146739308106
H            1.91340905480840       22.05571326777270       17.45264724298811
C            0.18931041079348       22.82479258734202       12.14245683842159
H           -0.71123987768489       23.29662068675487       11.76288748430656
C            5.90029560291847       18.49236435788324        9.27902960501015
H            6.40066110256585       19.36010684121957        8.83816916886446