87
 energy: -124.720041293000 gnorm: 0.000035272611 xtb: 6.7.1 (edcfbbe)
Fe           2.79227564389296       20.93275731447276       13.12126672333795
N            4.20168526366650       19.81859449873125       12.24615086089924
N            3.40691936522180       20.29380168565607       14.91830476116867
N            1.40238577197693       22.07827597884576       14.01060210779448
N            2.20583683853932       21.61095170494547       11.32892481082006
C            4.47083202699538       19.74044981680392       10.91721828318316
C            5.55531941212903       18.81475666296940       10.66825750834760
C            5.93134171201372       18.33370959516895       11.88203913944808
C            5.07661429028824       18.97894933622174       12.85540653482721
C            4.40468183117484       19.40729381831262       15.17370612771887
C            4.55701001710343       19.20468839278199       16.59764947761085
C            3.62738405269287       19.99639810262336       17.19668300682006
C            2.92120291612225       20.67032673976345       16.13011541096312
C            1.19768430150121       22.22915072912676       15.34332489625847
C            0.13023850569326       23.17772693238975       15.59441596190231
C           -0.27640366062216       23.62226333469044       14.36385627828000
C            0.53258424126714       22.92780647809836       13.39593649254991
C            1.18186125631926       22.46645982093196       11.07222000748076
C            1.05359810151619       22.69415055562790        9.64613498287808
C            2.06518988811938       21.98172560709753        9.06067838506812
C            2.75526803947283       21.30270208545337       10.12562121679043
C            3.81529094051773       20.43608729239084        9.92313052885610
H            4.14537572721987       20.28609667236938        8.90659243684847
C            5.17953512660247       18.77533319910269       14.21855353557372
H            5.92814026531804       18.07913135239157       14.56511918259880
C            1.88971226924015       21.56550911602310       16.33987953572413
H            1.60757977013394       21.76440935133854       17.36234109081084
C            0.41895472558900       23.10917161567324       12.02793448289869
H           -0.31112210973170       23.82184159696816       11.67773831127093
C            6.09577637690975       18.49694956929464        9.31644570772077
H            6.46983326953247       19.39867138205828        8.83078997169395
H            5.31641748474514       18.07115756146818        8.68431081370273
H            6.91119018424923       17.78085280991078        9.38371964708701
C            6.99462220236016       17.34552508785515       12.22038660165471
H            6.56656402989396       16.48664807632956       12.73743412908167
H            7.74470913345033       17.79345221938156       12.87326805241749
H            7.49252587304146       16.99040160984945       11.32150796329737
C            2.38695062795409       21.85174821879871        7.61220799394263
H            2.22718600732211       20.82722689237854        7.27410323955971
H            3.43004614515156       22.10872002458852        7.42618587814448
H            1.75459261523774       22.50776884991484        7.01906173243745
C            0.05222860642594       23.49710289177457        8.97478071261492
H            0.40773184902655       24.05984543566763        8.11797332181765
C           -1.23559143309232       23.55653256545833        9.29463103109870
H           -1.65289161107288       22.97606894688600       10.10015931337880
H           -1.92561904642365       24.17291020677885        8.74248366283190
C           -1.29477758437673       24.66024013768883       14.04402216012432
H           -2.24605588268569       24.20220504091672       13.76693339538564
H           -0.96619595134757       25.28036278620738       13.21123228865631
H           -1.46113048764605       25.29822113625324       14.90973720653740
C           -0.34203227639970       23.56029711274600       16.90634103186535
H            0.40598898444212       23.56381157228946       17.69084506270450
C           -1.59361771662786       23.88866808182490       17.21031157808029
H           -2.38743971376760       23.85706016480805       16.48455883206325
H           -1.87314917291821       24.17734424627546       18.21003408629852
C            3.33561576270089       20.17967788029922       18.64636131832536
H            2.30536234320670       19.89998698043887       18.86819929352514
H            3.47243284694919       21.22172083794890       18.93681284392305
H            3.99513397688344       19.56551147067049       19.25468182883397
C            5.55512521494722       18.28530550089888       17.21406675540295
H            5.47860599112156       18.30275818354327       18.29844458619316
H            6.56921305761841       18.57541803512662       16.93729725839071
H            5.39308825406911       17.26154076692919       16.87549969240922
C            5.31146540817990       25.90889689789060       12.97814760514021
H            6.11993049324338       26.04974493157228       12.26077125776869
H            5.61394086066313       26.35670753245347       13.92475896954286
H            4.42937357007039       26.42657695547297       12.61458149710204
N            5.93341195820409       23.56324285597537       13.59828051300185
H            6.88600928759112       23.77314921579824       13.84751392548111
C            5.00483542765906       24.46645653640609       13.15099052585252
C            5.33755584731566       22.35058527810407       13.64176354306588
H            5.82661084050257       21.45145826136545       13.95475824603129
N            4.08971798303242       22.43117622966226       13.24979195094385
C            3.86767286817948       23.74047836265969       12.94108709647462
H            2.91228420277014       24.07178299917886       12.59098640328287
C            1.40944792175928       17.49109167084971       15.15932480509382
H            1.02402799964796       17.24870379933141       16.14773367721692
H            2.45235571312849       17.77887808484073       15.25350431446427
H            1.35143539482237       16.60535811855625       14.53111827060241
C            0.60468010131048       18.62306927628261       14.55094801814732
H            0.64162198389826       19.51475111601196       15.17442832801192
H           -0.43129676440868       18.32048898259496       14.39832164360783
S            1.27706181253482       19.06176180670527       12.89558460776916
C           -0.25917996904604       19.71340152500154       12.17111093490265
H           -0.61824811097406       20.54947973935865       12.76273022219863
H           -0.99729249303177       18.91651633758109       12.13122624500772
H           -0.02083882788479       20.04901181610294       11.16790632943198
