87
 energy: -128.410344289277 gnorm: 0.270084684292 xtb: 6.7.1 (edcfbbe)
Fe          37.30400000000000       25.35400000000000       34.12500000000000
N           37.10500000000000       23.55500000000000       34.96200000000000
N           36.37600000000000       24.67500000000000       32.45700000000000
N           37.55700000000000       27.14600000000000       33.27800000000000
N           38.15700000000000       26.01300000000000       35.75300000000000
C           37.60600000000000       23.14800000000000       36.16300000000000
C           37.30000000000000       21.67700000000000       36.39100000000000
C           36.56500000000000       21.27900000000000       35.28500000000000
C           36.51299999999999       22.43000000000000       34.43600000000000
C           35.84700000000000       23.43000000000000       32.26600000000000
C           35.27900000000000       23.29800000000000       30.96300000000000
C           35.45700000000000       24.53500000000000       30.37000000000000
C           36.14000000000000       25.35700000000000       31.33700000000000
C           37.21999999999999       27.48700000000000       32.01700000000000
C           37.65699999999999       28.87900000000000       31.76200000000000
C           38.25600000000000       29.30399999999999       32.86000000000000
C           38.15700000000000       28.24800000000000       33.82700000000000
C           38.61700000000000       27.30100000000000       36.02400000000000
C           39.17000000000000       27.35400000000000       37.39800000000000
C           39.12200000000000       26.12800000000000       37.90500000000000
C           38.50800000000000       25.26400000000000       36.93000000000000
C           38.22800000000000       23.95000000000000       37.07999999999999
H           38.52600000000000       23.48600000000000       38.02000000000000
C           35.85699999999999       22.37900000000000       33.15400000000000
H           35.34200000000000       21.46000000000000       32.87300000000000
C           36.55200000000000       26.67500000000000       31.12100000000000
H           36.32300000000000       27.10600000000000       30.14600000000000
C           38.63500000000000       28.35200000000000       35.12100000000000
H           39.04600000000000       29.30800000000000       35.44600000000000
C           35.97100000000000       19.92900000000000       35.00899999999999
H           36.20500000000000       19.24200000000000       35.85000000000000
H           36.40200000000000       19.51300000000000       34.07300000000000
H           34.86799999999999       20.01700000000000       34.91200000000000
C           37.75099999999999       20.91700000000000       37.57500000000000
H           37.07800000000000       21.13300000000000       38.43200000000000
H           38.78599999999999       21.22000000000000       37.84399999999999
H           37.71899999999999       19.82800000000000       37.35700000000000
C           34.62400000000000       22.10800000000000       30.45300000000000
H           33.58400000000000       22.06300000000000       30.84000000000000
H           35.17300000000000       21.20300000000000       30.79000000000000
H           34.59400000000000       22.14200000000000       29.34300000000000
C           35.14100000000000       24.89700000000000       28.96300000000000
H           35.85499999999999       25.55200000000000       28.44700000000000
C           34.11300000000000       24.53500000000000       28.24800000000000
H           33.34000000000000       23.87900000000000       28.67400000000000
H           34.00500000000000       24.88100000000000       27.20900000000000
C           37.54000000000000       29.51700000000000       30.35200000000000
H           36.55200000000000       30.01400000000000       30.25100000000000
H           37.62799999999999       28.72800000000000       29.57500000000000
H           38.34000000000000       30.27500000000000       30.21600000000000
C           38.83199999999999       30.65000000000000       33.12200000000000
H           39.62900000000000       30.73000000000000       33.87500000000000
C           38.49300000000000       31.73600000000000       32.55700000000000
H           37.70300000000000       31.74400000000000       31.79200000000000
H           38.98500000000000       32.68200000000000       32.82600000000000
C           39.71600000000000       28.63900000000000       38.01300000000000
H           38.97499999999999       29.45700000000000       37.88200000000000
H           40.66200000000000       28.92500000000000       37.50600000000000
H           39.89800000000000       28.48800000000000       39.09899999999999
C           39.57400000000000       25.63100000000000       39.24600000000000
H           38.68800000000000       25.36500000000000       39.86100000000000
H           40.14899999999999       26.42600000000000       39.76700000000000
H           40.20700000000000       24.72700000000000       39.11699999999999
C           31.86900000000000       25.87200000000000       35.52200000000000
H           31.32700000000000       26.65500000000000       34.94899999999999
H           31.60000000000000       25.96100000000000       36.59600000000000
H           31.57100000000000       24.87300000000000       35.13700000000000
N           34.00000000000000       27.22100000000000       35.73600000000000
H           33.55900000000000       27.99700000000000       36.18800000000000
C           33.35000000000000       26.06100000000000       35.35200000000000
C           35.29399999999999       27.13100000000000       35.40700000000000
H           36.01400000000000       27.92900000000000       35.58700000000000
N           35.55899999999999       25.95700000000000       34.84400000000000
C           34.37300000000000       25.23900000000000       34.82900000000000
H           34.34400000000000       24.22200000000000       34.45700000000000
C           41.63600000000000       22.45800000000000       32.01000000000000
H           42.55700000000000       22.43600000000000       32.63100000000000
H           41.92200000000000       22.60800000000000       30.94700000000000
H           41.10000000000000       21.49200000000000       32.12600000000000
N           41.10599999999999       24.93500000000000       32.46400000000000
H           41.96800000000000       25.31200000000000       32.12400000000000
C           40.75100000000000       23.58900000000000       32.46300000000000
C           40.07400000000000       25.61700000000000       33.00600000000000
H           40.09300000000000       26.70000000000000       33.12600000000000
N           39.04600000000000       24.82200000000000       33.37100000000000
C           39.51100000000000       23.53600000000000       32.99600000000000
H           38.87300000000000       22.67599999999999       33.15900000000000
87
 energy: -128.454957732972 gnorm: 0.105568434496 xtb: 6.7.1 (edcfbbe)
Fe          37.31602482225090       25.34975134335404       34.13460191750681
N           37.10022307666131       23.53260232326821       34.95561990459213
N           36.38088303264586       24.67857634786120       32.46631224282257
N           37.55296837303549       27.15087579732053       33.28206413502781
N           38.18706776832209       26.01395213411445       35.76920102022066
C           37.59305254287023       23.12787654478215       36.15555073034612
C           37.29971261347648       21.69693548136336       36.38076296792813
C           36.57603650631037       21.29134167951383       35.29103991598994
C           36.49070688077534       22.43305543188916       34.42580284019659
C           35.85219355943315       23.43578291153101       32.27326103644159
C           35.27587250215440       23.32096553459952       30.96237025748965
C           35.46598184443895       24.54152985331380       30.35730583586077
C           36.15697328152687       25.36338520829977       31.32859150360671
C           37.21884499833543       27.49163120994062       32.01176550978521
C           37.65720830700891       28.86212703885191       31.72994383375087
C           38.25035790450757       29.31067452339518       32.86243404364758
C           38.16026063385841       28.24200485824361       33.83102570196477
C           38.62207293656605       27.28893025540774       36.03360601628509
C           39.17412744628029       27.36881827422405       37.38545830832364
C           39.11776718416792       26.12542877278634       37.90238366120928
C           38.49730122278875       25.27455770083871       36.91748871924168
C           38.22471092694546       23.94028960235891       37.07550739374196
H           38.52557345633871       23.48430683483331       38.01366602924872
C           35.86202103616114       22.38917042053044       33.17179913477310
H           35.36205297659773       21.47050755406127       32.89009612405038
C           36.55499552751803       26.67929243837365       31.11202836035117
H           36.31921431427038       27.10542418417932       30.14469203409917
C           38.62935235618512       28.33791632974921       35.12983075301198
H           39.04107901769049       29.28885724440399       35.44920198059194
C           35.98277723765067       19.94381865262267       35.01471629963357
H           36.20149259487965       19.25301033924790       35.83528286179433
H           36.39019870421468       19.51883691685518       34.08884312138841
H           34.89264156343513       20.01353339212421       34.91163108864757
C           37.74569528957151       20.92633908748667       37.56959640913180
H           37.09190053974684       21.12622322031987       38.42872883310550
H           38.76844124480333       21.20693991161105       37.84561593371736
H           37.72231047596914       19.84919226228139       37.36716316583033
C           34.62052475006800       22.10826715256518       30.44442508447928
H           33.59121214916092       22.04818207131051       30.82312696275640
H           35.15560402767796       21.20859384409521       30.77086124698802
H           34.58991088326359       22.12754238006707       29.35088672728540
C           35.15280123429861       24.90853916252521       28.97397977875999
H           35.86873498109188       25.56129819324616       28.47538318682226
C           34.10846915619399       24.52993348435577       28.25268765934086
H           33.33381473729728       23.89329778546042       28.66345580315874
H           33.99435398544618       24.86116642988017       27.22568146236111
C           37.53907030449101       29.50906667161076       30.36534695243062
H           36.56625858173250       30.00211806013483       30.25362169442983
H           37.62983137952337       28.74512316505759       29.58847768467005
H           38.32665454426493       30.25584962058256       30.22302393755828
C           38.83784724797767       30.62855734812965       33.12881072526084
H           39.62395137756879       30.68963093118285       33.88176148379814
C           38.48727329189389       31.75400045619069       32.54201715999920
H           37.70108813822832       31.77571332825580       31.79823592420197
H           38.96770296389688       32.68941666914812       32.80408009410707
C           39.70969825411733       28.63268238115667       38.00337744930067
H           38.98839379716551       29.44818180772018       37.88390775408940
H           40.64734682163371       28.92430628287771       37.51711398427148
H           39.89628422638942       28.49245264162320       39.07319101683286
C           39.56972011517945       25.63373452379056       39.24105722458805
H           38.70390576242492       25.36546323751237       39.85824193581677
H           40.14251817037999       26.40628540717465       39.76322742493104
H           40.19890586412969       24.74433884433524       39.12662266544920
C           31.88847206362700       25.86991909828931       35.52201377599199
H           31.34011803733070       26.63796353645825       34.96074523097131
H           31.60264608752530       25.95400043077516       36.57739303167556
H           31.58302612710725       24.88975289198882       35.14770055357265
N           33.99276861553618       27.21626514799827       35.72604589928068
H           33.54850266963838       27.99740001477226       36.17809131572140
C           33.36226347744403       26.05225951028045       35.35490589825255
C           35.29439864602234       27.11948308354336       35.40444374538296
H           36.00948135052506       27.90644100144952       35.58007502070917
N           35.55565159982535       25.94929240150227       34.85739480260836
C           34.36702057324067       25.26176801581598       34.82895258692341
H           34.33350836764966       24.25377691964151       34.45644137834778
C           41.63327168269090       22.47367098768031       32.01100827655588
H           42.54598377431552       22.43681778843574       32.61770060960060
H           41.92018683491041       22.60337508252631       30.96143083754304
H           41.10921019959036       21.52035739172049       32.12068373892252
N           41.09955260409020       24.92192272832873       32.46973958703953
H           41.96471802751519       25.30370504294734       32.12769159300892
C           40.74519650527049       23.58590450390706       32.46894200846057
C           40.07069977222773       25.60877965538943       33.00871052275459
H           40.08680174850659       26.68004987418831       33.12984937362206
N           39.06623618698594       24.81734019692099       33.35305279139171
C           39.50056821749718       23.54167836288144       33.00526481623225
H           38.86674538603887       22.68987283663127       33.16712995638804
87
 energy: -128.464578617176 gnorm: 0.021005362326 xtb: 6.7.1 (edcfbbe)
Fe          37.31408979208004       25.34706926347702       34.13175809530389
N           37.09702758128187       23.52248346633162       34.95801780237188
N           36.38661926746085       24.67905710384622       32.46621657557007
N           37.55218557939372       27.15375597829398       33.28104950603498
N           38.20639752318866       26.00722373055399       35.78011565987435
C           37.58915932583838       23.11656498140300       36.15460837461209
C           37.30022008528181       21.71623111015804       36.37889146962250
C           36.58260770449673       21.30024126696943       35.30072885144616
C           36.47833326175517       22.43859796177195       34.42013003191433
C           35.85047309556701       23.44276771220313       32.27548404976896
C           35.26737505831552       23.33748053706212       30.96192989496120
C           35.47263722062681       24.54535730346254       30.34724458013864
C           36.17597549054349       25.36747487008667       31.31776095008336
C           37.22501658565076       27.49432791482202       32.00495481404000
C           37.65246042512234       28.84774263468747       31.71380211467195
C           38.23521442076811       29.31995818028816       32.86344200720034
C           38.16006260536054       28.23835605568597       33.82864713967670
C           38.63235548749864       27.27159857923212       36.03522737273987
C           39.17721443293635       27.37198076031479       37.37375876622631
C           39.11172713214595       26.12022046611571       37.90010817253336
C           38.49412617482928       25.28111248331421       36.89968524281959
C           38.23080371509515       23.93515114815322       37.06923865383247
H           38.52959726029434       23.48846641256066       38.00725004226131
C           35.86531497540548       22.39991401371654       33.18515262019620
H           35.37952760963540       21.47864296236545       32.90133315406631
C           36.56391347218940       26.67974748802531       31.10024840749340
H           36.31919155638127       27.10499224510896       30.13871352871836
C           38.62536052558962       28.32191192738087       35.13117377259447
H           39.03301001324993       29.26865409511690       35.45399876966076
C           35.99323625085353       19.95528063590195       35.02169830256550
H           36.20668785951209       19.26513227388676       35.83321011984881
H           36.39297567550736       19.53369268348098       34.09921378955505
H           34.91038731357592       20.02410619420823       34.91381553376860
C           37.74177796437824       20.93457864571595       37.56904131315945
H           37.09595220643531       21.13083547575103       38.42589737786479
H           38.75968944812600       21.20214202782856       37.84490845055436
H           37.71571147542357       19.86613909132303       37.36526798808998
C           34.61595010271925       22.10892398272428       30.43409507052403
H           33.59154606059131       22.03813678490705       30.80444417179169
H           35.14965145901311       21.21641076701670       30.75563015184649
H           34.59056406602689       22.12524555407978       29.34875103908968
C           35.16195820113214       24.92186935291384       28.98495624202380
H           35.87672378672535       25.58212938652884       28.50554737952411
C           34.11187420381616       24.52972374265347       28.26595258963181
H           33.33403455392751       23.90724238179426       28.66897958446945
H           33.99129502759373       24.84705626621254       27.24414472290630
C           37.53935647908121       29.49671005715017       30.37936514238299
H           36.57431856266112       29.99039158077154       30.26387070109894
H           37.63221512075259       28.75390064460613       29.59086629453017
H           38.32072427071282       30.24107162612061       30.24546328646379
C           38.82868248153720       30.61419537923963       33.12663944612470
H           39.60815588476547       30.65236451308764       33.87896494841573
C           38.48023249129970       31.75560953266457       32.53532725528247
H           37.69442998899686       31.79648239601852       31.80587553957676
H           38.96431471431001       32.68239388603114       32.78720843780850
C           39.70553288840151       28.62361271447204       37.99114154070951
H           38.99364159385412       29.43888993600372       37.87761329559154
H           40.64023783941318       28.92286191714634       37.51750606758898
H           39.89264846561429       28.48372298592212       39.05249515968137
C           39.56420247375881       25.63605838897008       39.23787088001262
H           38.70867872187249       25.36480027337987       39.85591802270219
H           40.13454908419158       26.40093182298714       39.75710752978163
H           40.19440739498426       24.75549324429980       39.12944238487922
C           31.90145543393082       25.86559881668584       35.52203145127397
H           31.35667021872184       26.62751205723047       34.96361713717409
H           31.61380644517473       25.94726222132687       36.56968069966199
H           31.60249016371500       24.89101292200703       35.15378346067065
N           33.98422790626693       27.21946038036127       35.71992856679510
H           33.53822300309389       28.00594747831239       36.16463328058679
C           33.36743001332782       26.05038411614682       35.35707837171014
C           35.29328179920682       27.11097067941920       35.40982735163912
H           36.00912034133724       27.88812981284085       35.57981646965084
N           35.54711811411853       25.94362550232438       34.87094419756903
C           34.35911885889106       25.27322876151407       34.83652833903634
H           34.31559283709434       24.27550563197889       34.45061853989913
C           41.63110874197127       22.48460073083857       32.01077467813268
H           42.54022645831170       22.44567004218349       32.60972414929465
H           41.91468850991049       22.61431793631934       30.96817218679012
H           41.11122353979949       21.53806946349243       32.11462877534929
N           41.09872951141607       24.90563043428013       32.47777746264963
H           41.96508461272361       25.28845773756643       32.13430674481761
C           40.74097474523066       23.58010520233368       32.47601901419944
C           40.07066339782719       25.60017038758815       33.01224286734477
H           40.08370384020883       26.66387911142436       33.13385040632119
N           39.08400522898414       24.80944155818585       33.34752070809428
C           39.48952829601517       23.54575419818035       33.01376060917951
H           38.85618649317482       22.70004601915269       33.17683435188084
87
 energy: -128.465548859127 gnorm: 0.010731405128 xtb: 6.7.1 (edcfbbe)
Fe          37.31039483139838       25.34449070584910       34.12781073156742
N           37.09642698579484       23.52579092982287       34.96422685527495
N           36.38914417397027       24.67730160177513       32.46551413423501
N           37.55010626979570       27.14931279349707       33.27774208234349
N           38.21742230396844       26.00057183580012       35.77704755217454
C           37.58959354572112       23.11904704412977       36.16002480507397
C           37.29990902219865       21.72072556319125       36.38450417417105
C           36.58292250797833       21.30308207412814       35.30719183539878
C           36.47658861967163       22.44313453859250       34.42483179284012
C           35.84663657293631       23.44515171614034       32.27528030777436
C           35.26224916165060       23.34065534278727       30.96207256186939
C           35.47662348455743       24.54577497097318       30.34654183875525
C           36.18506903913600       25.36561835394551       31.31478669958042
C           37.22712672510959       27.48997237750503       32.00067354630916
C           37.64555702697500       28.83987406587732       31.71198497315832
C           38.22163312238848       29.31956770345016       32.86317933306050
C           38.15195045244347       28.23555431166846       33.82584153840620
C           38.63857118411937       27.26614410824593       36.03006391075341
C           39.18311093356184       27.36828068910093       37.36690357715708
C           39.11364730338524       26.11791897377990       37.89902095092542
C           38.49721513380747       25.28037393090519       36.89570624866639
C           38.23521852041232       23.93483948519257       37.07176847023909
H           38.53800537366580       23.48940672534917       38.00789243351264
C           35.86424008437839       22.40371422634051       33.18837145133801
H           35.38454418891361       21.47974246677725       32.90296597587449
C           36.57076805639130       26.67444826561527       31.09310444948096
H           36.32618562520344       27.09986214769960       30.13119823806769
C           38.61999937358842       28.31640802809786       35.12742670894163
H           39.02482787394246       29.26219279037061       35.45470573008855
C           35.99855705825447       19.95921895744672       35.02587470613533
H           36.21313724738945       19.26832931913403       35.83685212041395
H           36.40228704267103       19.54387128851490       34.10229591371721
H           34.91609127281293       20.03007971481225       34.91641163328246
C           37.73793932661806       20.93753872704814       37.57533896501262
H           37.09374040928211       21.13968156714024       38.43195848081531
H           38.75843293702951       21.19880721231528       37.84924966343359
H           37.70341801937320       19.87021423641844       37.36830152174167
C           34.61446690187096       22.11176965405169       30.42376304102207
H           33.58704096324876       22.03330566631836       30.78456602408155
H           35.15076986228802       21.21994522680268       30.74315218688548
H           34.59724902501207       22.13393975497341       29.33735913015133
C           35.16532358243990       24.93390662119859       28.99026918028975
H           35.87740370861443       25.60541490483443       28.52183993680572
C           34.11361589995241       24.53967109201680       28.27624569545090
H           33.33656429563631       23.91731667290156       28.68254170446243
H           33.98639238692385       24.85261821492361       27.25342039130027
C           37.53641655182527       29.49637893775980       30.38131589379770
H           36.57032549372992       29.98996160524746       30.26543741017300
H           37.63534830240656       28.76187871204881       29.58378728762987
H           38.31879999996379       30.24347671822780       30.26197673202586
C           38.81706467382799       30.60943175528240       33.12290585250108
H           39.59706061046217       30.63203446057630       33.87560205072806
C           38.47613393503092       31.75462263979468       32.53288476374281
H           37.67852861723802       31.81066183284807       31.81437627431335
H           38.97191622395492       32.67869537987638       32.77682023058820
C           39.70785567165763       28.62095378014933       37.98187699961176
H           38.99342824036766       29.43525271478164       37.86844907769172
H           40.64243413427985       28.92367862892376       37.50826052198681
H           39.89478079312468       28.47815497145735       39.04325828180313
C           39.56124476197278       25.63815646765029       39.23875878079016
H           38.70525709159561       25.36454848917893       39.85611694611720
H           40.12790506642528       26.40708247143539       39.75699033096378
H           40.19577823119408       24.75923402125219       39.13407504919331
C           31.90318811875378       25.86064074305274       35.52515801759608
H           31.35440983828406       26.61865021740063       34.96593956874072
H           31.61840237669021       25.93930514945125       36.57395892196176
H           31.61484930130343       24.88180904157731       35.15749669191909
N           33.98218485565281       27.22504108048637       35.71732549689624
H           33.53589618337688       28.01495663855361       36.15470185081462
C           33.36565907241570       26.05508885850110       35.35604743347336
C           35.29334705364755       27.10967102458405       35.41176584672301
H           36.01420079705299       27.88147338137677       35.58363621976954
N           35.54417204964003       25.94182205350792       34.87365105949826
C           34.35480594707702       25.27531060169263       34.83321122043244
H           34.30246314609602       24.28194671001258       34.43779754911677
C           41.63151761006667       22.48422336349783       32.00643571491674
H           42.54330284247887       22.44670288904338       32.60216608068760
H           41.91071519094666       22.62713331686362       30.96373250504104
H           41.11492187169984       21.53467177955607       32.10311764412950
N           41.10398809370795       24.89390619882577       32.48765701297768
H           41.97249188359691       25.27296502043071       32.14694964738290
C           40.74040535911168       23.57219184215422       32.48203100093264
C           40.07667121883641       25.59421318552094       33.01860695351709
H           40.09121592460747       26.65699159833528       33.14366121465077
N           39.08595207074982       24.80381845370271       33.34511516716811
C           39.48632426551126       23.54102661756883       33.01899192848006
H           38.84951909315703       22.69765005035406       33.18312956747649
87
 energy: -128.466043481061 gnorm: 0.005378465007 xtb: 6.7.1 (edcfbbe)
Fe          37.30836925246173       25.34078038351281       34.12358181908150
N           37.09605785335321       23.53048437606466       34.96958307383867
N           36.39065485324179       24.67459366306709       32.46713727377358
N           37.54850131731288       27.14267612619150       33.27355133932866
N           38.22262051943367       25.99604152690804       35.77536840760246
C           37.58971146100374       23.12360690151931       36.16577385016833
C           37.29831759722987       21.72476738848523       36.39079905434374
C           36.58225462824529       21.30620741303630       35.31324694313273
C           36.47680522269448       22.44760451258301       34.42955872868386
C           35.84221884753389       23.44608847172805       32.27616542936240
C           35.25686805103383       23.34236278526385       30.96335098078852
C           35.48064953231099       24.54535440317664       30.34750656151005
C           36.19281827945751       25.36225945475332       31.31433788930457
C           37.22814413195472       27.48466172361569       31.99628045503719
C           37.63555986470411       28.83343557140359       31.71160406100440
C           38.20320570232798       29.31977946799444       32.86404995891770
C           38.14147670564266       28.23283004405615       33.82288624714386
C           38.64562885641033       27.26255021313143       36.02393895806923
C           39.19023046067502       27.36540426840717       37.35996041514952
C           39.11692077208561       26.11757923455209       37.89777230243165
C           38.50166534527266       25.27943888507390       36.89304308200960
C           38.24094739713559       23.93465693598511       37.07521440621374
H           38.54747554430789       23.49007457938648       38.00987564475786
C           35.86349489074249       22.40603183253637       33.19186384643993
H           35.38708944758617       21.48010078524688       32.90671376133397
C           36.57785810393882       26.66732205658569       31.08589457810515
H           36.33896853159326       27.09158668748922       30.12185271678301
C           38.61500371105519       28.31192137789003       35.12236817681282
H           39.01455818604275       29.25830246922661       35.45474016794228
C           36.00339797190199       19.96251079031758       35.02924202592207
H           36.21910172509160       19.27029038837166       35.83946750803895