87
 energy: -128.467864596932 gnorm: 0.000082779570 xtb: 6.7.1 (edcfbbe)
Fe          37.35669861323881       25.33173067517464       34.09092311939117
N           37.10392110614277       23.54202386533799       34.95461932502332
N           36.46007784240586       24.65921030415767       32.42794730878171
N           37.61725445579813       27.12872449279296       33.23185947320969
N           38.25121174079256       26.00448261067935       35.75572324023824
C           37.48653447332757       23.17621312089635       36.20373844075498
C           37.13018493950825       21.79788859480130       36.46545518192357
C           36.52011444916738       21.34100896879054       35.33996427330018
C           36.51408561008385       22.44703129748232       34.40632514579907
C           35.95520750773132       23.41399194747997       32.21768341736877
C           35.37416070578905       23.31014478095022       30.90352808772579
C           35.53565318837277       24.53643124831681       30.31468074887582
C           36.22828645017851       25.35910467767708       31.28954560179896
C           37.22657419839082       27.49509843216437       31.98125630179932
C           37.57398570350408       28.86705280782633       31.71712033716574
C           38.18937415618910       29.33416530347463       32.84989175547614
C           38.20893526147422       28.22075989678481       33.77861889217756
C           38.74944976386397       27.25071601801214       35.96984477377038
C           39.31276083989651       27.35561377245387       37.29783105591411
C           39.14272047478882       26.13804611700336       37.87982580775951
C           38.47694182628968       25.30857598074561       36.89974956302933
C           38.12690873727692       23.98972726349677       37.11944140611689
H           38.37072715331869       23.56306577727937       38.08072397004820
C           35.97559001279249       22.37538845368731       33.13574693309257
H           35.52908254632626       21.43811278563027       32.83837168033367
C           36.57067741470156       26.67941609481795       31.07527308393793
H           36.29817572503041       27.11573488837562       30.12617883514481
C           38.73222717130222       28.29157896060575       35.05857390842760
H           39.15732498024143       29.23281780190549       35.37440787605127
C           35.95141357654596       19.99302834213456       35.05259940172073
H           36.07084882177424       19.33231657519493       35.90786889936539
H           36.45213130048244       19.53879677423846       34.19686146702225
H           34.88809898380919       20.06535113633044       34.82179198888645
C           37.40928040172913       21.08424319574129       37.74403025823710
H           36.91791730688556       21.58597459465807       38.57811616247306
H           38.48059350977334       21.06447744195133       37.94590162668767
H           37.05011845225003       20.05866165683096       37.70221039533885
C           34.79103234425049       22.07128688035424       30.31693894288027
H           33.75615219816324       21.93689679870791       30.63702129680021
H           35.35579127211293       21.19337952165889       30.62775865610787
H           34.80853694120762       22.12914520546457       29.23036943720400
C           35.15039373239848       24.97158871087176       28.99124654497327
H           35.80734664703210       25.69906431852965       28.52812583620683
C           34.07590599573907       24.56227970393706       28.32371240391561
H           33.36181311585216       23.87941704308099       28.74971514210358
H           33.85895578643832       24.92060262100483       27.33082062006893
C           37.35824812363204       29.57488681733157       30.42468298388700
H           36.33826974393942       29.95695716714837       30.35449437476710
H           37.52319239092702       28.90154327921887       29.58488244654301
H           38.04599202809152       30.41393784659883       30.33812892561367
C           38.74961239956200       30.63963224716122       33.11637392401061
H           39.61609718726861       30.65321812560364       33.76834135647751
C           38.28773246170677       31.79334677866834       32.64337231956565
H           37.40405150742471       31.84965330606516       32.03223548263180
H           38.76824969097670       32.72980366807005       32.87450963036687
C           39.94180406042292       28.58899474378072       37.85182894880569
H           39.23084029969960       29.41589484527731       37.85516027515887
H           40.80122075115583       28.88695827687863       37.25002943327142
H           40.28035273777427       28.42576216211590       38.87215380792283
C           39.53549250296454       25.68091701537405       39.24327242651027
H           38.65909798664796       25.36040436953569       39.80724575146095
H           40.02387814391833       26.48065599330424       39.79513272464800
H           40.22335195220881       24.83721605727383       39.18129189832662
C           31.97692668396904       25.72995018653423       35.59574065558370
H           31.35573907142893       26.45068488116266       35.06380966351625
H           31.74153756215910       25.79568401256302       36.65808508600590
H           31.72966816471886       24.73268694844619       35.24550859289279
N           34.01547963011232       27.18073953961843       35.70549625387223
H           33.55916738497241       27.96473889149416       36.14213159526977
C           33.41790142947331       25.99747953739118       35.35647911032017
C           35.31831604787866       27.10039792564386       35.35313558631656
H           36.03018770203617       27.88496492161789       35.50662309247802
N           35.58177576983155       25.94090209029455       34.80358212213638
C           34.41011186150241       25.24361888590729       34.79878438006278
H           34.35981490237946       24.25303747781543       34.39707289762672
C           41.58140547136124       22.49255168271074       31.75454928053104
H           42.40347496748787       22.17778177035527       32.39754047323242
H           42.00325478728750       22.87762119192603       30.82608756352913
H           40.96807906158740       21.62682831009931       31.52499118379141
N           41.26200646062867       24.73056300975931       32.83268794452190
H           42.21599158662247       25.03300720378031       32.72323949979824
C           40.75165169847195       23.52519273451874       32.42564321333253
C           40.25403131222740       25.43035434625211       33.40060884152268
H           40.36292659955450       26.41302719536290       33.81070238768096
N           39.13906182779674       24.74325332080164       33.37825021273622
C           39.43225360975874       23.55612965344285       32.77514147250047
H           38.67957500405647       22.80865412361165       32.63403355634799
