72
 energy: -105.882457002984 gnorm: 0.280032969969 xtb: 6.7.1 (edcfbbe)
Fe          20.04000000000000       40.66599999999999       13.14900000000000
N           21.05700000000000       38.89699999999999       13.00200000000000
N           18.37400000000000       39.65400000000000       13.94400000000000
N           18.88500000000000       42.32300000000000       13.08900000000000
N           21.52800000000000       41.57100000000000       12.09800000000000
C           22.38600000000000       38.76400000000000       12.64900000000000
C           22.77800000000000       37.40500000000000       12.89900000000000
C           21.73300000000000       36.72700000000000       13.39400000000000
C           20.61400000000000       37.64900000000000       13.45500000000000
C           18.32500000000000       38.29799999999999       14.21900000000000
C           17.08900000000000       38.01300000000000       14.89000000000000
C           16.43200000000000       39.17899999999999       15.00800000000000
C           17.22900000000000       40.20500000000000       14.38200000000000
C           17.63500000000000       42.49400000000000       13.67900000000000
C           17.23300000000000       43.87000000000000       13.49500000000000
C           18.21200000000000       44.48400000000000       12.77100000000000
C           19.26000000000000       43.53100000000000       12.52300000000000
C           21.44800000000000       42.87200000000000       11.62200000000000
C           22.65700000000000       43.18200000000000       10.88700000000000
C           23.52000000000000       41.92400000000000       11.00100000000000
C           22.74100000000000       40.98300000000000       11.75300000000000
C           23.18100000000000       39.74400000000000       12.11200000000000
H           24.23600000000000       39.51700000000000       11.96200000000000
C           19.32800000000000       37.37400000000000       13.90800000000000
H           19.07400000000000       36.32200000000000       14.03500000000000
C           16.93000000000000       41.53500000000000       14.31400000000000
H           16.02400000000000       41.85699999999999       14.82800000000000
C           20.40700000000000       43.74100000000000       11.81200000000000
H           20.50600000000000       44.71800000000000       11.33900000000000
C           21.68800000000000       35.20800000000000       13.80000000000000
H           22.72200000000000       34.83700000000000       13.96500000000000
H           21.21900000000000       34.61600000000000       12.98600000000000
H           21.10800000000000       35.08799999999999       14.74000000000000
C           24.22100000000000       36.86100000000000       12.71800000000000
H           24.78300000000000       36.97700000000000       13.66900000000000
H           24.74100000000000       37.43400000000000       11.92100000000000
H           24.18500000000000       35.78400000000000       12.45000000000000
C           16.68700000000000       36.58700000000000       15.35100000000000
H           17.33400000000000       36.27500000000000       16.19900000000000
H           16.82100000000000       35.87000000000000       14.51300000000000
H           15.62800000000000       36.58600000000000       15.68600000000000
C           15.03800000000000       39.50000000000000       15.60700000000000
H           14.41200000000000       40.24900000000000       15.10100000000000
C           14.52100000000000       38.93600000000000       16.70400000000000
H           15.08900000000000       38.17800000000000       17.26300000000000
H           13.52100000000000       39.22299999999999       17.06100000000000
C           15.91100000000000       44.44800000000000       14.06400000000000
H           15.73500000000000       44.03900000000000       15.08200000000000
H           15.06200000000000       44.15999999999999       13.40800000000000
H           15.98200000000000       45.55499999999999       14.12800000000000
C           18.29800000000000       45.95100000000000       12.31000000000000
H           19.27300000000000       46.45000000000000       12.20500000000000
C           17.18100000000000       46.64899999999999       12.02700000000000
H           16.19100000000000       46.17999999999999       12.12100000000000
H           17.24600000000000       47.69700000000000       11.69800000000000
C           23.03400000000000       44.48699999999999       10.17900000000000
H           23.05600000000000       45.31699999999999       10.91800000000000
H           22.28100000000000       44.72100000000000        9.39700000000000
H           24.04100000000000       44.38700000000000        9.71900000000000
C           24.92600000000000       41.69200000000000       10.39200000000000
H           25.69900000000000       41.84400000000000       11.17500000000000
H           25.10200000000000       42.41500000000000        9.56700000000000
H           25.00200000000000       40.65199999999999       10.00800000000000
O           19.21100000000000       39.78999999999999       11.07500000000000
H           19.65400000000000       38.95100000000000       10.94700000000000
H           18.61500000000000       40.15900000000000       10.52800000000000
C           22.07300000000000       40.39600000000000       15.73900000000000
H           22.19900000000000       40.45600000000000       16.84100000000000
H           23.01700000000000       40.74200000000000       15.26600000000000
H           21.90200000000000       39.33200000000000       15.47100000000000
S           20.70400000000000       41.39800000000000       15.18800000000000
H           19.77100000000000       40.62100000000000       15.71900000000000
72
 energy: -105.945954189530 gnorm: 0.117588049652 xtb: 6.7.1 (edcfbbe)
Fe          19.99742903966597       40.64682595612054       13.07757355664233
N           21.06203954609476       38.89882352595670       13.03468018937751
N           18.39185832376288       39.64533899212582       13.95662091121057
N           18.88508239809664       42.32573562527270       13.07776768654634
N           21.51943329253265       41.56886687527965       12.10357383590516
C           22.37881706519494       38.75916879120415       12.66675809146847
C           22.79500991401596       37.39621642525223       12.91011315699078
C           21.72488435496724       36.71142946955428       13.38858942081886
C           20.62036871828902       37.65642045729358       13.45534020704429
C           18.32694625544045       38.29944210915477       14.21550846276569
C           17.08098431146315       37.99985985953040       14.88907033547377
C           16.40441734473088       39.17829061035040       15.01331365569970
C           17.23845559852820       40.19621297279274       14.40101613562836
C           17.65675853846426       42.51398487062067       13.67409708929183
C           17.23392322560600       43.88778847517573       13.49400283650273
C           18.21528336069568       44.50933129965451       12.77026033659656
C           19.25458797000871       43.52599279687920       12.52342763083778
C           21.47324713735273       42.84904611277715       11.61363297226218
C           22.69095452101291       43.14411250442819       10.88919103745257
C           23.50246841278764       41.96910224335110       10.99395787273836
C           22.73361418946537       41.02368732050433       11.75961795065085
C           23.16919765138060       39.75424463225129       12.11570016112696
H           24.21564014927741       39.51919919715533       11.94532323379056
C           19.33293916506580       37.38173349361505       13.90761777575208
H           19.08771251390203       36.33433132744674       14.05610498092608
C           16.93155679956793       41.54104468952592       14.32050315151391
H           16.01726921918691       41.85654004213358       14.81199558220918
C           20.41848336175892       43.73511033569896       11.80753379529142
H           20.51914556488131       44.71234599047436       11.34539636637611
C           21.68430110595560       35.23627736784109       13.79352736618189
H           22.69878556651695       34.85641614743690       13.96046601134462
H           21.22259631715777       34.63525259032284       13.00094721225354
H           21.11380861876199       35.09921188834296       14.71852711978168
C           24.20630832338339       36.86688818849957       12.71941248215313
H           24.77191393648966       36.97612224374421       13.65327825195985
H           24.72927979138430       37.42072515850238       11.93368233713467
H           24.18443047357039       35.80596865068169       12.45107558077127
C           16.68987431772928       36.60589487148453       15.34570852386893
H           17.32400226986001       36.28579306794730       16.18268837866853
H           16.81723865291287       35.88796566755757       14.52717730566814
H           15.64608831625368       36.58958712430703       15.67401751974047
C           15.05619964517453       39.48294764038072       15.60061633828902
H           14.45194358819498       40.23606937314870       15.09231059040246
C           14.53619247392559       38.92987652328816       16.69217844050989
H           15.08190946706994       38.18872437664951       17.26413351983060
H           13.54943281924480       39.21368407508047       17.05144712427143
C           15.93450647950949       44.44161654002048       14.05680858621608
H           15.74572629362220       44.04245705517700       15.06069548760980
H           15.08501878495622       44.16555957503090       13.41790394202965
H           15.98506387608042       45.53267667701491       14.12824705011946
C           18.27791607047091       45.93155713634941       12.31735046794259
H           19.25348375970887       46.40886214757086       12.21422945272737
C           17.18626138778533       46.63957023753464       12.03051076630395
H           16.20238973501219       46.19462754205601       12.10328315353183
H           17.24768620011625       47.67486262815822       11.70588736254921
C           23.03188597538922       44.44922635785993       10.19672903902224
H           23.05378787170617       45.28755744397176       10.90874887153021
H           22.29656778286773       44.70209558602212        9.41901950219138
H           24.02007385266450       44.38457276220173        9.72834817331336
C           24.88647092901932       41.70999460731691       10.40638141228540
H           25.67197098988218       41.84661698983572       11.16411722251751
H           25.09241969401380       42.40283391481244        9.58342961995636
H           24.98162832041315       40.68477547071428       10.02084818183284
O           19.22981339859120       39.79845430798871       11.09670730557472
H           19.64862263518185       38.95332281293879       10.94329447742535
H           18.59727531062147       40.16404230258773       10.50654988195857
C           22.08501020264669       40.38054836785376       15.74833554474553
H           22.19870856324986       40.45983997527045       16.83570743659829
H           23.00162261863751       40.73765004291255       15.26788662053658
H           21.91390787574104       39.33645306830805       15.47153742558690
S           20.70611818230821       41.38271701655095       15.17179403585551
H           19.76924958302145       40.62687747714579       15.74116645831810
72
 energy: -105.964651068067 gnorm: 0.044550864567 xtb: 6.7.1 (edcfbbe)
Fe          19.98118524050945       40.63067168112428       13.06291392594910
N           21.05792443699912       38.89948431584446       13.04744716149470
N           18.40545140527247       39.64082826433568       13.95012674777700
N           18.88207712252177       42.31823826988450       13.05224867264460
N           21.49978824086853       41.56044487145022       12.09853910169466
C           22.36722354621923       38.76296793571655       12.68659832206087
C           22.80294759670587       37.39883214081382       12.92023032165856
C           21.71683372415636       36.71086859633778       13.38590885385550
C           20.62442575138336       37.66934752093576       13.45811187951988
C           18.33343841156518       38.30656862006964       14.21026394654422
C           17.08456263808638       37.99600606518366       14.88576874718036
C           16.39885754275766       39.18174559116017       15.01656383258217
C           17.25060663891831       40.19292475543845       14.40450699505418
C           17.67658902630630       42.51814074150101       13.65933816521666
C           17.24078098397982       43.88935123604163       13.49101307141212
C           18.22131719630896       44.51774991418286       12.76283327795437
C           19.25168044889652       43.51154482574652       12.51379109330238
C           21.47947745985671       42.82734983948084       11.60608859365749
C           22.71492199485701       43.10913817951393       10.89566445571199
C           23.47884300600560       42.00441589041105       10.99544839466464
C           22.71369014991475       41.04455451069804       11.76498043795413
C           23.14823043993051       39.76490444566966       12.12107074206879
H           24.18461984698603       39.52244541580500       11.91999219557115
C           19.34126381305190       37.39018910099026       13.91808725141268
H           19.10901483212513       36.34685711919191       14.09516851975619
C           16.93683455924139       41.54235542971976       14.31521095848696
H           16.01534647825492       41.85435494359642       14.78623703645720
C           20.42678571931739       43.72678514733884       11.80146649822993
H           20.53843208120204       44.70748310140492       11.35770495159633
C           21.67462978779696       35.27050482281594       13.78404689478894
H           22.67988143706651       34.88900158737287       13.95189304940079
H           21.21529969958427       34.65929082563376       13.00620440544497
H           21.10899067097578       35.12495066723752       14.70151742500956
C           24.18787835117796       36.87648432799675       12.72250719750906
H           24.76287353906226       36.97962853158608       13.64392150844093
H           24.71105174710977       37.41838653617981       11.94059697080753
H           24.17381513072953       35.82358611993811       12.45291587807448
C           16.69331060425384       36.62791841853874       15.33432141666987
H           17.31803349057780       36.30367417208251       16.16777630450295
H           16.81749173749461       35.90473813541844       14.52959144211769
H           15.65711689750040       36.60539435416560       15.65846300104968
C           15.09168019793639       39.46771031244796       15.58924525092148
H           14.50516230387879       40.22217497111204       15.07328561382603
C           14.56195717931488       38.92071615699954       16.67780868787126
H           15.08609060163060       38.18994805460424       17.26664110462028
H           13.58228039841526       39.20206573173034       17.03326335059485
C           15.96550639528197       44.43386611727689       14.05034054535519
H           15.77013420681937       44.03508770471764       15.04443679123613
H           15.11602474648806       44.16671877164080       13.41853646511112
H           16.00373603827369       45.51701306791773       14.12632703535283
C           18.26494387690970       45.89987124916712       12.32306756597319
H           19.24406862867253       46.35634604807066       12.22510406731688
C           17.19113594107973       46.62659981425375       12.03121094429931
H           16.20350073370263       46.20713568296059       12.07916696909897
H           17.25721839122848       47.65458371829428       11.71509167422010
C           23.03127671077332       44.40948888925703       10.21410461337609
H           23.04561348020962       45.24216240164150       10.92095039224639
H           22.29688776365778       44.66006885578891        9.44507125774622
H           24.00886041406626       44.36702353923144        9.73930538292720
C           24.84343809109023       41.73320088108364       10.42405636636163
H           25.62904255373515       41.85798978847895       11.17415214728084
H           25.06726038482530       42.40884186290211        9.60118159730162
H           24.93133059327143       40.71456396228410       10.04143485084887
O           19.25549181721756       39.83539302404890       11.11341446132809
H           19.62485321751130       38.96732590750091       10.93693838195635
H           18.58798838912330       40.15915934609728       10.50468703340910
C           22.09981400808412       40.36321382116847       15.75627387431022
H           22.19878816200052       40.46064710130539       16.83300828273352
H           22.99417674097275       40.73466104265526       15.26793400915375
H           21.92842619753257       39.33230851813678       15.47298915749683
S           20.70991939419212       41.38023700710598       15.17922993246798
H           19.76586901657599       40.64076968156567       15.76966254797219
72
 energy: -105.970253498740 gnorm: 0.024155028002 xtb: 6.7.1 (edcfbbe)
Fe          19.97034008069721       40.62455798599373       13.04436165651216
N           21.05632681675354       38.90924724777685       13.06988358486851
N           18.42147964051835       39.64220536658493       13.94641706432524
N           18.88014875277446       42.31047464211695       13.03204636497584
N           21.48706667944665       41.55941059342799       12.09965124058660
C           22.36058148313911       38.77167254032541       12.70489163600097
C           22.79934585666391       37.41024568993905       12.93056644608271
C           21.71384733969106       36.72386762571342       13.39353634371298
C           20.62728212044340       37.68003555312541       13.47306782630523
C           18.34782777393607       38.31098670644970       14.21251734262577
C           17.10133694890363       37.99863607567146       14.88167108964965
C           16.41954185866929       39.18313621885548       15.01192299919439
C           17.26599639473220       40.19355077734078       14.39798783094564
C           17.68245494916267       42.50951281813276       13.64556600392566
C           17.24665249805049       43.87684028888715       13.48292394440044
C           18.22058333101791       44.50586979758368       12.74989162878694
C           19.24836176808429       43.50198992385675       12.49934574332847
C           21.46408405119486       42.82459356623272       11.60701826961211
C           22.70088721648224       43.11160764592339       10.90306604885400
C           23.47163038765026       41.99724729198024       11.00935151196799
C           22.69890352779468       41.03931232288238       11.77544673365422
C           23.13452439961956       39.76680622124746       12.12699201974525
H           24.16199987543770       39.51736684181105       11.89324544699370
C           19.35285632613729       37.39241301267418       13.93894391319320
H           19.13553202441185       36.35221994511158       14.15191535970771
C           16.94258002779769       41.53732321346295       14.30298618587961
H           16.01130570839776       41.84680385512736       14.75580821487508
C           20.42273750342907       43.72616956518610       11.79502770139443
H           20.55028486789265       44.71222965774026       11.36881615791896
C           21.65999355526580       35.28762613990637       13.78291530931400
H           22.66567474550748       34.90756748344810       13.94831463180093
H           21.19492421608227       34.68328125416657       13.00293555258740
H           21.09121427769274       35.14897637691377       14.69960677755079
C           24.17897589805744       36.88618397154868       12.72246720186824
H           24.76245079832520       36.98670353923711       13.63965822726862
H           24.69631618164245       37.42753775363570       11.93580885189500
H           24.15815758693487       35.83338238985522       12.45135255697462
C           16.69794638652242       36.63640272020124       15.32337399971368
H           17.31434286821202       36.31170818830608       16.16313653567885
H           16.82429728977382       35.91334520961450       14.51868987198614
H           15.65790926254700       36.62539157693794       15.63693253045389
C           15.11756338564573       39.46112887013383       15.57923638114177
H           14.54071445219381       40.21803786590782       15.05814625556869
C           14.58506484732004       38.90943211813053       16.66427397262179
H           15.10956127391482       38.18712351046151       17.26499626595136
H           13.60407430209253       39.18750329795117       17.01320764121315
C           15.98516688574834       44.42698838548964       14.05074352770585
H           15.79584959076156       44.02033553053381       15.04248967699671
H           15.13518152185668       44.16811245216498       13.41636223854719
H           16.03522062267200       45.50952269672467       14.12965178682786
C           18.26394931966181       45.88193588168873       12.31581957741829
H           19.24907999560659       46.32438379020969       12.22618740898536
C           17.19800941523037       46.62142251696001       12.02134504296053
H           16.20240540924848       46.21288891937122       12.04198946334315
H           17.27933104720417       47.65143959035773       11.71908740527414
C           23.01998027331789       44.40059418737220       10.22315041484109
H           23.03122413507711       45.22136236557768       10.94031746588893
H           22.27907280533286       44.63375544384617        9.45834020416376
H           23.99749991565426       44.35251728437467        9.75009305793174
C           24.82685699430197       41.73699836419384       10.43968133617954
H           25.60118283706265       41.86338138336311       11.19806184365100
H           25.04226620711666       42.41952654036860        9.62129254068501
H           24.89563817265588       40.72006042933552       10.05583622026316
O           19.29247079056433       39.89042913592294       11.07806848018030
H           19.57340797036364       38.97324144334750       10.93062014086568
H           18.55474746670226       40.15631191983550       10.50856492401578
C           22.10870480758058       40.34800485480038       15.76109901155733
H           22.20701127700283       40.45965374449063       16.83661214448522
H           22.99496402580003       40.72717898961216       15.26378978479237
H           21.94513750879912       39.31441720612227       15.48356766443038
S           20.70909549603675       41.35869686608054       15.17718225338602
H           19.76686397198014       40.65617482033767       15.82512751101076
72
 energy: -105.972419346153 gnorm: 0.044675004153 xtb: 6.7.1 (edcfbbe)
Fe          19.97342901035104       40.62170587394347       13.06050813771232
N           21.04886514521672       38.91995735564292       13.08024465794300
N           18.43335810201753       39.64078890296052       13.92070419161920
N           18.88260753296369       42.29811705978278       13.01073620738605
N           21.46767208566361       41.55599694402864       12.11051903216859
C           22.35057023036830       38.78112109864764       12.71433211774613
C           22.79391035115498       37.42433851084498       12.93781583752947
C           21.71202897244132       36.73966479402504       13.40256663289786
C           20.62985875952825       37.69112395359346       13.48788141636897
C           18.36287875517890       38.31382390780302       14.20954119886022
C           17.12201652006046       38.00240224263111       14.87607347469581
C           16.44345564512997       39.18492482380898       15.00031861612600
C           17.27963206827270       40.19209499456336       14.37621242095102
C           17.68639616824676       42.49573809843064       13.62282967067794
C           17.25176952960528       43.85948704455828       13.46707124142246
C           18.21927862213502       44.48905039657311       12.72982085467802
C           19.24492356897061       43.48956442938718       12.47949737537731
C           21.44567469854846       42.81823311681721       11.61339496798627
C           22.68208892832116       43.10775466906289       10.91615375453137
C           23.45482630806149       41.99016184082695       11.02592092817383
C           22.67663894172210       41.03388317084240       11.78625622040903
C           23.11765997793646       39.76917991037477       12.12544898273650
H           24.13645614190652       39.51716293499827       11.86578083730075
C           19.36768356404553       37.39222512772687       13.96737238702906
H           19.16607620877860       36.35821557366885       14.21877725289264
C           16.94519813062995       41.52832045516995       14.27810341497263
H           16.00948512747729       41.83646875581903       14.71956163953128
C           20.41890057102917       43.72566010482078       11.78757588722432
H           20.56130837501312       44.71329158578141       11.37258584893402
C           21.64397667390633       35.30230163489368       13.78671658636094
H           22.64602474634568       34.91164735082744       13.94888273424062
H           21.16835827831934       34.70988067627768       13.00332392428550
H           21.07180269418203       35.16986093028832       14.70291833090193
C           24.17129621836971       36.89917372544127       12.71913187294031
H           24.76488268408508       37.00012532776195       13.63063227249324
H           24.68062734280813       37.43900471322672       11.92499029565992
H           24.14232131126655       35.84527123411818       12.44975154230741
C           16.70497358461617       36.64279220616564       15.31166035589712
H           17.30531554303791       36.31354156810971       16.16210763662225
H           16.83729042669838       35.91999216403951       14.50697933983066
H           15.65849055337858       36.64544066245760       15.60734249599369
C           15.14216865168016       39.45913997359836       15.56946250165788
H           14.56612931459228       40.21115242222532       15.04231344838110
C           14.61507180709396       38.90127230233265       16.65350143933797
H           15.14137197635496       38.17857852216240       17.25273638259391
H           13.62731346588525       39.16504233404491       16.99311935534607
C           16.00368363142892       44.41987606095100       14.04996863836296
H           15.82072914257607       44.00666409638362       15.04048118094101
H           15.14574870522997       44.17769184724407       13.41885431957476
H           16.07375451504121       45.50179194297287       14.13362469245147
C           18.26737441942896       45.86627683523875       12.30189087689460
H           19.25758866185221       46.29974733097691       12.22851669274806
C           17.20996544527265       46.61525423825685       12.00051975133816
H           16.20730106657755       46.22232757207401       12.00984745499921
H           17.30929153146070       47.64867115131580       11.71398272834369
C           23.00183619524168       44.39060947008172       10.23608858687729
H           23.01302769787374       45.20800005522959       10.95552502845566
H           22.25743993761804       44.61569558307998        9.47397508786492
H           23.97901374796217       44.34211368502243        9.76196803975878
C           24.80818939786697       41.73838665502475       10.46079826888288
H           25.57744420898817       41.86133228007797       11.22356611414438
H           25.02155101270835       42.43010396343323        9.64935748070647
H           24.87235087703426       40.72570627408426       10.06914451179583
O           19.33882508942115       39.95808583273340       11.04016870048280
H           19.51044010662076       38.99168213184105       10.93306674659055
H           18.50335690925228       40.14664792178274       10.54131061225799
C           22.12029797168465       40.33375361918377       15.76945854546616
H           22.22354691663285       40.45005148724421       16.84324306935909
H           22.99893828031026       40.71808039496846       15.26173973166307
H           21.96010810216192       39.29769661380586       15.49527375825962
S           20.71409053375067       41.35110364518793       15.19776160583968
H           19.77804258260684       40.67497388669766       15.88569205520761
72
 energy: -105.971563982196 gnorm: 0.051809473985 xtb: 6.7.1 (edcfbbe)
Fe          19.97278399538397       40.61700006238653       13.06646529529535
N           21.04107196300951       38.93108031900380       13.08999985920254
N           18.44693779164910       39.64093813243215       13.89975661951776
N           18.88696713474031       42.28660815848637       12.99404588162174
N           21.44838049068609       41.55291921285455       12.12520316793608
C           22.34133632727880       38.79043385774632       12.72206838568668
C           22.78802614893460       37.43834750983767       12.94422726248182
C           21.71192480767599       36.75562119311075       13.41412027614030
C           20.63305478482192       37.70146453987780       13.50610087145417
C           18.37903238311316       38.31674108570276       14.21127296687769
C           17.14388404477103       38.00749091887879       14.87449140275627
C           16.46848495531437       39.18739759009255       14.99043490205639
C           17.29381773784527       40.19183684248652       14.35709326305230
C           17.68945079882548       42.48195553653630       13.60353126727347
C           17.25600264183979       43.84191098851301       13.45172078633524
C           18.21725977406204       44.47148414938829       12.71039853660015
C           19.24187656130836       43.47872416520443       12.46098841844522
C           21.42669194807333       42.81286746830297       11.62293421544848
C           22.66095131931136       43.10372400909772       10.92969428507456