87
 energy: -124.389289067641 gnorm: 0.375079235275 xtb: 6.7.1 (edcfbbe)
Fe           3.76500000000000       57.94200000000000       23.89500000000000
N            2.06200000000000       58.75100000000000       23.08000000000000
N            3.42200000000000       58.82800000000000       25.69600000000000
N            5.38300000000000       56.95300000000000       24.68200000000000
N            4.01800000000000       56.88000000000000       22.10900000000000
C            1.54100000000000       58.53600000000000       21.82000000000000
C            0.33700000000000       59.33400000000000       21.69200000000000
C            0.15900000000000       59.98800000000000       22.84600000000000
C            1.24000000000000       59.63300000000000       23.73800000000000
C            2.39600000000000       59.75099999999999       25.90900000000000
C            2.51100000000000       60.29100000000000       27.24299999999999
C            3.73700000000000       59.60000000000000       27.84200000000000
C            4.23700000000000       58.71399999999999       26.81800000000000
C            5.89400000000000       57.10299999999999       25.95900000000000
C            7.09800000000000       56.29300000000000       26.07000000000000
C            7.22400000000000       55.60200000000000       24.91700000000000
C            6.20600000000000       56.07900000000000       24.00200000000000
C            5.06600000000000       56.02400000000000       21.82200000000000
C            4.92500000000000       55.56900000000000       20.45100000000000
C            3.82100000000000       56.14399999999999       19.94500000000000
C            3.23000000000000       56.96800000000000       20.97900000000000
C            2.08400000000000       57.71800000000000       20.85300000000000
H            1.55700000000000       57.66000000000000       19.90100000000000
C            1.41100000000000       60.10600000000000       25.01800000000000
H            0.68600000000000       60.84300000000000       25.36400000000000
C            5.34300000000000       57.89600000000000       26.94900000000000
H            5.82700000000000       57.87400000000000       27.92500000000000
C            6.06600000000000       55.66299999999999       22.69600000000000
H            6.82400000000000       54.97800000000000       22.31600000000000
C           -0.56900000000000       59.40299999999999       20.44300000000000
H           -0.74900000000000       58.30899999999999       20.36600000000000
H            0.23300000000000       59.68699999999999       19.72800000000000
H           -1.50800000000000       59.94100000000000       20.19400000000000
C           -0.97500000000000       60.96899999999999       23.20500000000000
H           -0.32100000000000       61.82200000000000       23.48400000000000
H           -1.29900000000000       60.44600000000000       24.13000000000000
H           -1.86000000000000       61.35800000000000       22.65800000000000
C            3.22500000000000       55.97399999999999       18.52900000000000
H            2.41000000000000       56.33700000000000       17.86700000000000
H            3.13000000000000       54.87300000000000       18.64700000000000
H            4.20300000000000       56.22399999999999       18.06500000000000
C            5.89400000000000       54.58600000000000       19.75100000000000
H            5.62100000000000       53.52300000000000       19.68200000000000
C            6.61300000000000       55.22099999999999       18.53900000000000
H            6.90800000000000       56.28100000000000       18.55700000000000
H            6.83800000000000       54.62000000000000       17.64500000000000
C            8.37800000000000       54.67900000000000       24.44400000000000
H            8.69900000000000       55.24100000000000       23.54100000000000
H            7.70700000000000       53.85000000000000       24.13300000000000
H            9.27700000000000       54.26900000000000       24.95200000000000
C            7.91400000000000       56.19100000000000       27.39099999999999
H            7.32700000000000       56.45699999999999       28.25400000000000
C            9.44800000000000       56.04100000000000       27.24600000000000
H            9.89300000000000       55.75900000000000       26.28000000000000
H           10.11000000000000       56.21500000000000       28.10700000000000
C            4.33000000000000       59.79300000000000       29.25200000000000
H            5.22400000000000       59.52300000000000       29.85400000000000
H            3.41900000000000       59.43599999999999       29.77900000000000
H            4.29400000000000       60.89700000000000       29.13700000000000
C            1.59800000000000       61.34899999999999       27.90200000000000
H            2.43500000000000       62.04100000000000       28.13800000000000
H            1.44000000000000       60.66700000000000       28.76500000000000
H            0.67900000000000       61.94499999999999       27.71600000000000
C            1.29900000000000       54.02000000000000       27.02400000000000
H            1.47100000000000       52.95300000000000       26.76599999999999
H            0.21200000000000       54.18000000000000       27.19100000000000
H            1.86500000000000       54.26300000000000       27.94800000000000
N            1.24900000000000       54.79899999999999       24.62700000000000
H            0.53200000000000       54.15900000000000       24.35100000000000
C            1.77000000000000       54.88800000000000       25.90000000000000
C            1.84300000000000       55.68300000000000       23.84700000000000
H            1.61700000000000       55.82500000000000       22.79100000000000
N            2.73500000000000       56.34200000000000       24.56700000000000
C            2.71100000000000       55.86199999999999       25.85400000000000
H            3.36800000000000       56.26000000000000       26.61700000000000
C            3.47600000000000       61.54500000000000       21.95800000000000
H            3.04300000000000       62.56400000000000       22.05200000000000
H            2.64500000000000       60.81200000000000       21.87800000000000
H            4.09800000000000       61.50699999999999       21.03800000000000
C            4.32600000000000       61.22800000000000       23.16800000000000
H            3.69200000000000       61.27700000000000       24.07900000000000
H            5.12600000000000       61.99300000000000       23.25900000000000
S            5.05700000000000       59.59300000000000       23.01700000000000
C            6.47700000000000       59.80000000000000       24.08500000000000
H            6.17300000000000       59.87499999999999       25.15100000000000
H            7.02500000000000       60.72900000000000       23.81900000000000
H            7.16300000000000       58.93200000000000       23.98400000000000
87
 energy: -124.553666147530 gnorm: 0.212290680536 xtb: 6.7.1 (edcfbbe)
Fe           3.76686934702324       57.91895847686594       23.88636444177540
N            2.05932514329985       58.74786566862902       23.08292634030282
N            3.43227902324007       58.83063708192882       25.67064618199009
N            5.39648587949936       56.96049348208444       24.68486873145838
N            4.02502760379030       56.88346577224334       22.11225772896150
C            1.53451388855218       58.54305256445860       21.83014445009666
C            0.32321204393045       59.34002618353012       21.68797467306951
C            0.14550044199626       59.99789354524083       22.84310115117066
C            1.23680456342505       59.62974950670183       23.73129344005684
C            2.42019531024404       59.73656189808379       25.91245878740505
C            2.54579472757414       60.26754164457198       27.23702359161279
C            3.71472230287862       59.60525493957279       27.81336759305161
C            4.21576109247479       58.72437855995805       26.79914198803151
C            5.89526163416911       57.09526102473689       25.95973569851098
C            7.10682259057275       56.28176671465097       26.10298408001800
C            7.25600093956096       55.62075341556081       24.92327219665897
C            6.20680515322070       56.07626095603269       24.02083062098117
C            5.05923430946528       56.03070050609098       21.82051145271679
C            4.93625316429903       55.56956242651599       20.44532223029508
C            3.80774684163737       56.15585028827340       19.95053775265682
C            3.23985954946644       56.97068175744410       20.99427937442795
C            2.08367369386990       57.72087453594591       20.86080930582292
H            1.56274256581820       57.66041356323963       19.90779887695381
C            1.41689491455213       60.10063017203558       25.01914553254948
H            0.69430539390311       60.83557565709341       25.36778298481214
C            5.33550782452664       57.89938808168505       26.94138238602054
H            5.81884738400297       57.88372095625996       27.91622889506780
C            6.06318253179791       55.66401224162561       22.70115777929621
H            6.81651223138258       54.98115022292399       22.31597071483605
C           -0.53707475913889       59.37411671228377       20.43342688581196
H           -0.75982037504037       58.30556063801495       20.33015465181327
H            0.21589713633184       59.67814106034390       19.69663154205326
H           -1.46872005250341       59.93893524997704       20.24445197120707
C           -0.95172818880726       60.96911547899762       23.23859558614391
H           -0.34427815464306       61.84225101835203       23.50326980589957
H           -1.31930069933651       60.47383954150246       24.14495621277331
H           -1.81572672239878       61.31769252574936       22.64468331130722
C            3.26451045990637       55.94746349049471       18.53565442745250
H            2.42643993772493       56.35423378454282       17.93693608629660
H            3.13221255687181       54.86005646613238       18.60065840092072
H            4.19885893086472       56.19814576961307       18.01937881151919
C            5.86732419699640       54.64641771150279       19.67268221634242
H            5.63923550275727       53.56476378032591       19.67907228148539
C            6.57968811219698       55.19670409658987       18.57921379252551
H            6.88141373403516       56.24864487055305       18.57014479208781
H            6.84830331013631       54.61559774030277       17.69129140610615
C            8.35008285444448       54.68152843863413       24.41920423894111
H            8.71135664603346       55.21984872995832       23.53324855862241
H            7.73136770017035       53.83010885024795       24.11188834921251
H            9.22922000663098       54.29942172478175       24.96651816594308
C            7.96819841284693       56.21242377858724       27.33975991904541
H            7.38185982831847       56.44455168512940       28.23319182904723
C            9.37711196478465       56.05220637108318       27.25568287380369
H            9.85592299609345       55.77972839167388       26.31031165768124
H           10.06394717742064       56.20191607403320       28.09666482792745
C            4.27768982391038       59.82119220753828       29.23001536317578
H            5.19616286297189       59.50613137407705       29.77591269797981
H            3.42023697398939       59.45866032793376       29.81326142317010
H            4.28968200352542       60.91643414461916       29.18673971094831
C            1.65087470517490       61.31732724696302       27.92988530320256
H            2.42292353487088       62.05985204488664       28.17237381311746
H            1.42670431369548       60.69881404596713       28.80711190705020
H            0.72753603627074       61.88631849253147       27.67210926930939
C            1.29834388608655       54.01745587809299       27.02236694543496
H            1.46669183597824       52.96050461702313       26.77306221678885
H            0.22394073012366       54.17484628433967       27.19408818522339
H            1.85533746761808       54.25980181446083       27.93557447560140
N            1.24219987558816       54.78877002007864       24.63592353229884
H            0.52365453111605       54.14870464465761       24.35416606634502
C            1.76579874829841       54.88121714637891       25.90296781313200
C            1.84716486938365       55.68794392579540       23.85421915595991
H            1.62466363242539       55.82811345253171       22.80609501360565
N            2.73267107191180       56.35342776857395       24.56335856965381
C            2.70631637065275       55.86334179489366       25.84194845157378
H            3.35916366949874       56.25643762494945       26.60361243362433
C            3.47443719561117       61.54778652805702       21.95494403927161
H            3.04533126001700       62.55427255307556       22.04803545692668
H            2.65638136391596       60.82349250457619       21.87227264328880
H            4.08788130787844       61.50651927044212       21.04535774151744
C            4.32160781957913       61.23779632802011       23.17327121553946
H            3.69851249830778       61.27528763350367       24.07840207218652
H            5.12467737676786       61.98489207195051       23.26149923437575
S            5.06458842427059       59.59199999708851       23.01205189473300
C            6.48544405754607       59.80632733019230       24.09531630926404
H            6.17343728338992       59.87375284223923       25.14496374208881
H            7.02422800611109       60.72170448912993       23.81866192736637
H            7.15227186064403       58.94197777204012       23.98243979366841
87
 energy: -124.636928426065 gnorm: 0.129026349751 xtb: 6.7.1 (edcfbbe)
Fe           3.76690341427188       57.89437036648311       23.88309247390777
N            2.05627836258507       58.74238520969108       23.08594666526312
N            3.44204489886998       58.83396190027563       25.65076858641407
N            5.40668909660836       56.95928762579595       24.68995692737296
N            4.03057202730547       56.88455942875115       22.11700830557270
C            1.53031906486701       58.54682738548902       21.84104302754578
C            0.31223285168314       59.34370321842661       21.68432541362085
C            0.13499360585657       60.00643294167430       22.84294365671584
C            1.23674418265954       59.62418370537765       23.72708431030024
C            2.44214268332980       59.72687490154470       25.91182800924485
C            2.57906925131723       60.24607161042260       27.24099423225135
C            3.69048806621433       59.61559035801456       27.79143900435777
C            4.20331826314599       58.73347591005635       26.78181624382341
C            5.89893765330888       57.08864477058962       25.95835980682704
C            7.12047113794292       56.27354934615670       26.12117356502024
C            7.28298866737613       55.63508246015585       24.92132664489711
C            6.20936086382872       56.07730313107920       24.03411223828977
C            5.05631779403148       56.03952343032081       21.82048483565148
C            4.95205664333725       55.57801678937441       20.44157771684475
C            3.80130758604781       56.16769578325045       19.95343842547179
C            3.24857767007868       56.97181570764468       21.00764203160761
C            2.08349060029589       57.72327363321259       20.86955734907329
H            1.57007560590443       57.66085964791808       19.91632514562160
C            1.42463174790190       60.09496688406873       25.01892447112201
H            0.70477607668010       60.82559552365988       25.37252677026654
C            5.33157166546588       57.90338637593755       26.93242550156216
H            5.81027822640913       57.89386830205620       27.90675543835073
C            6.06205072761730       55.66812931221998       22.70673149760169
H            6.80788484040425       54.98475584302705       22.31720413161002
C           -0.50321575259780       59.34545865192870       20.42652000434911
H           -0.76878670229350       58.29940864597907       20.29011123119966
H            0.20077130182202       59.66619722970538       19.66139449410798
H           -1.42593307727710       59.93970729613370       20.30664947142967
C           -0.92654432877000       60.96798150215984       23.27209986424712
H           -0.36855917474029       61.86602874758427       23.52800702179666
H           -1.34056206494538       60.50493525064188       24.16539506470556
H           -1.76560265888217       61.27002841776981       22.62370793658471
C            3.30666051683791       55.92126856370609       18.54713889793589
H            2.44340927579657       56.37885023052974       18.02482876290653
H            3.13779470392949       54.84500175095120       18.55436756510753
H            4.19571610811977       56.17075467908180       17.97238104272033
C            5.83972014557638       54.70076727062995       19.60420615783624
H            5.64316044494223       53.61036330272380       19.67607312593624
C            6.53782288228063       55.17928402196664       18.62367276107868
H            6.83897786918981       56.22786454530623       18.57392270748257
H            6.87170306406126       54.60546824883495       17.75219444249274
C            8.32326710792062       54.68727153742407       24.39623390990714
H            8.72484050654936       55.19532832107263       23.51906646011290
H            7.75227146997054       53.81246036821808       24.09152446325580
H            9.17845279425311       54.33602115110818       24.99123093792076
C            8.00530617099283       56.22685289968429       27.29948540497931
H            7.43724995761347       56.44384006929238       28.21955356129393
C            9.29839319301175       56.06744660165452       27.25425364350101
H            9.82274527699252       55.80836609530213       26.33113531094567
H           10.00305620803641       56.18325074743100       28.08612754005140
C            4.22301859583247       59.84882388810472       29.20446507964212
H            5.16703436833127       59.48175842639224       29.67559373809656
H            3.41618802524676       59.48319083861506       29.84237765675516
H            4.28038916301277       60.93602442005349       29.23330889404267
C            1.70705914236709       61.28247766058654       27.95698637283895
H            2.41664280607026       62.07304629698414       28.20770266684335
H            1.41860161394573       60.72763621732051       28.84927701630980
H            0.78436881028250       61.81231578906262       27.61084794591997
C            1.29890945846157       54.01573401459876       27.02114141903841
H            1.46317431470879       52.96498301675354       26.77874725360045
H            0.23281562133350       54.17068005517529       27.19668426620799
H            1.84884520050713       54.25802672755771       27.92717832825450
N            1.23620679296267       54.77943202017143       24.64232595046400
H            0.51653736413263       54.14026468811889       24.35492786202177
C            1.76341914185140       54.87643921208658       25.90394224933441
C            1.84851972351599       55.69219473309277       23.86045860834903
H            1.62884725868465       55.83077531403195       22.81891320869206
N            2.72992344164153       56.36357530408824       24.55865020495276
C            2.70075795239351       55.86611088875530       25.83009852394594
H            3.34949912950715       56.25241605977848       26.59308916831990
C            3.47241191666448       61.55206791492733       21.95233332138809
H            3.04602876164817       62.54970476526012       22.04431255918091
H            2.66511574709372       60.83170168968324       21.86765152954084
H            4.08222524226023       61.50653702385082       21.05183124595916
C            4.31691994409838       61.24748203875352       23.17718564826771
H            3.70353706945795       61.27116412225823       24.07804410891413
H            5.12487022868921       61.97698172803487       23.26345709015910
S            5.07287006861109       59.58939726436493       23.00324892874312
C            6.49483476706788       59.81217680066858       24.10543217513393
H            6.17175755577694       59.87357234565811       25.14087817136795
H            7.02500705411841       60.71719715582842       23.81842514345589
H            7.14397520598857       58.94871392988859       23.98138945416565
87
 energy: -124.678393491130 gnorm: 0.063733044928 xtb: 6.7.1 (edcfbbe)
Fe           3.76664391796181       57.88034811569059       23.87967260197377
N            2.05553429527128       58.73347796113448       23.09278152848075
N            3.45484353939154       58.83925367750890       25.63213608362864
N            5.40739936095548       56.96126562021297       24.68728664336173
N            4.03149112891656       56.89003562473100       22.12360331783561
C            1.53073841023013       58.54337144261400       21.85167951552207
C            0.31504674534570       59.33919114144364       21.68872880101300
C            0.13840164088814       60.00570741403115       22.85095450605264
C            1.24084608660277       59.61652742813911       23.73010912284704
C            2.45456874003897       59.72357306070165       25.90123397888332
C            2.59334813429382       60.23606984627961       27.23809977435515
C            3.68559386693898       59.61571335083092       27.77963184360890
C            4.20684472399909       58.73590880209348       26.76543509926871
C            5.89446418165371       57.08891481674279       25.95157279298759
C            7.11165409858600       56.27530928325987       26.10972310666716
C            7.28697013912300       55.64573506563491       24.90771590615662
C            6.20770850324543       56.08213323918039       24.03341711531125
C            5.05616591696046       56.05089495071231       21.82593825032918
C            4.94635824302578       55.59428707956617       20.45299465002744
C            3.80184985928574       56.17757623860632       19.95809007228009
C            3.25038013079529       56.97719671900615       21.01566393545952
C            2.08389974808646       57.72518230210949       20.87933380769362
H            1.57622178835987       57.66309131624027       19.92575295844322
C            1.43274323684636       60.08865460933317       25.01864986545842
H            0.71537728241084       60.81425762473474       25.38045156700382
C            5.32915509784088       57.90743018318692       26.92165283595570
H            5.80298455168383       57.90694244530461       27.89599509398804
C            6.05963684024888       55.67337836904388       22.70950211691589
H            6.79921154821932       54.98768896973606       22.31728526906425
C           -0.47628802687758       59.32315030077324       20.42359610044024
H           -0.77632067287181       58.28856923794429       20.24256128616690
H            0.18764328953127       59.64915006427642       19.62008569787276
H           -1.38624483979634       59.94609235484364       20.37835506877428
C           -0.90709981397778       60.96688387021116       23.29893405119666
H           -0.39538314254267       61.89503521632957       23.56136411622577
H           -1.36435867831900       60.54162042016868       24.19494984343790
H           -1.71605422981305       61.21809737134770       22.59251353712598
C            3.33533438292580       55.90537507002481       18.55784707212070
H            2.45115143782543       56.41389416655028       18.12008137740595
H            3.14605893729169       54.82823107714529       18.50334142425256
H            4.19263224711901       56.13677601543951       17.91848059646168
C            5.77871435653410       54.71265816615431       19.60548260277714
H            5.60631503358038       53.63184141969265       19.68205989351530
C            6.56989788111174       55.18210480535141       18.62878307518734
H            6.79875306035090       56.24205922501655       18.55148174170351
H            6.93583963252960       54.58296853037808       17.79637841780334
C            8.30419921263951       54.69061942277831       24.37718591849626
H            8.74498020667501       55.16509320364845       23.49656391840765
H            7.77219960652746       53.79102879133231       24.06269547072344
H            9.12813291203030       54.37431261346012       25.03004233549241
C            7.97920533312283       56.25820129154508       27.27928477988993
H            7.45437984548946       56.46304406000124       28.21872539730198
C            9.29865016361460       56.05890543335970       27.25496366779905
H            9.82255480142570       55.84326525556030       26.33074391641831
H            9.96672679313962       56.15471116409173       28.10473681617517
C            4.18159575126933       59.86898496813579       29.18413262352711
H            5.14414136514242       59.44928184755693       29.56453690786180
H            3.40577875398154       59.51385818434895       29.87187746360248
H            4.26244910143330       60.95828331032379       29.28320500849109
C            1.75124347384305       61.25367822433477       27.97737356334851
H            2.41550856035260       62.08217120469835       28.25186722403551
H            1.41997302741861       60.75642113012830       28.89826527365566
H            0.84076559581009       61.73108115760363       27.53525912901677
C            1.29953070897672       54.01309449753266       27.02051584985757
H            1.46113999089273       52.96232939182855       26.78447172438868
H            0.23603431667755       54.16582512458491       27.20123218967182
H            1.84723387216512       54.25768796261965       27.92415287969930
N            1.23021773233073       54.77240031263159       24.64383360176883
H            0.51082063762452       54.13137954577304       24.35582852122735
C            1.76072350577168       54.87265416140335       25.90253925013396
C            1.84142115161110       55.69193339930915       23.86356495532806
H            1.62630364500780       55.83191356266254       22.82468846728102
N            2.72086881323352       56.36891595665584       24.55631768598553
C            2.69300487400509       55.86701140630048       25.82404759510169
H            3.34052902895748       56.25022204645777       26.58596871919671
C            3.47273169243242       61.55692995884908       21.95239017172348
H            3.04398362713145       62.55186848128753       22.04021549834330
H            2.66868335565260       60.83710845976515       21.86131137904362
H            4.08094739867027       61.50901423865773       21.05362175710525
C            4.31526444977622       61.25032641356045       23.17789772392912
H            3.70724626848618       61.26460596988828       24.08072883969370
H            5.12776511249729       61.97136067905836       23.26716954146859
S            5.08017840962052       59.58977187271312       22.99540250121499
C            6.49853615734044       59.81774976636203       24.10956806737191
H            6.16733326300860       59.87606128221546       25.14087557747095
H            7.03002509149893       60.71830110747225       23.81833842008047
H            7.13931978090772       58.95196913004580       23.98147160562985
87
 energy: -124.695398393800 gnorm: 0.054450292968 xtb: 6.7.1 (edcfbbe)
Fe           3.76577066665440       57.87082412473882       23.87817897962887
N            2.06066282352007       58.72078881536101       23.10197606396573
N            3.46847703564742       58.84538781415025       25.62014282246361
N            5.40071469213483       56.96315672220706       24.68126538508296
N            4.03100015872274       56.89259414971389       22.12783045512991
C            1.53592535195757       58.53388851454766       21.86413032051458
C            0.32459305328278       59.32880927419793       21.69596804132510
C            0.14790205707532       59.99930942464389       22.86225674765241
C            1.24921937712331       59.60464023657854       23.73478892869156
C            2.46433426103155       59.72407963150578       25.89027443375823
C            2.59904694993623       60.23221558839246       27.23462202869385
C            3.69157880479497       59.61106585785809       27.77561482143006
C            4.22002809713380       58.73696372399860       26.75248686126650
C            5.89163250984361       57.09021799985271       25.94023190543387
C            7.10682055364701       56.28130321034459       26.09120864601311
C            7.28670420516912       55.65723453965627       24.88561062908029
C            6.20377464580946       56.09025200105200       24.02629044652286
C            5.05910799684353       56.05966652320010       21.82792208264102
C            4.95382616562508       55.60792950208960       20.45859267650692
C            3.80880310145864       56.17728594566128       19.95864413534905
C            3.25312629003095       56.97840042210922       21.01746035903187
C            2.08686009161398       57.72322331094797       20.88756640162646
H            1.58231544518900       57.66574823880440       19.93438715720421
C            1.44144124645580       60.08233246388231       25.01888063690716
H            0.72442941235101       60.80172485624357       25.38794050736609
C            5.33372566180334       57.91190646184715       26.90995474138093
H            5.80377463306053       57.91944158001197       27.88383278342029
C            6.05912348964735       55.67982205002922       22.70763399136112
H            6.79356674930554       54.99156146310981       22.31499351184960
C           -0.45514025607530       59.30925451977378       20.42828096942361
H           -0.78251950278106       58.28738014860716       20.21159844031608