78
 energy: -115.841502338694 gnorm: 0.323994752088 xtb: 6.7.1 (edcfbbe)
Fe          28.18900000000000       93.94100000000000       53.02100000000000
N           29.23100000000000       95.60700000000000       52.39300000000000
N           29.26800000000000       93.89100000000001       54.78199999999999
N           27.14800000000000       92.27900000000000       53.68500000000000
N           27.05900000000000       94.01200000000000       51.28000000000000
C           28.98200000000000       96.34099999999998       51.30000000000000
C           29.74299999999999       97.49400000000000       51.28899999999999
C           30.44200000000000       97.48399999999999       52.48199999999999
C           30.07500000000000       96.31999999999999       53.12800000000000
C           30.18500000000000       94.79200000000000       55.15100000000000
C           30.81100000000000       94.45099999999999       56.33900000000000
C           30.29200000000000       93.17799999999998       56.66199999999999
C           29.32400000000000       92.89899999999999       55.68700000000000
C           27.45300000000000       91.50500000000000       54.73699999999999
C           26.56400000000000       90.43899999999999       54.85000000000000
C           25.65200000000000       90.61099999999999       53.76599999999999
C           26.14000000000000       91.69000000000000       53.03100000000000
C           26.11800000000000       93.12300000000000       50.92500000000000
C           25.71900000000000       93.33199999999998       49.60800000000000
C           26.40600000000000       94.45799999999998       49.18600000000000
C           27.19500000000000       94.85599999999999       50.27000000000000
C           28.04900000000000       95.96899999999998       50.30900000000000
H           27.98200000000000       96.64000000000000       49.45399999999999
C           30.51400000000000       95.92400000000001       54.39700000000000
H           31.22200000000000       96.60200000000000       54.87100000000000
C           28.49400000000000       91.77300000000000       55.63500000000000
H           28.68100000000000       91.00800000000000       56.38800000000000
C           25.67100000000000       92.09600000000000       51.77000000000000
H           24.82700000000000       91.52300000000000       51.38800000000000
C           31.38700000000000       98.55100000000000       52.98199999999999
H           30.92800000000000       99.07800000000000       53.84499999999999
H           31.58400000000000       99.28699999999999       52.17300000000000
H           32.34000000000000       98.08400000000000       53.31099999999999
C           29.75100000000000       98.58700000000000       50.22800000000000
H           28.74800000000000       98.65100000000000       49.75399999999999
H           30.50400000000000       98.34699999999998       49.44800000000000
H           29.99000000000000       99.56499999999998       50.69800000000000
C           31.86400000000000       95.32599999999999       57.02099999999999
H           31.48400000000000       96.36700000000000       57.10500000000000
H           32.79600000000000       95.33100000000000       56.41700000000000
H           32.07300000000000       94.93600000000001       58.03999999999999
C           30.63300000000000       92.28400000000001       57.68500000000000
H           30.00800000000000       91.38699999999999       57.79099999999999
C           31.72800000000000       92.38800000000001       58.64600000000000
H           32.41100000000000       93.25000000000000       58.62299999999999
H           31.88200000000000       91.60599999999999       59.40400000000000
C           26.52400000000000       89.49200000000000       56.06400000000000
H           26.48600000000000       90.09000000000000       57.00000000000000
H           27.43800000000000       88.86000000000000       56.07700000000000
H           25.61900000000000       88.84999999999998       56.00900000000000
C           24.48500000000000       89.91200000000001       53.38100000000000
H           23.86800000000000       90.37800000000000       52.60100000000000
C           23.97200000000000       88.63599999999998       53.88000000000000
H           24.51300000000000       88.08400000000000       54.66300000000000
H           23.03900000000000       88.21400000000000       53.47800000000000
C           24.74900000000000       92.50600000000000       48.76499999999999
H           23.70400000000000       92.77600000000000       49.02999999999999
H           24.90400000000000       91.42399999999999       48.96600000000000
H           24.91300000000000       92.71899999999999       47.68699999999999
C           26.31600000000000       95.09900000000000       47.81500000000000
H           25.30400000000000       94.92500000000000       47.39000000000000
H           27.07300000000000       94.64699999999999       47.13900000000000
H           26.48800000000000       96.19300000000000       47.90000000000000
O           26.86900000000000       95.16400000000000       53.84399999999999
H           27.08900000000000       96.04100000000000       53.52799999999999
H           26.20400000000000       94.95500000000000       54.39500000000000
C           30.75800000000000       90.28700000000001       49.74500000000000
H           30.89700000000000       89.27300000000000       50.17799999999999
H           31.68900000000000       90.58400000000000       49.21700000000000
H           29.90800000000000       90.25999999999999       49.02999999999999
N           31.18000000000000       91.61600000000000       51.91100000000000
H           32.06900000000000       91.21899999999999       52.14000000000000
C           30.46000000000000       91.27900000000000       50.86000000000000
C           30.55400000000000       92.53500000000000       52.59000000000000
H           30.93200000000000       92.99800000000000       53.49999999999999
N           29.41800000000000       92.78700000000001       51.98600000000000
C           29.31500000000000       92.04400000000000       50.92999999999999
H           28.44500000000000       92.09300000000000       50.28699999999999
78
 energy: -115.909496664015 gnorm: 0.129067612483 xtb: 6.7.1 (edcfbbe)
Fe          28.18603800573496       93.93317357218996       53.01460721615372
N           29.20028984661394       95.60173707323294       52.40185479316077
N           29.26164540372122       93.88715708541913       54.76662126971289
N           27.16714315002090       92.28122250016713       53.66408013765215
N           27.05519086849756       94.01504412827003       51.30244553773419
C           28.96759894772162       96.33319223376897       51.28251854978322
C           29.74079412340719       97.51180978553030       51.28515464095065
C           30.44776393316423       97.50161523128274       52.47478198130865
C           30.07708542477426       96.31751259638436       53.14124046284004
C           30.18444887934474       94.80811591631627       55.14826211411611
C           30.82432351694066       94.45050178676325       56.34279025710945
C           30.30893256087273       93.17636939541934       56.68172044311656
C           29.31992318760020       92.88920580363578       55.68668361252476
C           27.45466239537318       91.50773941737633       54.74227778868185
C           26.54830276830069       90.43818395367313       54.86103490363956
C           25.64195314444952       90.58054159322629       53.77237248095810
C           26.12252443975978       91.70063420880152       53.02906220260283
C           26.12106269513819       93.10599629059226       50.93363306717070
C           25.71324435152744       93.33196212320429       49.59807144984014
C           26.39755879229622       94.46060681123856       49.17459490176561
C           27.20984073903903       94.86178851333767       50.26331080049466
C           28.05321973119623       95.97204704217766       50.28765703942728
H           27.98549437967246       96.64155527199503       49.44225744024890
C           30.52256246465573       95.94239014158801       54.40510183982168
H           31.23142702345239       96.61086375254980       54.87124549121840
C           28.49960063884696       91.76601057499253       55.64309778234281
H           28.67389304299343       91.00806600412352       56.39368561725616
C           25.65411091723526       92.08848811667637       51.77272914709940
H           24.82754672192437       91.51489407048093       51.37824983384880
C           31.38622636918197       98.55129827725976       52.98137846071788
H           30.93990744842844       99.07524425677487       53.83651637139300
H           31.58927194902846       99.27882775363705       52.19001058255368
H           32.32997943494792       98.09775495829432       53.30622694824588
C           29.74872826428648       98.58350338932657       50.23194180409998
H           28.76378933060692       98.65490731649244       49.75774128874390
H           30.49248447685938       98.35552860696093       49.45821579115812
H           29.98707724800482       99.55169273798350       50.68450832839895
C           31.85523079661951       95.31752032960829       57.01789093128068
H           31.48870276742344       96.34856808718807       57.10178906054180
H           32.78371902663088       95.32974832988741       56.43193745099394
H           32.06914936309886       94.95335469705869       58.02399875194480
C           30.65858743161451       92.28725780172428       57.72204910654641
H           30.03658423366171       91.39651105258450       57.80724021404224
C           31.69955417075806       92.38492600897602       58.62523961280277
H           32.39208581138864       93.21713876240480       58.61633499865050
H           31.86260929918159       91.61936402800433       59.37551917661360
C           26.52073047158742       89.50148721675409       56.04896014803357
H           26.48727526921681       90.08064519703863       56.98115362931939
H           27.41952942568880       88.87065454169840       56.07219242701482
H           25.63747059031965       88.86090716719156       56.01480020800707
C           24.47262658732416       89.86883628178229       53.39857556681942
H           23.86991857321228       90.34534613469715       52.62378406196755
C           23.98671908651096       88.66692650188703       53.87230735178670
H           24.50594582812525       88.09942394455608       54.63456232431933
H           23.06712616578877       88.24273479495338       53.48200742081996
C           24.75330857144647       92.51175145765571       48.77514158845871
H           23.71607783580205       92.76859902429587       49.02665099262089
H           24.90043933456757       91.44144155068173       48.96183521398106
H           24.90989930669345       92.71083660877819       47.70931729787185
C           26.31337908908640       95.09857438348796       47.82002536869699
H           25.31904002932220       94.93222806624202       47.39162379757533
H           27.06145433524447       94.66037507647422       47.14611636099392
H           26.48747562126894       96.17718313195971       47.89174100367825
O           26.87243238190296       95.18029040042147       53.84678508525406
H           27.06686941772820       96.06700310629840       53.54078621641832
H           26.16247718572860       94.96986070219117       54.42448335424856
C           30.76644699163602       90.28084505689952       49.74815220719402
H           30.90151392836709       89.27811419480753       50.16809181066737
H           31.67988551456290       90.57372711487494       49.21883818294205
H           29.92932799259132       90.26096116572643       49.04474622446149
N           31.20124415487006       91.59818200407740       51.89509103942190
H           32.09267053474320       91.19909919312109       52.12588503420832
C           30.45082329822751       91.26429717045947       50.83024476194775
C           30.56694522981653       92.53375665920385       52.59673649043239
H           30.94146420715291       92.99110135917735       53.49281782964606
N           29.41871459187233       92.79704939800770       52.01403298941474
C           29.31544584746405       92.04001774731530       50.92532883618075
H           28.45245308613389       92.08917225870418       50.28850349428926
78
 energy: -115.926387456761 gnorm: 0.046171348267 xtb: 6.7.1 (edcfbbe)
Fe          28.18120735194205       93.92803373927744       53.00561937763514
N           29.16680362788571       95.60500154626142       52.41327990475785
N           29.25956936295912       93.88537378466506       54.74910366583666
N           27.18524476739138       92.28227735957718       53.64146465893544
N           27.05517476913630       94.01449920116664       51.31987788741601
C           28.95116352745581       96.33007665387072       51.27480122764570
C           29.73417774328380       97.52271996063811       51.28624505724294
C           30.44348447767988       97.51303465712995       52.46913304711589
C           30.06715236950795       96.32086689773298       53.15420547448013
C           30.18187862437748       94.82070934668536       55.14216660964877
C           30.82908602229110       94.44578228073846       56.33930100169833
C           30.31936193928012       93.17724622074840       56.68367898081586
C           29.32072349030621       92.88256163986145       55.67829740528772
C           27.45840590061733       91.51382351663254       54.73979663460254
C           26.53413544602152       90.44974242622615       54.86614775568282
C           25.63918788344057       90.57070430697438       53.78082282580267
C           26.11285355035516       91.70760198788345       53.02483397693537
C           26.12378057217481       93.09542568238219       50.94301395210714
C           25.71074073209569       93.33306809037067       49.59769304810212
C           26.39318937818841       94.45959642618280       49.17258419384938
C           27.22304032004520       94.86282204207973       50.25964988386971
C           28.05702154867807       95.97325485082061       50.26778638566316
H           27.99708830154442       96.63571537856282       49.41995256093192
C           30.52498633340763       95.96337993530825       54.41157162900238
H           31.24347045361990       96.62284277055944       54.86837495452332
C           28.50649019383029       91.76185116816944       55.64614904026556
H           28.66051273021024       91.01311860075242       56.40616172545753
C           25.63776844262516       92.07879000086631       51.77353201675204
H           24.82491435715296       91.49990861181601       51.36613423885750
C           31.38383367044328       98.54953196543745       52.97967015403583
H           30.94949729845201       99.07343912887117       53.83256343868876
H           31.59735772202932       99.27636308611604       52.20209130219621
H           32.32240424465837       98.10257605369765       53.30243786669114
C           29.74523481679851       98.57896735019834       50.23458007638125
H           28.77162050558492       98.65812845069625       49.75734454178802
H           30.48456307830844       98.35754363562266       49.46389109602192
H           29.98729515243040       99.54396816563177       50.67300890118868
C           31.84403724737998       95.30692986510026       57.01498628103079
H           31.48396098850369       96.33337655977428       57.09150548653965
H           32.77558967485640       95.32341878883541       56.44511942953403
H           32.05898791035351       94.96137823611504       58.01733179922948
C           30.67551622598437       92.28763978574710       57.74208204873702
H           30.04605609777117       91.40726863430133       57.81818544692241
C           31.67682324134216       92.38084509916162       58.60676334615926
H           32.38283509054587       93.19029769377971       58.61091780853170
H           31.84194160947289       91.62505228555094       59.35534824341460
C           26.51528378554350       89.51490304435075       56.03201700991003
H           26.49128848324417       90.08035032627667       56.96527467582381
H           27.40601130527465       88.88388825398056       56.05300442661657
H           25.64408434640626       88.87255959360678       56.01151287611589
C           24.46523075999217       89.84174455125496       53.41372478418302
H           23.87481753230574       90.32492273807361       52.64019381548616
C           24.00651743627359       88.68567110144136       53.86689768380873
H           24.50914476914101       88.10177925101215       54.61576749254050
H           23.08864029344400       88.26519856585745       53.49023286788864
C           24.75702991422843       92.51600658913274       48.79004022302210
H           23.72289153952706       92.76403621893753       49.03315769560346
H           24.90054604987965       91.45235361612689       48.97015041949473
H           24.90853853490593       92.70500210329595       47.72958105745418
C           26.31196307557347       95.09820502554831       47.82808889424502
H           25.32824348415449       94.93840987316898       47.39327791165304
H           27.05564221799668       94.67078775822827       47.15286528633587
H           26.48891453044832       96.16856154249773       47.89024440201690
O           26.86499178026686       95.20204432861763       53.87422915251430
H           27.01046262349478       96.10401699597394       53.57459037001340
H           26.12254172615197       95.00027638635846       54.44292682640683
C           30.77309054638289       90.27583917617945       49.74831768922233
H           30.91159798793497       89.28002998269807       50.16277930524089
H           31.67968960348768       90.56281165126418       49.21976231707602
H           29.94829569615477       90.25059481948382       49.04458598219601
N           31.22848184068521       91.57785872098428       51.87251891396858
H           32.12262873219399       91.17486815911293       52.09665403098784
C           30.44178696003357       91.25595484299190       50.80680447438136
C           30.59403968018871       92.51727277844645       52.59773297011092
H           30.97509408346410       92.96931930856496       53.48483610449227
N           29.43165611245021       92.79559755388127       52.05022354729986
C           29.32064081346351       92.03613076647004       50.93550595456782
H           28.45904496288808       92.08945050760438       50.30429445131089
78
 energy: -115.932109234307 gnorm: 0.028213672517 xtb: 6.7.1 (edcfbbe)
Fe          28.17700277060305       93.93329088561563       53.00351202582065
N           29.14190103165073       95.61899197908569       52.42192401962812
N           29.26263958831356       93.88798643633525       54.73629708921965
N           27.19267303475056       92.28529626114356       53.62518323431051
N           27.05776207698906       94.01461793892067       51.32637820908449
C           28.93759234733422       96.33684432636220       51.27595156764838
C           29.72420512156574       97.53192621255668       51.28835955278277
C           30.43162490384258       97.52464788639840       52.46929521031970
C           30.04969863230354       96.33404913538382       53.16351715182466
C           30.18112137908405       94.82663548646211       55.13534158906012
C           30.82868520304325       94.44131246384245       56.33221705289031
C           30.31912114400191       93.17863080491905       56.67444573962972
C           29.32295726181723       92.88168276938342       55.66549460614149
C           27.46038768786347       91.52212465134416       54.73000496433336
C           26.52660616913288       90.46528322179017       54.86296037758446
C           25.63953304681124       90.57767202217637       53.78173564118585
C           26.11104291460584       91.71175795001392       53.01677159510854
C           26.12555811486607       93.09611634458230       50.94737787668350
C           25.71095590272752       93.33585735080960       49.60167405372297
C           26.39431157372024       94.45811726537472       49.17347994632984
C           27.23066922853066       94.86176668987065       50.25708675161356
C           28.06107618803518       95.97193093986415       50.25449281411876
H           28.01701867655988       96.62059993197511       49.39388009420598
C           30.52008262975134       95.97977664231811       54.41447145187974
H           31.24941926652542       96.63366926893198       54.86405655613462
C           28.50772177568063       91.76492560122443       55.64074339054001
H           28.64167514963141       91.02599227890202       56.41557162020737
C           25.63070949862673       92.07510494715126       51.76915924075506
H           24.82711840151188       91.48904327624214       51.35178420158076
C           31.38190455351910       98.55180069451656       52.97948428025867
H           30.95648381386680       99.07738436343253       53.83522563110601
H           31.60499576347377       99.28040048121827       52.20652621120549
H           32.31744225730243       98.09771353132032       53.29925060812784
C           29.74136881960074       98.57979210366931       50.23040108791936
H           28.77020590251256       98.66307795027816       49.75032956966612
H           30.48052759507094       98.35243301960598       49.46203511381272
H           29.98928976194206       99.54647610605588       50.66104548996892
C           31.83475586405621       95.30349656538790       57.01442784561802
H           31.47355736647764       96.32968520482297       57.07520743476778
H           32.77496874456373       95.31427432924180       56.45915715413943
H           32.03699984907847       94.97094109425986       58.02342529223268
C           30.66659049777246       92.28707331275766       57.74169351583758
H           30.02798785345894       91.41478588615600       57.81860991931013
C           31.67892101016175       92.36880796638349       58.60718175715640
H           32.40439246478620       93.16037166626430       58.60914767824474
H           31.82928045819187       91.61443367458794       59.35922242990971
C           26.51311348016580       89.52803864449709       56.02187208937144
H           26.50122795635397       90.08756291429478       56.95810602794138
H           27.40085414910494       88.89389855842320       56.02744286199992
H           25.64080424814572       88.88817525186850       56.00856526706803
C           24.46486751573965       89.84043546474311       53.41827622126453
H           23.87023629468470       90.32449607202992       52.65173959790830
C           24.01222634519139       88.67218024106479       53.87492991740965
H           24.52308658487726       88.07361802983615       54.60563261809580
H           23.09259778460395       88.25569653518924       53.50133943437417
C           24.75540368905589       92.51572051778497       48.80487996906726
H           23.72158148595679       92.76120626191054       49.04937219623901
H           24.90133121368600       91.45395293657579       48.98906800110436
H           24.90323268755074       92.69803587702533       47.74353861424814
C           26.31224647164169       95.09992158704313       47.83201711563228
H           25.32998633798001       94.94343428007501       47.39406607807280
H           27.05628298769179       94.67702307409191       47.15524800535491
H           26.49068480049818       96.16932460338384       47.89469986118528
O           26.85272142746066       95.22638357467169       53.92417340681752
H           26.93544257465310       96.13626975913169       53.60672965782363
H           26.07443641543614       95.02366801153644       54.45526217488329
C           30.78018635400618       90.26840014365010       49.74081345776367
H           30.92548012224505       89.27526390302572       50.15942792042234
H           31.68800273671377       90.55418916793560       49.21403550757741
H           29.96161549425139       90.23180441602034       49.03122104458512
N           31.25799548610024       91.56100309365378       51.85106131443684
H           32.15629327891147       91.15407673734060       52.05685865026152
C           30.44415250298578       91.25023371377281       50.79510642581154
C           30.63213393861885       92.49505533766411       52.59795225954794
H           31.03179336186498       92.93969440322752       53.48152518946122
N           29.45705072013148       92.78639588899090       52.08106126243514
C           29.33013203356398       92.03038091639706       50.95517365081467
H           28.46125622441293       92.08886116420561       50.33426555739540
78
 energy: -115.936417380175 gnorm: 0.038430197657 xtb: 6.7.1 (edcfbbe)
Fe          28.17796017277224       93.93678855407312       53.00369052578917
N           29.11645593384955       95.63533728945339       52.43037055554606
N           29.27422180562224       93.88868954771132       54.71970698462009
N           27.19339282500349       92.29127644619579       53.60989326078941
N           27.06409961348296       94.01393214837411       51.33445114255198
C           28.92341745010520       96.34564767232958       51.28161573336211
C           29.71250586669675       97.54168102391318       51.29174265892880
C           30.41457693815417       97.53896664552300       52.47192439541504
C           30.02798716240629       96.35039526511143       53.17474743620573
C           30.18492021823729       94.82825840996013       55.12501276626197
C           30.82999973913146       94.43475191441058       56.32240646862365
C           30.32346936888301       93.17666823363457       56.65847919619832
C           29.32821185869792       92.87967084939326       55.64857668653297
C           27.45949566989522       91.53464949154667       54.71763150818158
C           26.51978328321967       90.48402777850606       54.85823183388904
C           25.63895188072247       90.58637652832495       53.78113906820971
C           26.10779535473505       91.71495577918738       53.00574837120829
C           26.12771773918715       93.10234793253629       50.95357356773081
C           25.71119854253823       93.34215376883638       49.60889059040379
C           26.39785635324944       94.45675112631146       49.17622915879076
C           27.23994232983777       94.86075806260908       50.25616093576695
C           28.06863740015028       95.96714401721724       50.24163408566014
H           28.04801158037425       96.59610037462636       49.36394192135138
C           30.51417546539801       95.99611077094680       54.41526072605330
H           31.25187849360507       96.64595603019865       54.85800904681092
C           28.50647495575439       91.77217483348200       55.63307755752593
H           28.61706082480562       91.04401471909677       56.42209291386653
C           25.62426830166322       92.07169990828488       51.76222339073234
H           24.82963961427987       91.48135515462889       51.33406676915655
C           31.37818674030625       98.55547973796180       52.98040964985118
H           30.96403923116167       99.08270960740120       53.84171009070381
H           31.60957256762233       99.28595573650215       52.20951288043054
H           32.31040709541175       98.08617297850977       53.29324913443215
C           29.73683019755856       98.58036348946094       50.22293084848817
H           28.76560458846851       98.66755593711139       49.74133654675590
H           30.47525895098397       98.33945573861223       49.45627421455474
H           29.99394432277792       99.55037548968383       50.64451308342050
C           31.82550860472207       95.29828331632152       57.01888529013245
H           31.46534807017389       96.32703848747967       57.05654748253402
H           32.78016307131854       95.29710180996608       56.48584187041485
H           31.99941614535546       94.97089800924959       58.03761315530778
C           30.65871213598372       92.28496814684954       57.73228712345447
H           30.00026749475354       91.43068240029361       57.82869232140710
C           31.68080822904151       92.35543616541027       58.59711959092004
H           32.42276631525062       93.13181519868797       58.59081366796220
H           31.80651308458900       91.60216008502927       59.35717906747531
C           26.51232801032296       89.54262038532944       56.01328339241255
H           26.51963586187218       90.09645183426822       56.95368198611028
H           27.39492360614992       88.89973671890166       55.99648103496984
H           25.63063664793874       88.91335407958090       56.00443850792659
C           24.46606690506369       89.84073208337369       53.42429177761191
H           23.85252317144997       90.32502534415660       52.67558830299235
C           24.03045445935474       88.65645838071949       53.87656377737683
H           24.55223628907027       88.05358371159521       54.59493352381386
H           23.10221595155635       88.24877223401003       53.51231647253668
C           24.75056739425883       92.51546296796793       48.82468134760779
H           23.71721253081276       92.75957476680982       49.07617286522692
H           24.90169995724979       91.45468791715463       49.01738662852259
H           24.89025716168424       92.68958212452658       47.75983124682099
C           26.31415831751677       95.10279243588721       47.83641268103961
H           25.33139321101365       94.94701123265465       47.39681453604700
H           27.06017328254648       94.68400702742186       47.15766832364613
H           26.49081777580920       96.17343851117215       47.90414926484515
O           26.84802728199094       95.26318456029018       54.01874947261238
H           26.81346421583943       96.16798560559702       53.63628546663679
H           25.98908437297214       95.05857622773229       54.44782618857520
C           30.78971820530032       90.25828193781113       49.73013526927883