78
 energy: -116.057935721061 gnorm: 0.000101963087 xtb: 6.7.1 (edcfbbe)
Fe           9.94663023318080        2.23970705126913       26.74892407142262
N            9.21178152616621        2.34536236699479       28.59686795370760
N           10.04523111084143        4.24962688499755       26.67078730347149
N           10.63669465958498        2.14125339591792       24.85695391817838
N            9.79596252216571        0.25253869824013       26.79294544795200
C            8.82825340066988        1.30794488498150       29.38351749729026
C            8.36196180831091        1.78246696530264       30.66897035998225
C            8.47930776217830        3.13595658853356       30.64022884799475
C            9.01076972130617        3.46899122924026       29.33533228764260
C            9.74550939000973        5.11964219463053       27.67460753064693
C            9.98985895484469        6.47791764073328       27.26603902534888
C           10.45676911079913        6.41639355636664       25.97882608554860
C           10.47920858848575        5.00979481472207       25.62952241993220
C           10.99840866816225        3.18801882137014       24.06116329358541
C           11.49710193349343        2.71996155185052       22.79478636726815
C           11.44298238240401        1.35101501424124       22.84204215477674
C           10.89520935054216        1.01641956030270       24.14101009940052
C           10.15566650029615       -0.61822858868453       25.81383037510293
C            9.91303711762829       -1.98376059622135       26.22786956506656
C            9.39552094419723       -1.91465481579880       27.48278891758481
C            9.33463669831352       -0.50856917487914       27.81893756374170
C            8.87771672343934       -0.02778111211829       29.03113867862969
H            8.53456646677038       -0.74905113743734       29.75727427532396
C            9.26388566796229        4.76089692506795       28.92190742324227
H            9.07103349641644        5.55451499586547       29.62732662759748
C           10.92380866063209        4.52529006809436       24.41374906739435
H           11.26845324983977        5.24653999865088       23.68865360853696
C           10.68053637699352       -0.27583414383357       24.58281117876410
H           10.94143054529474       -1.08165065980403       23.91419824333403
C            8.14337349438850        4.13641731243140       31.69251922568438
H            7.77537111667797        3.64523330158195       32.58996206100697
H            7.37351850668869        4.82177849426042       31.33723233943930
H            9.02245807787599        4.72397798955476       31.95847624570075
C            7.86124556388991        0.89911655999951       31.76000900067354
H            8.63342164489553        0.19469966508994       32.07108012095848
H            6.99841614657227        0.32598882162877       31.42062054414932
H            7.56361199171380        1.48473524358260       32.62632503440432
C            9.70292421386544        7.68571170334559       28.08784464590605
H            8.78960598599881        7.55092773383061       28.66536216760470
H            9.58331192001824        8.55533460340671       27.44469437289687
H           10.51759506490347        7.88349865438054       28.78643037781573
C           10.83448489392081        7.49217241848737       25.08949420853114
H           10.62971218057918        7.32495859341634       24.03802639739155
C           11.40550362776363        8.63432380241707       25.45841818142033
H           11.67578627642085        8.83591496424843       26.48016160487093
H           11.64716222043950        9.40059900104857       24.74059330745992
C           11.90931168702182        3.59142633282342       21.65998390525412
H           12.93620313951635        3.93825931966975       21.78742793250757
H           11.26500026195931        4.46680468999490       21.59078774080881
H           11.84732825095524        3.03927414715546       20.72435543891895
C           11.80763808398748        0.38660500683266       21.82821387852016
H           11.21165197281263       -0.51854980238880       21.80755065354156
C           12.79782712873856        0.52430830074660       20.95239899452539
H           13.45268411038805        1.37804134572286       20.95672759411265
H           13.00487094861529       -0.23182364271660       20.21328331523466
C           10.19451977388951       -3.18095603408757       25.38621633161666
H           11.24862322396220       -3.21666834993691       25.10996022984944
H            9.60574603776794       -3.15124603969678       24.46908097314018
H            9.94894012721040       -4.09573326671825       25.92008697215212
C            8.95472218359426       -3.01508888453939       28.38621494968524
H            9.09018482581526       -3.98351424553923       27.91100862920786
H            7.90051131954880       -2.90155914957171       28.63899544701985
H            9.52741560341850       -3.00536293782766       29.31422739836962
O            7.85681763993736        2.44011911635561       25.81775297581415
H            7.76521107788978        3.39921681527147       25.81715338057590
H            8.05072227674498        2.17309260871886       24.91259493407051
C           15.39525774978983        2.95078977816326       27.68994378555049
H           16.05934168379690        2.11616402866996       27.46529586312286
H           15.70406695737405        3.38594002754514       28.64030547453225
H           15.50336009232952        3.70026485131806       26.91227350149907
N           13.54426461856651        1.56730841127804       28.65552739784327
H           14.11222108146217        1.10719681236088       29.34788017789235
C           13.98235292590293        2.49878690658288       27.75101778478588
C           12.22148410875134        1.38202936869463       28.44524310581644
H           11.61155544053150        0.70651057141901       29.00921422845901
N           11.79607239150029        2.13915657295274       27.46304270712396
C           12.87977208357942        2.83961669702458       27.02139262246935
H           12.79588469509951        3.53747880242792       26.21458165162886
