78
 energy: -115.926765922796 gnorm: 0.292879226566 xtb: 6.7.1 (edcfbbe)
Fe          10.07100000000000        2.21800000000000       26.91700000000000
N            9.03000000000000        2.40300000000000       28.53600000000000
N           10.07200000000000        4.26500000000000       26.68600000000000
N           10.87600000000000        2.11100000000000       24.97500000000000
N            9.84800000000000        0.23300000000000       26.85100000000000
C            8.65200000000000        1.34800000000000       29.33200000000000
C            8.22100000000000        1.84600000000000       30.61900000000000
C            8.35600000000000        3.18000000000000       30.57300000000000
C            8.86800000000000        3.55200000000000       29.28000000000000
C            9.67100000000000        5.16900000000000       27.64400000000000
C            9.95500000000000        6.51000000000000       27.17400000000000
C           10.43800000000000        6.41300000000000       25.95400000000000
C           10.55100000000000        5.00900000000000       25.63600000000000
C           11.14300000000000        3.17700000000000       24.14800000000000
C           11.62900000000000        2.66700000000000       22.89399999999999
C           11.60100000000000        1.31500000000000       22.96100000000000
C           11.13500000000000        0.96700000000000       24.26200000000000
C           10.30500000000000       -0.63600000000000       25.85800000000000
C            9.91000000000000       -1.99600000000000       26.15000000000000
C            9.15000000000000       -1.91800000000000       27.46400000000000
C            9.16900000000000       -0.49200000000000       27.81800000000000
C            8.59400000000000        0.05500000000000       28.93500000000000
H            8.02900000000000       -0.62400000000000       29.57300000000000
C            9.14000000000000        4.82900000000000       28.86600000000000
H            8.91800000000000        5.64000000000000       29.56000000000000
C           11.02800000000000        4.49200000000000       24.46500000000000
H           11.34900000000000        5.20800000000000       23.70800000000000
C           11.02400000000000       -0.28300000000000       24.74700000000000
H           11.54700000000000       -1.07700000000000       24.21400000000000
C            8.07700000000000        4.14800000000000       31.72500000000000
H            8.09800000000000        3.59400000000000       32.68800000000000
H            7.07400000000000        4.60700000000000       31.59500000000000
H            8.85600000000000        4.93900000000000       31.74700000000000
C            7.69400000000000        1.00900000000000       31.82700000000000
H            7.86000000000000       -0.07200000000000       31.63000000000000
H            6.60600000000000        1.18700000000000       31.96100000000000
H            8.24200000000000        1.29600000000000       32.75000000000000
C            9.61600000000000        7.83800000000000       27.87500000000000
H            9.10000000000000        7.62900000000000       28.83600000000000
H            8.94400000000000        8.44200000000000       27.22900000000000
H           10.55000000000000        8.40200000000000       28.08300000000000
C           10.85600000000000        7.61400000000000       25.09000000000000
H           11.02000000000000        7.49900000000000       24.00800000000000
C           11.02900000000000        8.83500000000000       25.64900000000000
H           11.35900000000000        8.92900000000000       26.69400000000000
H           10.84200000000000        9.74800000000000       25.06500000000000
C           12.02300000000000        3.55000000000000       21.68200000000000
H           13.12800000000000        3.66500000000000       21.65100000000000
H           11.55900000000000        4.55400000000000       21.78300000000000
H           11.68400000000000        3.06800000000000       20.73999999999999
C           12.02600000000000        0.30800000000000       21.86100000000000
H           11.61500000000000       -0.71200000000000       21.86600000000000
C           12.88900000000000        0.62900000000000       20.88400000000000
H           13.32800000000000        1.63600000000000       20.83600000000000
H           13.16800000000000       -0.11200000000000       20.12000000000000
C           10.22900000000000       -3.26000000000000       25.34000000000000
H           11.31100000000000       -3.49500000000000       25.43000000000000
H            9.98400000000000       -3.09100000000000       24.26900000000000
H            9.64100000000000       -4.11600000000000       25.73400000000000
C            8.48500000000000       -3.11000000000000       28.20100000000000
H            9.14400000000000       -4.00200000000000       28.13400000000000
H            7.50900000000000       -3.34700000000000       27.72600000000000
H            8.33400000000000       -2.85300000000000       29.27100000000000
O            7.67200000000000        2.45000000000000       26.15000000000000
H            7.17000000000000        2.70000000000000       26.92600000000000
H            7.34800000000000        2.32700000000000       25.33100000000000
C           15.75600000000000        2.77700000000000       27.35200000000000
H           16.42400000000000        1.88900000000000       27.37900000000000
H           16.06700000000000        3.48600000000000       28.14900000000000
H           15.84300000000000        3.26300000000000       26.35700000000000
N           13.91300000000000        1.69800000000000       28.73300000000000
H           14.50700000000000        1.45400000000000       29.49900000000000
C           14.33300000000000        2.34300000000000       27.58400000000000
C           12.61600000000000        1.46400000000000       28.64600000000000
H           12.03200000000000        0.95100000000000       29.40900000000000
N           12.16800000000000        1.95200000000000       27.49700000000000
C           13.22300000000000        2.49100000000000       26.80900000000000
H           13.08900000000000        2.93200000000000       25.82900000000000
78
 energy: -116.001567508120 gnorm: 0.122970232776 xtb: 6.7.1 (edcfbbe)
Fe          10.02414506936290        2.22264463488545       26.84058146269262
N            9.08788395280083        2.39316448590103       28.56115926121503
N           10.08823044024823        4.27835348000196       26.69167945536905
N           10.84621955015997        2.10912437656046       24.95105611555963
N            9.83721603200321        0.22457333727582       26.84794693382945
C            8.64941212949935        1.34707636926584       29.33606469589232
C            8.20846960524249        1.83841324913272       30.62758318233919
C            8.35623487034836        3.18569542250914       30.59110933461827
C            8.88115424582586        3.53925358468797       29.29218676756119
C            9.68344863596523        5.17619235014359       27.64341909712460
C            9.94649954665270        6.52655001233227       27.18726677171788
C           10.48467989654161        6.43171793058525       25.94700632317156
C           10.55890959205913        5.01614532459514       25.63945940458381
C           11.14786405728433        3.16195872995270       24.13288878536716
C           11.63291918480663        2.66785728423334       22.86616773522222
C           11.62637314127601        1.30341042661851       22.93805982216094
C           11.14753164298705        0.97089416019266       24.25804325693014
C           10.30061900040331       -0.65426688340526       25.89328336550235
C            9.89739034197188       -2.00280553682190       26.20158228586042
C            9.16588268519011       -1.92516339601173       27.42578756270673
C            9.16825748307535       -0.51572399128921       27.78950499210871
C            8.59388054204832        0.03357338269701       28.92809525894887
H            8.04459142405170       -0.64063056985181       29.57539031689553
C            9.14162160951375        4.82752428783712       28.86740173285228
H            8.91403051553602        5.63363380904491       29.55665844779406
C           11.03426707200020        4.49525448856417       24.45865873285828
H           11.35173190202435        5.21049786677759       23.70923094513043
C           11.02152661975713       -0.30017111520087       24.75986957044468
H           11.51453831735222       -1.09246926060199       24.20649078143138
C            8.07852971599776        4.14555387057106       31.71944375513135
H            8.09460270259505        3.60613837040810       32.67294999707049
H            7.09043998507328        4.60580997307388       31.59784141603099
H            8.84114574034245        4.93131571533423       31.74843924919473
C            7.70129942520053        1.01459433808311       31.80557103711801
H            7.85907327134965       -0.05462399526947       31.63089503797282
H            6.62838714168016        1.18757890985434       31.95620465784154
H            8.23117494038762        1.29326585455527       32.72562250492514
C            9.60370896615330        7.81607143167529       27.89629470482168
H            9.08823932028350        7.62642757702868       28.83843980829727
H            8.96382550446898        8.42907713993261       27.24593440663127
H           10.51516850338839        8.37983554939701       28.11523524638183
C           10.85886460940441        7.60262889706294       25.10325866239787
H           10.95550210068377        7.48455682320875       24.02175687211055
C           11.03880845274714        8.82518134041171       25.62954921062460
H           11.32469683529004        8.94722607781929       26.66581240588565
H           10.90517052293141        9.73066412371302       25.04367665711717
C           12.01790661922833        3.54453387865173       21.69119889066021
H           13.10865387084589        3.66811185328617       21.65385181723788
H           11.56297976140357        4.53627140104861       21.77852938325506
H           11.68581290212504        3.07877528983109       20.75670805138389
C           12.02923253720752        0.32955340409434       21.87246410504215
H           11.61128367335983       -0.67860742886187       21.89302578004932
C           12.88111059156399        0.63086617706666       20.89369681742039
H           13.33505642839125        1.61083922201379       20.83150688308415
H           13.15861593015540       -0.09909832801859       20.13716222565694
C           10.21793512218737       -3.23347309661888       25.36898242085232
H           11.28784653418018       -3.48396449676191       25.43411015612444
H            9.98343947486085       -3.08442739964368       24.30399444798891
H            9.64780757435499       -4.09706093576945       25.72884221756274
C            8.50619825911511       -3.08059839603911       28.17619473209012
H            9.13586871244143       -3.97879681402520       28.12992623416374
H            7.53243765294908       -3.33411353930209       27.73191035455977
H            8.34227608179126       -2.84603588041069       29.23724949128905
O            7.70513984827588        2.44759078829960       26.16642452852257
H            7.17279370207973        2.69819182392245       26.91958765459008
H            7.33690153461598        2.32476450196533       25.31113725384439
C           15.75061133038996        2.76991136818363       27.35587035985457
H           16.42089740043668        1.90152596699884       27.37851940384069
H           16.06727976283870        3.47550912860418       28.13441677330110
H           15.83830818499050        3.25393022731782       26.37807672579227
N           13.92460640697276        1.70010501901672       28.72818520635999
H           14.52047966752803        1.45065723850668       29.49826367694178
C           14.33589081806832        2.34464814805363       27.58538828773869
C           12.60592413010970        1.47873979513161       28.63728032787113
H           12.03054308743900        0.96509545873080       29.39147361454357
N           12.13843231495017        1.96933851248735       27.50611684103775
C           13.20939343340693        2.49108363156127       26.82750199572111
H           13.08516980777086        2.92655324320746       25.85184531417753
78
 energy: -116.027628625914 gnorm: 0.042551689682 xtb: 6.7.1 (edcfbbe)
Fe          10.00529629253137        2.22900714709008       26.79273745958991
N            9.12546079797850        2.38148871301634       28.57687021603675
N           10.09784650505315        4.28445960515832       26.68848460049952
N           10.80561804869840        2.10767056701048       24.93156602680911
N            9.82133733331083        0.22221745225783       26.83620764479509
C            8.65991314707932        1.34228191062357       29.33664348626967
C            8.20324807082165        1.82996321980620       30.62586751215987
C            8.36332587255290        3.18471684499268       30.59970731606734
C            8.90949992087517        3.52146388996003       29.30195741634394
C            9.69970717121339        5.17360241558466       27.64130973320299
C            9.94750849195394        6.52874468699856       27.20190130072854
C           10.52116826666200        6.44184599831656       25.95202163876894
C           10.57385509099641        5.01981177166500       25.64617766701173
C           11.13377698498702        3.15184016664995       24.12008005223732
C           11.63606583728467        2.66996294728466       22.85348276590834
C           11.64937837381754        1.29651834323143       22.93042914713473
C           11.14119819611951        0.97408840359265       24.25585887388339
C           10.28989433713302       -0.65857352809460       25.90924890629327
C            9.88902048606270       -2.00593707701082       26.24384458104853
C            9.18183566694952       -1.92750822024459       27.39525071928858
C            9.16451090786322       -0.52439487132343       27.76711372800537
C            8.60441463773146        0.01725519352938       28.92433704774303
H            8.07042639837969       -0.65710537212789       29.57947196736112
C            9.15661295391417        4.81657707167798       28.86911748350020
H            8.90884210174287        5.61935832848827       29.55066267827496
C           11.03751803977651        4.49715056239845       24.45387985033742
H           11.36073325677734        5.21203385871761       23.71225379569105
C           11.00304985957366       -0.30863393263148       24.76277561941521
H           11.46519519010824       -1.10397614777380       24.19244504338896
C            8.08084985797899        4.14062906168501       31.71044788127406
H            8.08990595763946        3.61425663507459       32.66230339366086
H            7.10166224120186        4.60529961106674       31.59310573677296
H            8.83150709526194        4.92689439160911       31.74576612986499
C            7.70574274544642        1.01982213281280       31.78031703664211
H            7.86064307825014       -0.04311708627399       31.62069893297846
H            6.64073105586372        1.18950340129089       31.94512189173340
H            8.22659263568190        1.29772737875171       32.69812528877123
C            9.59408352639326        7.78742402649260       27.91999296692735
H            9.06024042063508        7.60270426976018       28.84260317361017
H            8.98077214969991        8.41531324935925       27.26637340380490
H           10.48835092615427        8.35368794951709       28.16748941872866
C           10.84638322833404        7.58266653575853       25.12040736168906
H           10.86931042973793        7.45216160994774       24.03783543416048
C           11.04832476974912        8.81369255433195       25.60493910777226
H           11.27852799692583        8.97389434093118       26.64214319072754
H           11.00730429653537        9.70701502265022       24.99181629815592
C           12.01226788959651        3.53760307843434       21.70101709714242
H           13.09467671871399        3.67281815334592       21.65786101082543
H           11.55846048538468        4.52155743606316       21.77972714849869
H           11.68782231609570        3.08278551176234       20.76690004582569
C           12.03659636922336        0.35269855390831       21.89875994267124
H           11.60402029046025       -0.64284408746689       21.93606260340055
C           12.87925017740689        0.63097068888552       20.90666937472367
H           13.35388508035776        1.58980039090080       20.82491444857899
H           13.14062999304174       -0.09354713743131       20.15171706565805
C           10.20813128914179       -3.21279047088356       25.40296203220189
H           11.27237765982156       -3.46120241047426       25.45294913173948
H            9.97137142983336       -3.05446221189325       24.34781372455366
H            9.64590239910552       -4.08056837653256       25.74115243655167
C            8.52738080672848       -3.05438204009986       28.15036869103841
H            9.14223614945779       -3.95448592810975       28.11476691249621
H            7.55384922425534       -3.30874565574164       27.72163437786377
H            8.36242506656558       -2.81538615508251       29.20156437173771
O            7.75194156026595        2.43771313044407       26.16495835086182
H            7.18448037017208        2.69146615633025       26.89438280153573
H            7.33371888458248        2.32688912750513       25.31046433721533
C           15.74349109560629        2.76280996000645       27.35725384597175
H           16.41426766829190        1.90491343758766       27.37881564754597
H           16.06371710190303        3.46575129234031       28.12625209991876
H           15.83059319540433        3.24682030688329       26.38975990778703
N           13.92922655899535        1.69914710595875       28.72499110273534
H           14.52432994519096        1.44277144973801       29.49666826546013
C           14.33462059920279        2.34591978446943       27.58606512556670
C           12.59545271824487        1.49721734450919       28.63291964795548
H           12.02314507148423        0.98555585544032       29.38077142014009
N           12.12275350293706        1.98361039287779       27.51256564830790
C           13.19783007247330        2.50176817948389       26.84388241092589
H           13.08295766061764        2.93632210323095       25.87221804749550
78
 energy: -116.037433705640 gnorm: 0.027082492901 xtb: 6.7.1 (edcfbbe)
Fe          10.00051983623068        2.23120977036439       26.77236463564539
N            9.15746802476899        2.37085001960757       28.58782294293452
N           10.11775166965463        4.28076325495117       26.69143835731341
N           10.77700204551123        2.11372514850612       24.91944879952250
N            9.80850749322390        0.22665578125616       26.82445439966875
C            8.68006131110089        1.33654350988607       29.34004783001442
C            8.21344755207083        1.82499056110990       30.62217099923842
C            8.38063205109647        3.17864799023147       30.60181186037392
C            8.94303701490623        3.50772747682723       29.31098349616678
C            9.72168633848303        5.16142698270891       27.65067752164154
C            9.96083999551281        6.51739099939303       27.22498068923059
C           10.52832419818326        6.44093912830624       25.96984453998455
C           10.58651411531740        5.02186058851203       25.65414085851081
C           11.11660974569456        3.15862455227536       24.11384095094949
C           11.63566885792900        2.68025832531634       22.85572028303291
C           11.65749796715770        1.30724543640626       22.93622182727018
C           11.12425908430328        0.98214299427678       24.25118324194984
C           10.28337252166401       -0.64905501106668       25.90077260304227
C            9.90095345469013       -2.00141399848725       26.24578660215721
C            9.17804959485623       -1.91872854617712       27.39794998520116
C            9.15931333233049       -0.51512739199828       27.76343470838563
C            8.61666731823231        0.01248880721441       28.92818673160173
H            8.10365151480649       -0.67087672601389       29.59188168187616
C            9.18044732059232        4.80151511405112       28.87717446491246
H            8.91259620313569        5.60227787655651       29.55275604671708
C           11.03702450265851        4.50423109441522       24.45333091378749
H           11.37269098260942        5.21977316398454       23.71763190478980
C           10.98018272237100       -0.30351837589351       24.74985411997136
H           11.40729706222667       -1.10773590906845       24.16206879513003
C            8.08386083313722        4.13875327079533       31.70357159143504
H            8.08312818011842        3.61900377193227       32.65964025132708
H            7.10554486658876        4.60373499013829       31.57581658529470
H            8.83117868401255        4.92850782571347       31.74233501149603
C            7.70515259837323        1.01640981186213       31.76660766491020
H            7.86038992116713       -0.04648018196607       31.60759802272933
H            6.64049912579840        1.19002291983975       31.92820930131934
H            8.22485826887713        1.29897801822790       32.68334473066138
C            9.58183389698969        7.75793440658544       27.95904004418440
H            9.00740655307885        7.55304656294203       28.85736025555835
H            8.99406495687635        8.40161722312499       27.29567932109435
H           10.46697601931125        8.32066699559199       28.25734547567694
C           10.82329516199030        7.56866731680312       25.11789995882438
H           10.78810260881851        7.40827618767361       24.03699809255836
C           11.06948408425401        8.80942262324878       25.55875640732632
H           11.24264308262843        9.00913747080075       26.60575607254393
H           11.12910917393415        9.68018322630884       24.89710886194500
C           12.00882242850336        3.54262668559707       21.70252820764304
H           13.09008849437089        3.68689483687239       21.65994443727190
H           11.54395380318954        4.52196753746800       21.77759674965774
H           11.69001223507607        3.08098058762701       20.76916507323952
C           12.04433223645717        0.36293814349642       21.91702790792832
H           11.60186123208460       -0.62603136537988       21.97693221152437
C           12.88168400729205        0.62144736854856       20.91306032612312
H           13.38528864546955        1.56690971100887       20.82180625537733
H           13.11967643724488       -0.11121636019189       20.16017705656970
C           10.21097057341168       -3.20592686090479       25.41786584538074
H           11.27422797039820       -3.44663643086274       25.46827774447702
H            9.96010913135589       -3.02977387951842       24.37163804655144
H            9.64518164015867       -4.06828003113777       25.76085506709533
C            8.53195033052519       -3.04033045327029       28.14562153968782
H            9.15106229045366       -3.93537796656529       28.10314229027803
H            7.56066600324538       -3.28493163777242       27.71125208646430
H            8.37599723308121       -2.78608539644979       29.19135942829515
O            7.78791370952109        2.42391704428037       26.14269947702853
H            7.20746205821015        2.68345417695464       26.86078225482299
H            7.34205476462107        2.32826735179870       25.29772581555030
C           15.73449422500016        2.75585204260236       27.35779928896325
H           16.40306093070610        1.89618161158812       27.37763561206616
H           16.06115907098812        3.45747611081998       28.12542102920640
H           15.82061399393146        3.24086771086165       26.39099678758071
N           13.91864258724256        1.69866301002934       28.72539767599747
H           14.51466039925791        1.42973226740947       29.49239198854610
C           14.32408444196509        2.34938540493547       27.58871442113880
C           12.57952364899181        1.51613534270758       28.63612620825944
H           12.00326508484071        1.00816292402344       29.38202418195042
N           12.10859195424879        2.01345771664185       27.52201847857358
C           13.18524655249055        2.52384649706729       26.85413070387359
H           13.07474003839382        2.96671124264038       25.88683636297247
78
 energy: -116.042821123871 gnorm: 0.018635563102 xtb: 6.7.1 (edcfbbe)
Fe          10.01128516411536        2.23932802752507       26.76501184305289
N            9.18680311515104        2.36042577618536       28.59693356647061
N           10.13097640962507        4.27503534474557       26.69268697602044
N           10.75485385151260        2.12429034115742       24.91409113614662
N            9.80346980965869        0.24155637056959       26.81529400793660
C            8.70350904451990        1.33092025925766       29.34459006511436
C            8.22729067995677        1.81909530484249       30.62001811630493
C            8.40150342706450        3.17091027693310       30.60519561770595
C            8.97736063086168        3.49364382180752       29.32091398190374
C            9.74458423606777        5.14745175478334       27.66203439767789
C            9.96451676688517        6.50571740440121       27.24320181963715
C           10.51279076423162        6.44033275657835       25.98029804365929
C           10.58629597445747        5.02489488938031       25.65830927190046
C           11.10170798294777        3.16993581991597       24.11162997071802
C           11.63655794132555        2.69458150691177       22.86156764245766
C           11.66238228510610        1.32309519157437       22.94449572794343
C           11.10334219488359        0.99521409969146       24.24711269230003
C           10.27105376046085       -0.63248534220093       25.89070219004517
C            9.90199723527797       -1.98647939884706       26.24474725690164
C            9.18817958196274       -1.90250621219344       27.40063200731803
C            9.16380777204608       -0.49963431488468       27.76002001960031
C            8.63810540201647        0.00825536111003       28.93471379402715
H            8.14670438405414       -0.68636524929409       29.60303193319464
C            9.21100673534071        4.78507357747912       28.88915756294987
H            8.93252858515789        5.58175443150680       29.56298809918813
C           11.03323660268858        4.51427602677546       24.45333994312630
H           11.38121344023692        5.22954211337209       23.72277076319922
C           10.94489240943943       -0.29371725362194       24.73026510900306
H           11.33570399033538       -1.10547629003667       24.12776559690184
C            8.08857456607680        4.13697533958894       31.69613897417022
H            8.07466457372281        3.62522254847226       32.65699641914776
H            7.11036434448237        4.59863831602985       31.54992781214171
H            8.83265128326331        4.93020295876378       31.73868430769519
C            7.70333026871254        1.01012355137868       31.75553372687147
H            7.85679258884461       -0.05266877202948       31.59535357816754
H            6.63800959140922        1.18769242243429       31.90577847555528
H            8.21614706148669        1.29205967978275       32.67632286888987
C            9.57481002641509        7.73151292773666       27.99306032037676
H            8.95941938656808        7.49972069097177       28.86210734082150
H            9.01232443706023        8.39640632592769       27.33053400915293
H           10.45414196739233        8.28011996078186       28.34437483313614
C           10.80739979825064        7.55126149693929       25.10975111122708
H           10.74345558576237        7.35823596532501       24.04204626007062
C           11.09668209304467        8.79172545464889       25.51101999074959
H           11.24253669775147        9.03327127389519       26.55009199860259
H           11.17513359012251        9.62449685159298       24.83552978206111
C           12.00757724184216        3.55103015692762       21.70409696655816
H           13.08697858429722        3.70785361980429       21.66239300793654
H           11.52802737267596        4.52476796095757       21.76942831505298
H           11.69808213154919        3.07580083399533       20.77360585637670
C           12.05114343054688        0.37192049214444       21.93553819633388
H           11.59638741226558       -0.60933886197469       22.01528196114354
C           12.88919219968854        0.60584300275228       20.92618195588793
H           13.40776378358481        1.54164899681465       20.81384061761820
H           13.10352559636569       -0.14006813463401       20.17927826746795
C           10.21069491176270       -3.19370860422857       25.43121655102455
H           11.27344492761095       -3.43132532519889       25.47754127706131
H            9.94946331540886       -3.01860224925820       24.38928047792498
H            9.64801058090045       -4.05368488708392       25.78357526140583
C            8.54209245666923       -3.02063671478701       28.14293873000577
H            9.15712616221993       -3.91731696064984       28.09553937849103
H            7.56953516441706       -3.25760593356096       27.70875721578183
H            8.39078417557674       -2.76385859033158       29.18677289594736
O            7.82946599520510        2.40666236166659       26.11262382788472
H            7.23014306120597        2.67735856858157       26.81348266473848
H            7.36134539400025        2.33354218661982       25.27616321906597
C           15.72317499119920        2.74755721152460       27.35944187737583