78
 energy: -115.936206203987 gnorm: 0.363349035744 xtb: 6.7.1 (edcfbbe)
Fe         -11.59600000000000        2.48900000000000        1.40100000000000
N          -12.17800000000000        0.77700000000000        2.37400000000000
N           -9.89400000000000        2.53900000000000        2.59200000000000
N          -10.93100000000000        4.17400000000000        0.39200000000000
N          -13.22400000000000        2.31200000000000        0.12700000000000
C          -13.25900000000000        0.09200000000000        2.04200000000000
C          -13.28000000000000       -1.07000000000000        2.88700000000000
C          -12.19100000000000       -1.05400000000000        3.64500000000000
C          -11.44000000000000        0.13000000000000        3.31200000000000
C           -9.57300000000000        1.62300000000000        3.51600000000000
C           -8.39300000000000        2.10500000000000        4.15800000000000
C           -8.02800000000000        3.22500000000000        3.57800000000000
C           -9.00000000000000        3.54600000000000        2.54800000000000
C           -9.80100000000000        4.81700000000000        0.67000000000000
C           -9.61200000000000        5.80600000000000       -0.37100000000000
C          -10.64500000000000        5.69800000000000       -1.19900000000000
C          -11.49500000000000        4.63900000000000       -0.71100000000000
C          -13.47500000000000        3.27100000000000       -0.76900000000000
C          -14.82700000000000        3.03700000000000       -1.23000000000000
C          -15.31300000000000        1.82900000000000       -0.49100000000000
C          -14.22200000000000        1.46200000000000        0.36800000000000
C          -14.22800000000000        0.40500000000000        1.17700000000000
H          -15.09200000000000       -0.25800000000000        1.13000000000000
C          -10.24800000000000        0.52400000000000        3.88200000000000
H           -9.83000000000000       -0.09400000000000        4.67700000000000
C           -8.97300000000000        4.60800000000000        1.71400000000000
H           -8.21200000000000        5.36600000000000        1.90200000000000
C          -12.66700000000000        4.24100000000000       -1.24700000000000
H          -12.99300000000000        4.75200000000000       -2.15300000000000
C          -11.72600000000000       -2.05700000000000        4.71300000000000
H          -12.46700000000000       -2.88000000000000        4.79600000000000
H          -11.64300000000000       -1.54700000000000        5.69600000000000
H          -10.74300000000000       -2.48500000000000        4.42300000000000
C          -14.41900000000000       -2.09700000000000        2.80000000000000
H          -14.45500000000000       -2.52500000000000        1.77500000000000
H          -15.38900000000000       -1.60100000000000        3.01700000000000
H          -14.24100000000000       -2.91800000000000        3.52700000000000
C           -7.71000000000000        1.36700000000000        5.28900000000000
H           -7.87600000000000        0.27500000000000        5.17300000000000
H           -8.13500000000000        1.69500000000000        6.26200000000000
H           -6.61800000000000        1.57000000000000        5.26400000000000
C           -6.81900000000000        4.10400000000000        3.88300000000000
H           -6.34500000000000        4.67100000000000        3.06800000000000
C           -6.31100000000000        4.22300000000000        5.06000000000000
H           -6.74400000000000        3.67900000000000        5.91200000000000
H           -5.43800000000000        4.87000000000000        5.22800000000000
C           -8.44300000000000        6.75600000000000       -0.51700000000000
H           -7.57600000000000        6.36900000000000        0.06000000000000
H           -8.72100000000000        7.75700000000000       -0.12200000000000
H           -8.15600000000000        6.83600000000000       -1.58700000000000
C          -10.89400000000000        6.47000000000000       -2.49200000000000
H          -11.35400000000000        5.93800000000000       -3.33700000000000
C          -10.60800000000000        7.71200000000000       -2.68600000000000
H          -10.14500000000000        8.31000000000000       -1.88700000000000
H          -10.82300000000000        8.19000000000000       -3.65300000000000
C          -15.60400000000000        3.81800000000000       -2.27500000000000
H          -15.17000000000000        3.62700000000000       -3.28000000000000
H          -15.54000000000000        4.90500000000000       -2.05500000000000
H          -16.66600000000000        3.49200000000000       -2.27400000000000
C          -16.68200000000000        1.15900000000000       -0.59000000000000
H          -17.17200000000000        1.45600000000000       -1.54200000000000
H          -17.32000000000000        1.48200000000000        0.26000000000000
H          -16.56100000000000        0.05500000000000       -0.57700000000000
O          -10.67200000000000        1.43400000000000        0.21900000000000
H          -11.32100000000000        1.10100000000000       -0.40100000000000
H           -9.80000000000000        1.25900000000000        0.21200000000000
C          -14.99600000000000        6.27000000000000        3.81500000000000
H          -14.53200000000000        7.26000000000000        4.01200000000000
H          -15.60000000000000        5.97300000000000        4.69900000000000
H          -15.64800000000000        6.34900000000000        2.91900000000000
N          -12.95700000000000        4.93800000000000        4.48600000000000
H          -12.86800000000000        5.35300000000000        5.39100000000000
C          -13.92800000000000        5.26000000000000        3.57300000000000
C          -12.18300000000000        4.01400000000000        3.98200000000000
H          -11.32100000000000        3.58400000000000        4.49100000000000
N          -12.62300000000000        3.71400000000000        2.79500000000000
C          -13.68600000000000        4.49600000000000        2.49300000000000
H          -14.17700000000000        4.43700000000000        1.53000000000000
78
 energy: -116.015525240414 gnorm: 0.144628207959 xtb: 6.7.1 (edcfbbe)
Fe         -11.60070202768380        2.50657523701634        1.43497631922080
N          -12.15468885311926        0.79039861146097        2.36041493115955
N           -9.90820669049118        2.54404804646888        2.57364356489968
N          -10.93624991577099        4.14830197063274        0.39762520466687
N          -13.20192276979686        2.33019464769007        0.15819217939161
C          -13.25641479473966        0.08480344612826        2.06250125329045
C          -13.29363885314200       -1.09705207719115        2.89418439786379
C          -12.18866234735694       -1.07484722639150        3.66303917610295
C          -11.45531690156034        0.12479916612800        3.31367469995925
C           -9.57211044541359        1.64376445400742        3.52104636716752
C           -8.37063426498222        2.09776842119249        4.17292741909933
C           -8.00197367478374        3.25090107580410        3.58190065762825
C           -8.99319172504162        3.53867635309131        2.56016518623152
C           -9.80814201812343        4.82907729937313        0.65993846487413
C           -9.60846357596231        5.82506430892936       -0.37858188979941
C          -10.65057366152855        5.70532306727646       -1.23158438202001
C          -11.49293079479253        4.63955503116273       -0.72048543875420
C          -13.50708583105045        3.25039288412051       -0.77420548515493
C          -14.85786216654413        3.00308854001804       -1.23080685281605
C          -15.31838835751037        1.86500836822727       -0.52382117981873
C          -14.23217296044672        1.48637159889520        0.34149365382087
C          -14.24357167431097        0.40165843204587        1.17460491401118
H          -15.09950304794402       -0.25708898416183        1.12808417827010
C          -10.26196480066661        0.51845802228736        3.88249633734857
H           -9.84396884589093       -0.09810047049463        4.66917324640291
C           -8.96330942827867        4.61807068122852        1.71808864785607
H           -8.19716917199493        5.36168818233149        1.89595161767624
C          -12.68471237866766        4.24213723386186       -1.26348994460365
H          -13.00959632943594        4.76030721198624       -2.15502116566453
C          -11.73054754769690       -2.05797750851865        4.70987931167624
H          -12.45511260661770       -2.87337409192101        4.79893932258725
H          -11.64176907577692       -1.55701214802442        5.68131784524622
H          -10.75704860182458       -2.47867235326842        4.43082541358579
C          -14.41318047642719       -2.10172432743346        2.80512253851298
H          -14.45492050296552       -2.52244699817215        1.79226471508865
H          -15.37262657360155       -1.61403414086531        3.01840454108529
H          -14.25015190927683       -2.91311813569208        3.51951911672722
C           -7.70237262913224        1.36134437906759        5.29028531462136
H           -7.86663534555543        0.28435379084734        5.18116356851699
H           -8.12206475966623        1.68451725234415        6.25243043166439
H           -6.62679549409272        1.56225946746115        5.27262462753196
C           -6.82669085294358        4.10178226034512        3.87322281577494
H           -6.36946313310294        4.65781050964760        3.05622845964050
C           -6.30344351586237        4.22425191779548        5.07538110658802
H           -6.72965696139596        3.69943579448803        5.92124456554576
H           -5.44212907550217        4.86148625144074        5.24349747148556
C           -8.44073958141210        6.75355383650433       -0.51182738118350
H           -7.58155619579114        6.37727741574262        0.05374555481381
H           -8.70795391702308        7.74594409329774       -0.12727329267341
H           -8.15935344075901        6.84119639428092       -1.56832593464049
C          -10.89700561440410        6.45374558488341       -2.48770834859298
H          -11.35642737547398        5.91619284781190       -3.31598717804529
C          -10.60219261320378        7.72288709991499       -2.68474598874677
H          -10.15261513734696        8.32132283405758       -1.90140288947467
H          -10.81364374505110        8.19901384444332       -3.63731061765982
C          -15.60154711472492        3.80298642244934       -2.26446591747315
H          -15.17758889369210        3.62977277989826       -3.26446186198812
H          -15.54187062836410        4.88074531372775       -2.05571782250781
H          -16.65377229130473        3.50179470683048       -2.27744721409564
C          -16.66285153355294        1.17933400773989       -0.59908656228152
H          -17.16962812938479        1.45192722941703       -1.53082348465579
H          -17.30437854127921        1.47704943716069        0.24360253773779
H          -16.55727388210015        0.08475094457128       -0.57705031208468
O          -10.67677755289684        1.42709427084338        0.20159568189849
H          -11.31080279890983        1.08049566522117       -0.42835174640763
H           -9.75784930776654        1.23206332891624        0.18663950631671
C          -14.99625531270060        6.27741480987681        3.82079505085410
H          -14.54567392711776        7.25811383774203        4.01374064393006
H          -15.60002924412645        5.98559784378704        4.68871768864391
H          -15.63893642305075        6.34868949202793        2.93763039631612
N          -12.97011591797910        4.95215033030352        4.49679729276345
H          -12.87739657082801        5.36738632819290        5.40549314746484
C          -13.93460190845472        5.27023971456879        3.57715218269354
C          -12.18581802385109        4.00766504213415        3.97538591174669
H          -11.33421764032697        3.58171539948740        4.47962918294154
N          -12.60519131899556        3.70584470769049        2.77445576017112
C          -13.68166267099428        4.48635352933938        2.49548908324822
H          -14.17253537866205        4.43045545447005        1.54163968678165
78
 energy: -116.037404213255 gnorm: 0.039682587271 xtb: 6.7.1 (edcfbbe)
Fe         -11.59417351448078        2.51655868948146        1.45423712097549
N          -12.14870984761396        0.81410560518003        2.35406996236334
N           -9.92942633055212        2.55875933897404        2.56845212780572
N          -10.94615123564227        4.12898814609463        0.40735927872176
N          -13.19428161916823        2.36398040095242        0.20606048629225
C          -13.26024707591978        0.09019331954095        2.07819757912218
C          -13.30408150528214       -1.10607576758919        2.89648026269579
C          -12.18952031285417       -1.08044854968990        3.67184921933077
C          -11.47300812115568        0.13072463960167        3.31323666780741
C           -9.57661220452751        1.66795786669038        3.52918805116721
C           -8.36245731867793        2.09632081806605        4.18379798880786
C           -7.99054902901787        3.27174787802759        3.58834311509094
C           -8.99037137128074        3.53610111554268        2.56906610519152
C           -9.81762491905142        4.83805736385943        0.65309585082729
C           -9.61525192123126        5.83663359040168       -0.37823478808957
C          -10.66040625085339        5.70606161680046       -1.25172780172661
C          -11.49361812115339        4.63342254703841       -0.72561234028743
C          -13.53455649385859        3.24407076440804       -0.76976016710140
C          -14.87901463863961        2.97390250833867       -1.23346437713723
C          -15.31742473921918        1.89212511864153       -0.54956516395682
C          -14.24241824205404        1.51241543922536        0.33543193679703
C          -14.25495357304268        0.41077618586882        1.17580495055407
H          -15.10496388070648       -0.24847978346057        1.12468584305309
C          -10.27598791453532        0.52297586894374        3.87884198717199
H           -9.85837117272448       -0.09726573468835        4.65739389750993
C           -8.95658307439586        4.62396491031639        1.71647063994265
H           -8.17713294234136        5.35183482900547        1.87931400523585
C          -12.70259323840775        4.24217096406232       -1.26956784895734
H          -13.03299483146974        4.77031376483351       -2.14955388089708
C          -11.73504714035523       -2.05449759969879        4.70323127722528
H          -12.44695859704876       -2.86930912291212        4.80009079038681
H          -11.63922360637240       -1.56499956991817        5.67190363798579
H          -10.76563828802710       -2.47405139004212        4.43642088795748
C          -14.40470465546355       -2.10459767503034        2.81188839466640
H          -14.45456554615338       -2.52504330995798        1.80737347759715
H          -15.36142839522216       -1.62808413566634        3.02440821866573
H          -14.25453883670785       -2.91402928129036        3.51855048846134
C           -7.69585779930939        1.35675297155953        5.28791727538021
H           -7.85540393022843        0.28683792605092        5.18672739886035
H           -8.10604583283029        1.67112579807277        6.24911643324072
H           -6.62802130959102        1.55585579260512        5.28127557453853
C           -6.84020805776118        4.09687356241136        3.87288582814745
H           -6.40128540209660        4.64565748821796        3.04899298994028
C           -6.30012721080101        4.22477257540799        5.08199093185323
H           -6.71915726174536        3.72384618071184        5.93347561960467
H           -5.44244835075849        4.85229452296564        5.24769494399468
C           -8.44508680924273        6.75001817965991       -0.50412011684825
H           -7.58856584644840        6.37756216030214        0.05064982396644
H           -8.69362248800971        7.74091106134227       -0.12413493175171
H           -8.16604148148689        6.84876747888488       -1.55278479079709
C          -10.90175242796711        6.43924609455013       -2.47642537108536
H          -11.36686344631598        5.89464559880614       -3.28925485641194
C          -10.59740489602741        7.71867863660743       -2.68004352666479
H          -10.16105276164339        8.32623960885713       -1.90985085612169
H          -10.80488647038889        8.19589546062600       -3.62297519419407
C          -15.60070657928159        3.78639953287928       -2.25875004305704
H          -15.17724399522828        3.62579913173308       -3.25257817116120
H          -15.53597323206411        4.85436867450057       -2.04390666574958
H          -16.65045413097625        3.50662597994116       -2.28440330781769
C          -16.64403014615719        1.19971366463329       -0.61268414583410
H          -17.16741321527189        1.45606773445081       -1.53059425670426
H          -17.27826208001341        1.48461981004721        0.23115099685797
H          -16.53455972602569        0.11416815487261       -0.58123073272474
O          -10.65963609301759        1.41024672111947        0.16287288922749
H          -11.26861777182786        1.03648954871314       -0.47849201627941
H           -9.72866227556518        1.19082398092070        0.14301493142434
C          -14.99562848953352        6.28050776503228        3.82270169849636
H          -14.55685243691219        7.25766924072850        4.01662219398608
H          -15.60137650580119        5.99651470601100        4.68198942368415
H          -15.63524029578642        6.35104361071794        2.94949252571975
N          -12.97916066952112        4.95749552958017        4.50193838517429
H          -12.88534308541813        5.37201107815848        5.41406880167654
C          -13.93618556240794        5.27262491688050        3.57543955360804
C          -12.18560866584701        4.00340082353006        3.96814753866121
H          -11.34465782676052        3.57780564496997        4.47293696391222
N          -12.58152419940232        3.70031299613372        2.75526319365756
C          -13.67069758523413        4.47781124517600        2.49587865459462
H          -14.16874314408602        4.42321704167947        1.55122653173920
78
 energy: -116.043016996031 gnorm: 0.032670708367 xtb: 6.7.1 (edcfbbe)
Fe         -11.58487566406499        2.50894762411613        1.44116676397152
N          -12.15670810851687        0.82833961536269        2.35628359764340
N           -9.94405771857606        2.56961452008526        2.57339043505814
N          -10.94945445759141        4.12059772016946        0.41240995185780
N          -13.20671530628197        2.39249388963417        0.23359519064723
C          -13.27089188845689        0.10019947093992        2.08901629976379
C          -13.31068686501404       -1.10128672533420        2.89999314257929
C          -12.19361766685189       -1.07433467388282        3.67456381834973
C          -11.48591302371231        0.14111650107395        3.31693268409099
C           -9.58773355965605        1.68217602676203        3.54045719002774
C           -8.37136756286444        2.09937501910310        4.19423086129510
C           -7.99869018653004        3.28037319497187        3.59878796844297
C           -8.99419962571185        3.53888664044404        2.57482843686620
C           -9.82037764409619        4.83784800606816        0.65290495029375
C           -9.62277291837896        5.83938684407294       -0.36967485283489
C          -10.66871124295458        5.70518515008957       -1.24723179610923
C          -11.49675531888039        4.63105774852389       -0.72105054419200
C          -13.54714941596394        3.25975372180762       -0.75883847213771
C          -14.88165682824864        2.97879550140000       -1.24336271094579
C          -15.32214850864621        1.89832629894743       -0.54993587218174
C          -14.25459885672165        1.53338430120804        0.35199194436720
C          -14.26727184990457        0.42704890533397        1.18719823253661
H          -15.11629486784605       -0.23424294951221        1.12904768280600
C          -10.28995027709536        0.53305655720558        3.88219606736395
H           -9.87316952044766       -0.09443344613942        4.65423096492235
C           -8.95239429281280        4.62196304998563        1.71321671962058
H           -8.15252135963294        5.33409017030259        1.85602721618553
C          -12.71411864731600        4.25215298261981       -1.26179181755092
H          -13.05474098924408        4.79118185458745       -2.13325913438367
C          -11.73527265271541       -2.05087475158275        4.70013236663239
H          -12.44365380496643       -2.86864475396066        4.79818779712717
H          -11.63594820971337       -1.56690654253679        5.67110184238395
H          -10.76535656684465       -2.46890540217318        4.43348758757914
C          -14.40177726547567       -2.10959797898531        2.82091588437740
H          -14.45439090311971       -2.53404872344514        1.81853787733446
H          -15.36243601203773       -1.64387327922526        3.03785461970534
H          -14.24683073695514       -2.91885076132060        3.52726685612325
C           -7.69133660572635        1.35233564036570        5.28674800390559
H           -7.84311370199343        0.28149151000636        5.18278311738441
H           -8.09008398812716        1.65403802832721        6.25675524129326
H           -6.62362069227797        1.55480238592722        5.27942515213417
C           -6.84911295012377        4.10117616514544        3.88066308898915
H           -6.42488794350156        4.64445013406082        3.04505293887087
C           -6.29486529183361        4.23538201272481        5.08564790045787
H           -6.71002683391389        3.75525212081202        5.95226509582001
H           -5.42811849811387        4.85208355239032        5.24270736256709
C           -8.45085702276224        6.74987607737304       -0.49278825980721
H           -7.59194214442191        6.36747226080061        0.05104538270894
H           -8.68410182542071        7.74064935517830       -0.10276774649834
H           -8.17833031670093        6.86053556821120       -1.54174763807272
C          -10.91349911067150        6.43257811120410       -2.46808344323799
H          -11.39122639096492        5.87846528829175       -3.26793018192576
C          -10.60028983121425        7.71048487154864       -2.68034119205411
H          -10.16587827049268        8.32718095761543       -1.91591949307015
H          -10.79945993015992        8.18706704089579       -3.62427670710808
C          -15.59810198032164        3.78555117804785       -2.27056756871412
H          -15.16840358025962        3.62601307774268       -3.25962283077762
H          -15.52886023017497        4.84779394970722       -2.04138221047332
H          -16.64890852820936        3.51072231216159       -2.30238108364830
C          -16.63976519496229        1.20500327281929       -0.62170359538918
H          -17.16547069484878        1.46166601125483       -1.53732953320865
H          -17.26563378327040        1.49023828073845        0.22546752360787
H          -16.51451485046823        0.12421889375538       -0.59115828040411
O          -10.62928044415492        1.38736882379640        0.10767775593982
H          -11.21562150358519        0.97610327277282       -0.53545728352043
H           -9.70012684296129        1.14013272492096        0.09570744192669
C          -14.99323748065631        6.27737360763578        3.81997770789223
H          -14.55923447488009        7.25608382052878        4.01766007145859
H          -15.60218816373465        5.99691600428832        4.67799715783214
H          -15.63435513337564        6.35172078807241        2.94913207678874
N          -12.98105758405902        4.95233697250814        4.50142110208455
H          -12.89186081488472        5.36409884446938        5.41634901120593
C          -13.93285166583970        5.26807768202354        3.56998059036364
C          -12.18090126593646        4.00076944834965        3.96351357671884
H          -11.34680151675994        3.57005852145215        4.47359687534148
N          -12.56323415106278        3.69925191458126        2.74478325579825
C          -13.65744511987300        4.47468029995698        2.49082239902399
H          -14.16218332345332        4.41814789082044        1.55046746817935
78
 energy: -116.047963406999 gnorm: 0.030833162713 xtb: 6.7.1 (edcfbbe)
Fe         -11.58790524149308        2.51477473695365        1.43687283503426
N          -12.16299125666628        0.83677749711222        2.34911710135647
N           -9.95175693325221        2.57210731981817        2.56913040148316
N          -10.94758746985753        4.10563214940188        0.41398279347260
N          -13.21166621017490        2.41629788820483        0.25389988925694
C          -13.28222955559151        0.10787456673601        2.09440151906978
C          -13.31870427248286       -1.09271877733028        2.90357029143873
C          -12.19860219062665       -1.06469037108320        3.67500451168583
C          -11.49552189786903        0.14959789302036        3.31430745310292
C           -9.59650318346528        1.69162670665226        3.54831571926634
C           -8.38726556479974        2.10439391306369        4.20767923439268
C           -8.01198081435909        3.28747979613889        3.61135442924344
C           -8.99652457018596        3.53880379725458        2.57698845579281
C           -9.81864693607404        4.83132359958528        0.65070045808152
C           -9.63143208174312        5.84065597804836       -0.35756755907540
C          -10.67989113054443        5.70530033060556       -1.23526311738532
C          -11.49834280544938        4.62672105366882       -0.71418925494880
C          -13.55156481726070        3.27585853580390       -0.74739872469760
C          -14.87626482924659        2.98652705097375       -1.24905160309344
C          -15.31981154881929        1.90484673492030       -0.54908768538617
C          -14.26025861595346        1.55467179360100        0.36881772616847
C          -14.27994983120502        0.44691034479939        1.19822194010436
H          -15.13455262000904       -0.20949448710890        1.13748099500808
C          -10.30273160987074        0.54246944074996        3.88253682994509
H           -9.89215589318104       -0.08883844024610        4.65455351971106
C           -8.94399777880940        4.61297775820599        1.70490598811886
H           -8.12653449409166        5.30958303514298        1.82791582471196
C          -12.72527903610624        4.26642221604595       -1.24870493653244
H          -13.08066942380046        4.82046227958722       -2.10711502807383
C          -11.73453583059852       -2.04403442591159        4.69636788089549
H          -12.44092849194674       -2.86465365171920        4.79444868968513
H          -11.63138485225491       -1.56480295642464        5.67019196113408
H          -10.76427064425161       -2.46054779205075        4.42521010190955
C          -14.40040337834436       -2.11376524916815        2.83341709873814
H          -14.45443617819809       -2.54518322770589        1.83335925053135
H          -15.36720387566006       -1.66206944149929        3.05643458926266
H          -14.23053378657691       -2.92005347462369        3.54224284829862
C           -7.68998449211702        1.35055331984534        5.28675524453822
H           -7.82948222104067        0.27758017211462        5.17105579999806
H           -8.07605425541614        1.63295842263199        6.26897693963089
H           -6.62251423440976        1.56381134472761        5.27122653233770
C           -6.86022699576538        4.10805657126298        3.89135426516146
H           -6.44774992669655        4.64043791240834        3.04175907327698
C           -6.29134233909154        4.25163568107030        5.08814917770700
H           -6.69230851260289        3.78578710351926        5.97137533065936
H           -5.41471051890117        4.85942866663073        5.23364834488049
C           -8.45920703728540        6.75089350551426       -0.47784209380009
H           -7.59418035548405        6.35094579086380        0.04634691614553
H           -8.67635625251249        7.73719588244735       -0.06427060034251
H           -8.20016670413801        6.88187431100867       -1.52894693788113
C          -10.93289420861320        6.42790962004378       -2.45664175201451
H          -11.42363377180562        5.86123516527335       -3.24115850043465
C          -10.60634138162975        7.69976279409052       -2.68183552037689
H          -10.16182845529779        8.32356606437461       -1.92714155793788
H          -10.79937617589995        8.17579330873086       -3.62801366599848
C          -15.58910046463717        3.78531065844159       -2.28229798407554
H          -15.15398017410349        3.62766029395197       -3.26818514418711
H          -15.52028170972004        4.84466706568104       -2.04527935967550
H          -16.64076771165137        3.51253748936512       -2.32384130606982
C          -16.63199351589353        1.21036165553767       -0.63129036000356
H          -17.16032825802286        1.47290966125457       -1.54361159311470
H          -17.25490880387701        1.48804457102843        0.21944754614739
H          -16.49668299075809        0.13247847244024       -0.61089165854342
O          -10.59495450694010        1.37423960660621        0.02604905763942
H          -11.14734563949576        0.87881355101051       -0.59825665889370
H           -9.67875379614676        1.05884844408754        0.04156958685116
C          -14.99335456946075        6.27665234624098        3.81801741565981