78
 energy: -116.058038506077 gnorm: 0.000068728847 xtb: 6.7.1 (edcfbbe)
Fe         -12.29024617991846        2.19743755804751       -0.21507016920677
N          -12.89318493738751        0.49562917415153        0.62871451320535
N          -10.59204129715538        2.13174156299846        0.82816491464809
N          -11.67240464776010        3.88691350371359       -1.12201725422292
N          -13.97413836543891        2.23995932578640       -1.31725358261905
C          -14.06581497438964       -0.15600580526054        0.41814852755189
C          -14.14321742825506       -1.34964588109590        1.23323860497383
C          -12.98531865339189       -1.40211847287321        1.94268766575114
C          -12.21798614291521       -0.23871725851407        1.55172642601870
C          -10.22066399514867        1.17593765010946        1.72107349112023
C           -8.93365048676643        1.47879019732543        2.29434084817733
C           -8.53058771503283        2.65962554704245        1.73039111865755
C           -9.58439440880958        3.04120682620043        0.80838242875956
C          -10.52729935723458        4.57705608384116       -0.85969606920661
C          -10.45289109404097        5.76969867099457       -1.66194912916885
C          -11.59205982234971        5.79411150913813       -2.42410959821332
C          -12.33692338080457        4.60377126473460       -2.06667765410062
C          -14.33328907864991        3.18251122505686       -2.23164014584027
C          -15.63877160094551        2.89128506582935       -2.77973336951841
C          -16.06492839144411        1.75397916234274       -2.16652282320882
C          -15.01303707502076        1.36418399399695       -1.25521306782463
C          -15.06439236971862        0.24231621159879       -0.45042040645580
H          -15.95068394213721       -0.37077233586721       -0.50724777063997
C          -10.97386410366040        0.06645210895420        2.06554441631903
H          -10.55886627230853       -0.61064905823852        2.79672828068100
C           -9.55407675260867        4.19131637429318        0.04501351092883
H           -8.70352926593083        4.84484864040846        0.16344588526365
C          -13.57571912541173        4.28151749139794       -2.59241349130077
H          -13.99734261988940        4.95351445978238       -3.32408540554836
C          -12.52700810677623       -2.41868134344261        2.93160566688302
H          -11.60044555114902       -2.88549130427578        2.59713652709865
H          -13.27472463148514       -3.19729858466866        3.06085904090098
H          -12.34150161913612       -1.95695618893639        3.90194644042843
C          -15.29761460294839       -2.29220913475484        1.23692517491294
H          -15.44717090200149       -2.71801288960060        0.24454414111124
H          -16.21382693742826       -1.77591161288486        1.52463126626543
H          -15.12959024421482       -3.10726787043572        1.93658494124301
C           -8.19430577121272        0.60858551733548        3.25006431564562
H           -8.33526848798631       -0.44188248089095        3.00075181325143
H           -8.54406458450234        0.76352695958928        4.27243671145490
H           -7.13071985689520        0.83517863083409        3.21386334111284
C           -7.30634537392274        3.40049731363072        1.93788866072151
H           -6.92475886792869        3.92709142680078        1.07081871245762
C           -6.63908960999250        3.48398942815426        3.08448554324157
H           -6.99348970856654        3.02165618802929        3.98921244606100
H           -5.72187092705703        4.04382805560707        3.16295004141930
C           -9.30606202797901        6.71866419219093       -1.68388705326546
H           -8.36154770423085        6.18409599372398       -1.59453928541896
H           -9.37163782999786        7.42727351430506       -0.85664466458495
H           -9.30215575659155        7.27860778246061       -2.61695475124820
C          -12.01004850450207        6.75966582809026       -3.41614026610998
H          -12.57288329152675        6.35909364529532       -4.25175053055969
C          -11.76754478604058        8.06573837912499       -3.37211557544758
H          -11.25646708401319        8.52586849996127       -2.54461581318330
H          -12.09796952164640        8.72660886902905       -4.15630988426470
C          -16.32184148962356        3.72198330413911       -3.81151261358480
H          -15.72181364074185        3.77660811680328       -4.72038366883597
H          -16.47461577016643        4.73809493171205       -3.44673699256613
H          -17.29111826548693        3.30108334182286       -4.06704454918731
C          -17.33998553319393        1.00441918994638       -2.34800331030275
H          -17.97441790079268        1.49183251716319       -3.08422712921094
H          -17.88732709944985        0.94734568572133       -1.40694280100254
H          -17.14209167376890       -0.01327665918704       -2.68560457180542
O          -11.34210988244002        1.07001888891406       -1.97587813473503
H          -12.13355805188563        0.87847023967544       -2.49086439491985
H          -10.88763688921323        1.79745168195249       -2.41466425099197
C          -15.18450531841671        5.97907386517388        2.68233932023427
H          -14.62956438790694        6.65518831260506        3.33260201404105
H          -16.07458004045285        5.64651188703960        3.21639057402457
H          -15.49349447650107        6.52434843486405        1.79611951772476
N          -13.80776113563985        3.95165999018422        3.19837245051924
H          -13.92100199430715        4.00385252540403        4.19741569151622
C          -14.34388356148105        4.82144638052130        2.28529719082849
C          -13.10270835041951        3.02243554871755        2.51455237258417
H          -12.57255264003887        2.21269459295378        2.97249361334569
N          -13.16035837662513        3.25093187725134        1.22481030001035
C          -13.92897238771879        4.36639267853551        1.06668273677556
H          -14.13066535946584        4.76527905791239        0.09448898043874
