78
 energy: -116.058078040287 gnorm: 0.000058693763 xtb: 6.7.1 (edcfbbe)
Fe         -11.68725468503699        2.52213041948007        1.26839433944210
N          -12.29793747170825        0.85805738577866        2.22331113446581
N          -10.02780042449446        2.55290244717738        2.41389959861335
N          -11.04471911436376        4.13468194951219        0.28841799488740
N          -13.30344855624645        2.44273247222810        0.10774181027403
C          -13.45822756539716        0.17946714314433        2.01834454503416
C          -13.56570271957216       -0.93680557112182        2.92967124559027
C          -12.44142337403032       -0.91616519530462        3.69589654300525
C          -11.66395629665279        0.21553238377699        3.24437646867598
C           -9.69762921766315        1.68095207417784        3.40920046007863
C           -8.46145307139854        2.06481376050548        4.03731497174523
C           -8.04870017794372        3.21068893499680        3.40760272501351
C           -9.04280220233080        3.48925188366846        2.39100357422906
C           -9.91487211886428        4.84951429264780        0.54158507148358
C           -9.80186965825960        5.96829102421604       -0.36093301985657
C          -10.90157933377962        5.91710491589117       -1.17449873622667
C          -11.65941459175188        4.75560868801685       -0.74780672727348
C          -13.62195594575558        3.29420200054662       -0.90048914963861
C          -14.88529018032597        2.92589079992510       -1.50414092000859
C          -15.32287871212142        1.82991032879844       -0.83069015262464
C          -14.31984913356619        1.54396781945450        0.17343882050353
C          -14.40764420605077        0.49099721605696        1.06311598890470
H          -15.28167324811841       -0.13948358682032        1.00664495269547
C          -10.45143893162262        0.58380954737797        3.79467065211278
H          -10.07399510269541       -0.01799526476432        4.60726951359455
C           -8.98845819628281        4.56725988153916        1.52915984496542
H           -8.15652937057272        5.24626896370562        1.63571878509181
C          -12.86540866369000        4.37608256322429       -1.30719174838428
H          -13.24983517446990        4.97272166412966       -2.12041352951876
C          -12.02813587079096       -1.83725750174403        4.79263883976866
H          -12.77262978927482       -2.61463031267514        4.94524367455398
H          -11.90609426517760       -1.29146538280022        5.72880490514824
H          -11.07749740372980       -2.31569916437137        4.55515972891177
C          -14.71315868813680       -1.88695861165760        2.96303985632352
H          -14.81705431486168       -2.39608603492913        2.00456486741607
H          -15.64363758111443       -1.35625949491297        3.16553252720107
H          -14.57199254677652       -2.63846293311322        3.73603839395413
C           -7.76797274998519        1.29622666060257        5.10800194407025
H           -7.87977001482768        0.22466985386142        4.94867333807045
H           -8.17870304534796        1.53556398513929        6.09056407879068
H           -6.70711718535520        1.53837021250344        5.11250944675429
C           -6.86029530675067        4.00133935108737        3.63786318465510
H           -6.43832494675998        4.47807945480284        2.76074885819471
C           -6.27138373125946        4.18634600153136        4.81500190755389
H           -6.67078799882500        3.77857149504890        5.72715225281923
H           -5.37685251070368        4.77930310134389        4.90972318356717
C           -8.65597274430772        6.91753405986569       -0.41140793053735
H           -7.71519290960439        6.39516426148966       -0.24408886574488
H           -8.75466483336283        7.68874202762313        0.35446990358729
H           -8.61590030730138        7.40224419228634       -1.38469239787214
C          -11.27297613269987        6.78712100439948       -2.26843737378265
H          -11.78491472326457        6.30707955797525       -3.09438920524666
C          -11.04353197531561        8.09502984273874       -2.32573611094763
H          -10.58203454615444        8.63171686202998       -1.51516947300121
H          -11.33534478427434        8.68149849883673       -3.18122652858167
C          -15.51665426087804        3.65223635900026       -2.64183499799992
H          -14.86153498004433        3.63981989620774       -3.51304500483906
H          -15.70611279676170        4.69262483785916       -2.37616719591741
H          -16.46204039003815        3.19183944828847       -2.91821694869378
C          -16.56501224931273        1.03094291396207       -1.03007230655086
H          -17.16404406266076        1.44278686056977       -1.83848650716358
H          -17.16905213162522        1.02782496541978       -0.12238111824513
H          -16.32031878718452       -0.00238504866425       -1.27699463297153
O          -10.52587890362088        1.12484643947778       -0.13238883833804
H          -10.87369840525110        0.27743321497439        0.16605542726055
H           -9.64258072416583        1.21568948423813        0.24127291208334
C          -14.74403362777353        6.44836552474889        3.78061583377380
H          -14.22474895153440        7.17163845492982        4.40918914308493
H          -15.65374741865600        6.14010823850556        4.29583919440701
H          -15.01861741701315        6.93148465472367        2.84824077012941
N          -13.36711358997364        4.47952919738458        4.48722597187438
H          -13.52007428467182        4.59811176490809        5.47520279869465
C          -13.87586659223202        5.27786814323683        3.49648375494403
C          -12.62571159934912        3.51571328331949        3.89638144188562
H          -12.10595081843347        2.74698193636663        4.42973125888743
N          -12.63427824307809        3.65494494810999        2.59302500602997
C          -13.40834020676643        4.74667245495705        2.32868393446719
H          -13.57490120824151        5.07475009856076        1.32344204069770
