78
 energy: -116.058077958100 gnorm: 0.000130646883 xtb: 6.7.1 (edcfbbe)
Fe          28.52196698135035       91.78311521156948       53.22348409522088
N           29.51354472867137       93.42873891352907       52.62075867261710
N           29.63942047419820       91.74213565227065       54.90146046366529
N           27.50576429027070       90.18981497190309       53.85712026958451
N           27.38857340859602       91.87403844782705       51.58841731273525
C           29.33873163858389       94.10468471360592       51.45397313659173
C           30.27069269582655       95.20463026679758       51.35556478762945
C           31.01860080596792       95.17665408360401       52.49196176961334
C           30.53528392370207       94.05704182001644       53.26778204168468
C           30.64268091012622       92.59997856338629       55.24423183420343
C           31.24303998821886       92.21318385971159       56.49324367679302
C           30.58825845907665       91.07963693450807       56.90090630339623
C           29.58462540353543       90.81173996014188       55.89080125726248
C           27.72844045858749       89.47684431504631       54.99449530133378
C           26.80591412951546       88.37353663670117       55.09799510852959
C           26.01155800992238       88.43238343688603       53.98476474869117
C           26.46964367710542       89.58287646800689       53.22848686866273
C           26.37175094918578       91.03761654250602       51.25753567316085
C           25.79381503642218       91.41041544244182       49.98354741699259
C           26.49175826575981       92.49346991249703       49.55216784807467
C           27.48486955862520       92.76716574242107       50.56946349111259
C           28.39331794187963       93.80476455731652       50.49106833912610
H           28.36107333898326       94.43206567042290       49.61353156614629
C           31.05906429323258       93.68633802358798       54.49125339449672
H           31.87513247178382       94.27663373760986       54.87923732563453
C           28.70481166403695       89.74792581121751       55.93596897463461
H           28.78631166123427       89.07171614887912       56.77300475678152
C           25.93581868072631       89.96571503786056       52.01200012946612
H           25.11922518076834       89.38048189577931       51.61731146662395
C           32.12463888205360       96.08068121089487       52.91798493226431
H           32.30293673466192       96.85102211690734       52.17189125336094
H           33.04892219911936       95.51920568231175       53.05811753092063
H           31.88038234292938       96.56859605858361       53.86206714931367
C           30.33845418274795       96.14818061210548       50.20418226248162
H           29.39051922778087       96.67288514351897       50.08257405061908
H           30.54664124272489       95.60942955026856       49.27960439155744
H           31.12174405486163       96.88723988799542       50.35404903154082
C           32.31316964484921       92.96905965815459       57.20142880998129
H           32.17115070799508       94.04235192066496       57.08293407556333
H           33.29880907358814       92.71400651131410       56.80791284404399
H           32.29666343014917       92.73117332577725       58.26312240255915
C           30.78555431118745       90.29185175262386       58.09713886955333
H           29.89380119676738       89.83191018061774       58.50687818210028
C           31.94955541685195       90.09097765651828       58.70658134693591
H           32.87473415681168       90.48165518167710       58.32024505458229
H           32.01980740664393       89.50114026636938       59.60542034519253
C           26.72068704726448       87.43155899114340       56.24782690142786
H           26.87752063869592       87.95704095541861       57.18871660003166
H           27.47750455896916       86.64931545053781       56.16790404392702
H           25.74016727378138       86.96059816881616       56.27217218371000
C           24.90974342048215       87.57829405920049       53.59972266780854
H           24.09906559320212       88.06932902705626       53.07396123207974
C           24.82895316119845       86.27223766745156       53.83248127675683
H           25.62431025044650       85.72491966332908       54.30778855477255
H           23.96899447285055       85.69787383220766       53.52991622510458
C           24.65413370977924       90.70017309717261       49.33761128197584
H           23.77333927228881       90.72965266538532       49.97923196481861
H           24.90546445654853       89.65477147672458       49.15637487783647
H           24.39985493036412       91.16107717334735       48.38628744896967
C           26.32468749323488       93.29045123126240       48.30400483636141
H           26.09112693974196       94.32870160196370       48.54085756747993
H           25.51889048728349       92.88948699847833       47.69416727001863
H           27.24148615202602       93.27615497651877       47.71404382882731
O           27.12477938048272       93.20851588850267       54.35404452555457
H           27.43492377078495       94.04866699029324       53.99866388227620
H           27.48864537859896       93.12518346962284       55.24225239183277
C           31.01775391847463       87.80925046919954       50.21544194390313
H           31.62350224375942       87.07540588941227       50.74691389379133
H           31.55496720110420       88.10675150804663       49.31492032842627
H           30.08187822454175       87.34272268298032       49.92453517803936
N           31.73474136773345       89.76982479296923       51.59881871905212
H           32.72291006465760       89.63569706832557       51.46063492816133
C           30.73923751435544       88.98596624364828       51.07700037412804
C           31.14816516330469       90.74421158585524       52.32975343264554
H           31.68575614174031       91.50563193427965       52.85587111272233
N           29.84305764060908       90.62526470067998       52.30226751435685
C           29.57313078837231       89.53615439373905       51.52643845533101
H           28.56544810572791       89.22340585207010       51.34570399483859
