72
 energy: -105.876986934190 gnorm: 0.268542893473 xtb: 6.7.1 (edcfbbe)
Fe          23.14400000000000      -21.35400000000000      -11.22000000000000
N           21.30000000000000      -21.38400000000000      -10.43600000000000
N           23.53000000000000      -23.17599999999999      -10.20400000000000
N           25.15400000000000      -21.38800000000000      -11.61800000000000
N           22.88200000000000      -19.49200000000000      -11.89500000000000
C           20.31700000000000      -20.43000000000000      -10.69300000000000
C           19.07999999999999      -20.88700000000000      -10.12100000000000
C           19.29300000000000      -22.08800000000000       -9.55300000000000
C           20.69700000000000      -22.41500000000000       -9.72500000000000
C           22.61600000000000      -23.93900000000000       -9.52600000000000
C           23.25200000000000      -25.19700000000000       -9.15200000000000
C           24.50700000000000      -25.15900000000000       -9.61300000000000
C           24.68400000000000      -23.91100000000000      -10.27500000000000
C           26.05900000000000      -22.42700000000000      -11.52700000000000
C           27.26700000000000      -22.11300000000000      -12.22700000000000
C           27.10600000000000      -20.89800000000000      -12.72800000000000
C           25.78900000000000      -20.40000000000000      -12.34800000000000
C           23.89000000000000      -18.79600000000000      -12.53400000000000
C           23.32200000000000      -17.54600000000000      -13.03500000000000
C           21.86100000000000      -17.54400000000000      -12.61800000000000
C           21.66600000000000      -18.81000000000000      -11.92800000000000
C           20.47400000000000      -19.24800000000000      -11.37600000000000
H           19.59800000000000      -18.61000000000000      -11.49100000000000
C           21.32200000000000      -23.54300000000000       -9.25400000000000
H           20.73800000000000      -24.19000000000000       -8.60000000000000
C           25.86800000000000      -23.59100000000000      -10.87300000000000
H           26.69100000000000      -24.30300000000000      -10.82000000000000
C           25.21500000000000      -19.19200000000000      -12.68300000000000
H           25.88500000000000      -18.45300000000000      -13.12100000000000
C           18.24500000000000      -22.93400000000000       -8.77700000000000
H           17.22200000000000      -22.60100000000000       -9.05300000000000
H           18.38700000000000      -22.79600000000000       -7.68400000000000
H           18.35800000000000      -24.00700000000000       -9.04200000000000
C           17.75100000000000      -20.10400000000000      -10.21600000000000
H           17.29000000000000      -20.27500000000000      -11.21200000000000
H           17.94600000000000      -19.01700000000000      -10.09100000000000
H           17.05000000000000      -20.45700000000000       -9.43000000000000
C           22.60400000000000      -26.35600000000000       -8.36500000000000
H           21.49800000000000      -26.27300000000000       -8.42600000000000
H           22.91100000000000      -26.30400000000000       -7.29900000000000
H           22.91700000000000      -27.32800000000000       -8.80300000000000
C           25.67599999999999      -26.17000000000000       -9.56200000000000
H           26.46600000000000      -26.14900000000000      -10.32800000000000
C           25.75200000000000      -27.08300000000000       -8.59500000000000
H           24.98000000000000      -27.13300000000000       -7.81300000000000
H           26.58700000000000      -27.79799999999999       -8.56700000000000
C           28.48800000000000      -23.06200000000000      -12.36500000000000
H           28.22500000000000      -23.91000000000000      -13.03300000000000
H           28.76600000000000      -23.46300000000000      -11.36700000000000
H           29.34500000000000      -22.50900000000000      -12.80500000000000
C           28.17700000000000      -20.18800000000000      -13.55400000000000
H           28.85300000000000      -20.73999999999999      -14.22200000000000
C           28.28400000000000      -18.85900000000000      -13.45200000000000
H           27.73200000000000      -18.31300000000000      -12.67300000000000
H           28.92500000000000      -18.29600000000000      -14.14600000000000
C           24.03400000000000      -16.42000000000000      -13.81900000000000
H           24.59300000000000      -16.85900000000000      -14.67300000000000
H           24.75000000000000      -15.89300000000000      -13.15200000000000
H           23.28200000000000      -15.70300000000000      -14.21200000000000
C           20.82700000000000      -16.46000000000000      -12.92000000000000
H           20.32200000000000      -16.68800000000000      -13.88300000000000
H           21.33100000000000      -15.47300000000000      -13.00200000000000
H           20.06600000000000      -16.43200000000000      -12.11100000000000
O           23.63200000000000      -20.44500000000000       -9.32300000000000
H           24.00700000000000      -21.14200000000000       -8.78500000000000
H           23.51400000000000      -19.59800000000000       -9.07900000000000
C           21.00800000000000      -22.72100000000000      -13.21300000000000
H           20.71200000000000      -23.20100000000000      -14.17000000000000
H           20.52600000000000      -21.72100000000000      -13.16700000000000
H           20.62300000000000      -23.34800000000000      -12.38100000000000
S           22.76200000000000      -22.55900000000000      -13.09300000000000
H           22.98800000000000      -23.85700000000000      -12.95100000000000
72
 energy: -105.938759322365 gnorm: 0.112830623466 xtb: 6.7.1 (edcfbbe)
Fe          23.17280104483665      -21.37818504892670      -11.16305161241124
N           21.28618502658275      -21.39851959406535      -10.46647240802792
N           23.53034253568419      -23.19643607170322      -10.21152938189205
N           25.16148543655346      -21.38365448419020      -11.65393587930722
N           22.88040310646262      -19.52591107225265      -11.91485726850916
C           20.32106407857087      -20.44238600173933      -10.70053034981475
C           19.06835477238523      -20.87964269524302      -10.12343269186734
C           19.28614375035104      -22.08382180596256       -9.53649382868375
C           20.69205292005330      -22.40232543063262       -9.73181065083984
C           22.62570009517254      -23.94929377763517       -9.52007176805952
C           23.24561323502063      -25.21239077572575       -9.13380558064399
C           24.52033076826372      -25.18496201361791       -9.60823506414856
C           24.67890337997577      -23.92493534335712      -10.27267178647441
C           26.06141491405457      -22.41075698258997      -11.54443835311260
C           27.28259720504809      -22.10942483556908      -12.23578066752514
C           27.12773600295500      -20.86484363721763      -12.73878302273905
C           25.78942572901325      -20.39394175090299      -12.36294268867827
C           23.85769709139376      -18.78896309359159      -12.53194824696194
C           23.28546578826152      -17.54178654040582      -13.01868059064394
C           21.91027000495122      -17.55177474236098      -12.63525931675243
C           21.70245284267428      -18.81020726915105      -11.94629088526297
C           20.50192038853483      -19.25121017155653      -11.38496644274777
H           19.62792380892256      -18.61420202875891      -11.49447771495001
C           21.32296573345377      -23.54243776034220       -9.25634551955441
H           20.73409490341286      -24.19075949377515       -8.61556021401228
C           25.86462832482545      -23.58424110215843      -10.87521810761564
H           26.68414170914287      -24.28707230933747      -10.82439363968107
C           25.19354562046743      -19.18417955962344      -12.69097041155729
H           25.85016952717335      -18.45395019440932      -13.14726135188269
C           18.26325895249017      -22.92532285313704       -8.78788830487948
H           17.24822981981293      -22.60794556295946       -9.05080034136222
H           18.39076613759678      -22.80123107846055       -7.70557653212294
H           18.36308703087128      -23.98739217721567       -9.03707850290098
C           17.76495257530823      -20.11172092933102      -10.21619027780076
H           17.29980229579087      -20.27255060585784      -11.19694006377246
H           17.94205188745770      -19.03847977018114      -10.09003396128283
H           17.06560896031406      -20.44645660416657       -9.44363110502243
C           22.59589714797087      -26.34294810980290       -8.37072350200669
H           21.50584346605259      -26.27361208664505       -8.42346042486744
H           22.89914882712103      -26.30407488734285       -7.31727781415018
H           22.90966740078301      -27.30461592911940       -8.79418059883120
C           25.64034344694478      -26.17558586138959       -9.54910725253959
H           26.41885656348539      -26.13742434282644      -10.31289944510563
C           25.74312622061104      -27.08564219502863       -8.59058651771566
H           25.00181527373323      -27.14425188877250       -7.80658888616798
H           26.57176296584428      -27.78693729589315       -8.56282875909537
C           28.47049484254037      -23.04841979312921      -12.36339217890718
H           28.22299849427919      -23.89214421813144      -13.02019500074256
H           28.75869722557573      -23.44901268259926      -11.38469475878722
H           29.32607197736708      -22.51722825157023      -12.79119115829380
C           28.15100527599040      -20.16297573851772      -13.54925441223577
H           28.80286413571345      -20.73641469740702      -14.20986768204352
C           28.29213131647840      -18.84727697114294      -13.45407226635035
H           27.75106168871677      -18.29694420701182      -12.69570380737333
H           28.94303159296530      -18.29601294339097      -14.12251207482838
C           24.00996043918263      -16.44987744023514      -13.79662142219727
H           24.57321295365467      -16.86288046181033      -14.64548824801003
H           24.72712175544165      -15.91183394634084      -13.15978655171770
H           23.29415527662830      -15.72325071898449      -14.19690681020662
C           20.86362838467674      -16.48892142878911      -12.91671237692482
H           20.34021567341927      -16.69022188456167      -13.86348108294612
H           21.32545585384846      -15.49757670669250      -12.99789576967774
H           20.09966429756418      -16.44257085859762      -12.12772342658897
O           23.64766911802514      -20.45509251338720       -9.31921683514749
H           24.01562485385482      -21.13239184147994       -8.75548639335222
H           23.51890215592147      -19.56556122825735       -9.04802960780332
C           20.98548476954731      -22.72987772398738      -13.21999089273465
H           20.70738262370456      -23.20173315196707      -14.16907995400616
H           20.53186608261668      -21.73495302702728      -13.16708528774190
H           20.61807572767828      -23.33666268136653      -12.38555756427127
S           22.75853041103623      -22.53320565057507      -13.11612507580966
H           22.99364435718719      -23.83755146810767      -12.93592162732080
72
 energy: -105.959413514497 gnorm: 0.041233775641 xtb: 6.7.1 (edcfbbe)
Fe          23.19098760685059      -21.40210499907638      -11.13697238576349
N           21.28597626197223      -21.40938047502081      -10.47863123023924
N           23.52935007938136      -23.20412815206552      -10.21987938479675
N           25.16200614162279      -21.37408924295875      -11.67768164892180
N           22.88859986796382      -19.54841811442143      -11.92068079996656
C           20.33415477299356      -20.46076893535086      -10.71334228815197
C           19.07015945840542      -20.87519909226209      -10.12907561821787
C           19.29040304637810      -22.07966781441644       -9.52741630103772
C           20.69455520030045      -22.39576833651416       -9.74134929501884
C           22.63089849826317      -23.95278789361985       -9.52033246602035
C           23.23640210609909      -25.21392930461998       -9.11953780705184
C           24.52336714753991      -25.19920082325551       -9.60274787041765
C           24.67040040517336      -23.93311392423705      -10.27744147855794
C           26.05407574120290      -22.39295737941730      -11.56359900064231
C           27.28417188830648      -22.09675296940658      -12.24587541229990
C           27.13495121196530      -20.83331038564277      -12.74700744663215
C           25.78291186084325      -20.38769125347219      -12.37460425382124
C           23.83912608878008      -18.79517728038492      -12.53653086337594
C           23.25618076832788      -17.54702306517563      -13.00593645240437
C           21.95402213034118      -17.56454938880000      -12.64509617334643
C           21.73296491610457      -18.82532799044453      -11.96107702521883
C           20.53125670783800      -19.26667520834132      -11.40046282460323
H           19.66462816283178      -18.62288928608956      -11.49788289615047
C           21.32222429905824      -23.54493235614272       -9.26730409964513
H           20.72690324883735      -24.19386964510863       -8.63890898543615
C           25.85355375103941      -23.57299135525683      -10.88584564566049
H           26.67629366342965      -24.26478458963729      -10.83458064672166
C           25.17459939441010      -19.18204635269009      -12.71097082406901
H           25.81371830264538      -18.45698978606604      -13.19197748245908
C           18.28744603129956      -22.91438619438991       -8.79674498419189
H           17.27600594078058      -22.60700619242521       -9.05409898273984
H           18.40466181312291      -22.80487993047249       -7.71794747383408
H           18.38439114375113      -23.96984041513702       -9.04099485759349
C           17.78523601559755      -20.11785359184743      -10.21753557222820
H           17.31483096590264      -20.27139468334319      -11.18984646575788
H           17.94922637677613      -19.05085003351322      -10.08977554907977
H           17.08597500451214      -20.44416209099262       -9.45210365853789
C           22.58593081702278      -26.32591158572036       -8.37445236512151
H           21.50406332456693      -26.26584741026028       -8.42528636900357
H           22.88114440735481      -26.30107922262311       -7.32474941719308
H           22.90194790458790      -27.28322470474394       -8.78810581425273
C           25.59424596116695      -26.17428743128334       -9.53010332031231
H           26.35633505187723      -26.12541972530834      -10.30101785856559
C           25.72733508156660      -27.09153276838970       -8.57921913389849
H           25.01692717364472      -27.16391881782194       -7.78034958980589
H           26.55520001580898      -27.78053645117666       -8.56207959247321
C           28.45061609552148      -23.02386039531568      -12.36322947648909
H           28.20885627038300      -23.86918133213758      -13.00959496602262
H           28.74172847111104      -23.42542298884671      -11.39348528602358
H           29.31088602806987      -22.51151600669808      -12.78458190273377
C           28.11924618910682      -20.13305339940375      -13.53883264588284
H           28.73904844957355      -20.73054213688100      -14.20223288216301
C           28.30214753629213      -18.82151926696913      -13.45640927774394
H           27.76591922963658      -18.25390911328253      -12.72010689837072
H           28.98167141518428      -18.28957381368972      -14.09815092844627
C           23.98650031072572      -16.47975622637939      -13.77241547278509
H           24.54686033915802      -16.89372889029521      -14.61267919752304
H           24.70305834906193      -15.94438878545094      -13.14458398756591
H           23.28878928055163      -15.74810604811062      -14.17530779726366
C           20.90133452332974      -16.51951392709345      -12.91168945347360
H           20.37235962334953      -16.71554098847767      -13.84895207360784
H           21.34331886978192      -15.52713974607018      -12.99154899205504
H           20.14594638640209      -16.47643606147065      -12.12573345535472
O           23.68167737646107      -20.46023337420381       -9.32068950745796
H           24.02322560413924      -21.10848241586510       -8.70124842051954
H           23.52263158582493      -19.56491885915947       -9.02000106476346
C           20.95951564287582      -22.73489217623963      -13.22842276445595
H           20.69894252430045      -23.20705082630577      -14.17049015404226
H           20.52499049076269      -21.74245787993310      -13.17309104970518
H           20.61394490352967      -23.32789820476048      -12.38859982776065
S           22.75449056343648      -22.51448339878620      -13.14172120084505
H           23.01154818318542      -23.81673708882983      -12.91704170570733
72
 energy: -105.967402298261 gnorm: 0.028033441111 xtb: 6.7.1 (edcfbbe)
Fe          23.20454991492340      -21.40916779225101      -11.12176398378435
N           21.29315685889999      -21.42387414102761      -10.48854525755103
N           23.52346615937123      -23.20825182965815      -10.23030164902284
N           25.15457456213426      -21.36683164925279      -11.69451160429133
N           22.89733802641663      -19.56899251151153      -11.93170719860980
C           20.34638621854054      -20.47672934086711      -10.72322642043050
C           19.08202209207845      -20.87762235159699      -10.13516424028271
C           19.30103084032439      -22.07894304070631       -9.52908454756401
C           20.69928433319956      -22.40057957726616       -9.74853411818750
C           22.62601944253483      -23.95251396182174       -9.52419045092906
C           23.22482617854843      -25.20461096591802       -9.11055156712189
C           24.51300678430544      -25.19722157601876       -9.59366893233795
C           24.66339554716346      -23.93662041319586      -10.28580440279164
C           26.04412839862934      -22.38276216404903      -11.57876079891052
C           27.27534721446706      -22.07648118014805      -12.25435939709848
C           27.12676615562787      -20.80903147219471      -12.75175502102072
C           25.77451647324814      -20.38024246437543      -12.38527729979292
C           23.84157541763041      -18.81362547675013      -12.54821194974028
C           23.26291497159952      -17.56261856869777      -13.00698653898792
C           21.95367270395588      -17.58845450053273      -12.64564467521817
C           21.74186546413193      -18.85295578650127      -11.96631416083281
C           20.54579642592723      -19.28572354612678      -11.40899292976723
H           19.68714682033944      -18.63485067203491      -11.50378505851707
C           21.31766941508622      -23.55094942188376       -9.27598875653485
H           20.71463425495104      -24.20465218905798       -8.66142972577444
C           25.84274106580174      -23.56526604275645      -10.89969468279014
H           26.67222232906886      -24.24855813481411      -10.84846440734598
C           25.16806627467592      -19.18361692266630      -12.73789181848361
H           25.78612380987931      -18.46459079201539      -13.25676722785706
C           18.30676717491712      -22.91376783137331       -8.79822312824713
H           17.29532180253091      -22.60776444879072       -9.05539669717807
H           18.42631508674062      -22.80932344332808       -7.71910657669346
H           18.41130393403776      -23.96719473743899       -9.04783401259433
C           17.80254096702152      -20.11754431800832      -10.22117819384491
H           17.33039794622739      -20.26805903009869      -11.19338021255734
H           17.96662056691863      -19.05078333306749      -10.09013304624153
H           17.10480565049810      -20.44526071251285       -9.45479944598075
C           22.56687952332721      -26.31226832730143       -8.36986617914026
H           21.48477250299537      -26.25307553965846       -8.42915681521189
H           22.85302965414276      -26.29156794156539       -7.31734859020292
H           22.88879332409802      -27.26856102936125       -8.78159429866080
C           25.56250075101361      -26.18258323760748       -9.51094451343413
H           26.31005779239165      -26.13632023643701      -10.29369924035027
C           25.70956657192448      -27.10330712205119       -8.56276643633188
H           25.02380064143378      -27.17862419138507       -7.73942163915221
H           26.53940586423409      -27.78858692816492       -8.56264595976079
C           28.43909361408621      -22.99972717964819      -12.36499188364695
H           28.19323018930123      -23.84825817513012      -13.00603468540249
H           28.72484212292051      -23.39595419736939      -11.39133719431263
H           29.30182324593385      -22.49161671678894      -12.78602728533361
C           28.09960916494870      -20.09632766872743      -13.54113579474780
H           28.69538077393011      -20.70802960216867      -14.21207974128508
C           28.31776198779332      -18.78711105756844      -13.46139465358137
H           27.79291850282837      -18.19482395806454      -12.73403124778275
H           29.03929629761293      -18.27830135378335      -14.08018415633394
C           23.98701574808322      -16.49784470767293      -13.76111958278053
H           24.53999029033394      -16.92419462469145      -14.59676194418266
H           24.69826632962101      -15.97298021954684      -13.12242864892626
H           23.28546336415442      -15.76822743469167      -14.15823710518973
C           20.91233469085773      -16.54483396165451      -12.90426219931140
H           20.38917482741356      -16.74654289792887      -13.84090265963560
H           21.36341053524002      -15.55777687603293      -12.98212289304167
H           20.17084188562004      -16.51187161631334      -12.10898025549365
O           23.75469504422694      -20.44988520345331       -9.30973754206129
H           24.01913173708719      -21.08608297616295       -8.62579970183833
H           23.51891512908876      -19.57236512568342       -8.97962429956552
C           20.94060373455131      -22.73623215348874      -13.23811389652481
H           20.68691659328057      -23.21966795630726      -14.17590900227699
H           20.50267965526144      -21.74621733407326      -13.18878044867143
H           20.60831826423820      -23.32270820142611      -12.38906698987726
S           22.74300692382765      -22.48879097666891      -13.15478967428442
H           23.02715543984504      -23.78169693110657      -12.89927270675221
72
 energy: -105.971332735176 gnorm: 0.046029042544 xtb: 6.7.1 (edcfbbe)
Fe          23.21405532083107      -21.41511499660443      -11.12147839846616
N           21.31063388683710      -21.42976147957489      -10.48309593565479
N           23.51702634775604      -23.20790918522349      -10.24353238925453
N           25.13877185451280      -21.36248002087699      -11.71610617066809
N           22.91385145981737      -19.58835240158253      -11.93039912133797
C           20.36286908035581      -20.48791067404006      -10.72640972412569
C           19.09873421561457      -20.87990447225003      -10.14072405893763
C           19.31488487334510      -22.07785251998739       -9.53167322144838
C           20.70754082725808      -22.40383246176519       -9.75033212924220
C           22.62002070156063      -23.94830433890757       -9.52988296204380
C           23.21217013752136      -25.19043602219196       -9.10269290618084
C           24.49994145406852      -25.19042237972230       -9.58304247639441
C           24.65723395422952      -23.93785969199424      -10.29368589831861
C           26.03158252638333      -22.37412116936847      -11.59509631329082
C           27.26337047173213      -22.05390173482006      -12.26492700551592
C           27.11300304909032      -20.78625824538660      -12.75945968165112
C           25.76245075033027      -20.37546325356174      -12.40132637821488
C           23.84839938064094      -18.83348221878448      -12.55756166190040
C           23.26725810307511      -17.58742748025864      -13.01119789448838
C           21.95648897422984      -17.61521682102056      -12.63991681658059
C           21.75543126881282      -18.88091699414419      -11.96443245374869
C           20.56082866751772      -19.30315444462105      -11.41547981254877
H           19.70797535183719      -18.64933095931395      -11.51849843155125
C           21.31223992263619      -23.55800180940659       -9.28472436031641
H           20.70191255790049      -24.21872211432956       -8.68611676658827
C           25.83034981599046      -23.55878431686828      -10.91568752221689
H           26.66529264220748      -24.23770698394491      -10.86811264503277
C           25.16541099456225      -19.18720433604578      -12.77567274040849
H           25.76790659076595      -18.47667923522654      -13.32320916365109
C           18.32733258136931      -22.91799366664836       -8.79856096951185
H           17.31355799212633      -22.61523758668920       -9.05121609705576
H           18.45344190022492      -22.81803562439369       -7.71926462393024
H           18.44039971058547      -23.96981290820059       -9.05510199813650
C           17.82293480521153      -20.11446826324644      -10.22685998557168
H           17.35204728463391      -20.25973849332655      -11.20114935876078
H           17.99136372850768      -19.04814552749885      -10.09023960644824
H           17.12515097214987      -20.44559297051622       -9.46080224172167
C           22.54423693072544      -26.29471750911406       -8.36258311608124
H           21.46163172144716      -26.23398706495560       -8.43718191136884
H           22.81465875036163      -26.27271509206933       -7.30533723507233
H           22.87106504897132      -27.25269404229015       -8.76834211632400
C           25.53604605178204      -26.18901651231598       -9.48884427430971
H           26.26931012837356      -26.15508151339959      -10.28595526473448
C           25.69027176576666      -27.10801223877437       -8.53977528845687
H           25.02431980164858      -27.18917538193634       -7.69848821672842
H           26.51110132175436      -27.80476011644506       -8.56681118394844
C           28.43124431331744      -22.97167870159395      -12.36727243506621
H           28.18346666741030      -23.82572891934724      -13.00141780249595
H           28.71277352583094      -23.35724535738183      -11.38722256411406
H           29.29286380630334      -22.46397014855190      -12.79162502938843
C           28.08990801044444      -20.05592789475399      -13.53609452906627
H           28.66402009659722      -20.67144706470172      -14.22104589695509
C           28.33907087595977      -18.75329304965705      -13.45313836561852
H           27.81357045258079      -18.13121925424082      -12.74685434727379
H           29.07343393215866      -18.26804857730965      -14.07177660090277
C           23.98927516821614      -16.51987886248848      -13.75329665949382
H           24.54040136865502      -16.94661163750407      -14.58855441999890
H           24.69858313228580      -16.00532432665763      -13.10505714737969
H           23.28855045004879      -15.78634997468178      -14.14459804982848
C           20.92048357452997      -16.57489935674992      -12.89257777605778
H           20.39568723216410      -16.77895694672987      -13.82694052393929
H           21.37803219542850      -15.59101279828585      -12.97193720822807
H           20.18888292422310      -16.54577329037151      -12.08995970585680
O           23.85922201444122      -20.43821924445485       -9.30301401589610
H           24.00332346145778      -21.06744814657240       -8.55481559544669
H           23.49083433172816      -19.60287787793902       -8.91748766098346
C           20.92159626695432      -22.73935053886649      -13.24910137484729
H           20.67473680022406      -23.23873274168841      -14.18076478406649
H           20.47375629969348      -21.75248978603760      -13.21318267624892
H           20.60078170451565      -23.31858481904537      -12.39063841898624
S           22.72983945588659      -22.46926082839465      -13.17033752575808
H           23.03815626188344      -23.74897258235063      -12.88830035816376
72
 energy: -105.972020185048 gnorm: 0.040110549183 xtb: 6.7.1 (edcfbbe)
Fe          23.22062211143907      -21.41271445831014      -11.11954116030602
N           21.32511197508159      -21.43286766604948      -10.47621628318174
N           23.51193714023180      -23.20660687092466      -10.25434137874408
N           25.12320581495890      -21.36062755593273      -11.73143314033582
N           22.92778987018590      -19.60288592043082      -11.92606279905545
C           20.37388727233955      -20.49492142178966      -10.72725502180548
C           19.11102024601968      -20.88381502624024      -10.14629009224255
C           19.32400938432878      -22.07962136369543       -9.53682171958043
C           20.71280784484015      -22.40843261002201       -9.75149240122065
C           22.61431883843905      -23.94475175997093       -9.53642455406545
C           23.20321084747157      -25.17888973365901       -9.09836697888212
C           24.48943318907102      -25.18341823948776       -9.57441171026153
C           24.65385639361828      -23.93832121926673      -10.29890524563608
C           26.02138590985233      -22.36937075888212      -11.60692749883954
C           27.25413109503499      -22.03497829537738      -12.27078385307554
C           27.09981622867642      -20.77018603417676      -12.76403060792512
C           25.75102733586968      -20.37327863242120      -12.41495218216018
C           23.85383558436572      -18.84905245163182      -12.56628003560889
C           23.26975523473940      -17.60839467664070      -13.01722942824452