72
 energy: -105.980105480511 gnorm: 0.000073817188 xtb: 6.7.1 (edcfbbe)
Fe          23.14777165101270      -21.38260688509200      -11.19926320277047
N           21.28239442854300      -21.38004408742278      -10.51170902280067
N           23.43464604158929      -23.21532016866496      -10.40757872966644
N           25.07378695307047      -21.34945551730355      -11.78773919185853
N           22.88817701102473      -19.56405732963014      -11.95658826627426
C           20.35459840244013      -20.40698901786226      -10.68839119136368
C           19.12087828781361      -20.74577631512668      -10.01141667679932
C           19.33316614493750      -21.94546524280079       -9.40995895618137
C           20.68879130477159      -22.32981870606200       -9.74123694142822
C           22.53359792013044      -23.94747405426527       -9.69352210401217
C           23.08469943891538      -25.22651252720742       -9.33353666096300
C           24.35408703675545      -25.25978644508576       -9.85010685831541
C           24.54934548681092      -23.98870372147737      -10.51559980425493
C           25.97781002566098      -22.36422185496204      -11.68120482520354
C           27.25055986885139      -21.96823239931492      -12.21987085995286
C           27.10912993738199      -20.67080333935797      -12.63502004260885
C           25.72744853556042      -20.31859854527274      -12.38514669699279
C           23.80680494471457      -18.81326239453312      -12.61702590974007
C           23.21114474608398      -17.58586889864709      -13.10205355472283
C           21.90905400622211      -17.61711335879535      -12.71642314503812
C           21.72888589576783      -18.86101710529142      -11.99796698959900
C           20.54038041719841      -19.24311480564067      -11.40894935709444
H           19.70060830894457      -18.57153841598281      -11.49705206740927
C           21.25876087651384      -23.52573150297749       -9.35451087754657
H           20.66035168941762      -24.18935156879467       -8.75012262021845
C           25.73447971303650      -23.60214060768021      -11.11188220885693
H           26.54817732886433      -24.31033356840965      -11.10896551114021
C           25.13407060472252      -19.14294423832171      -12.80519696510344
H           25.75065415007170      -18.44651963501063      -13.35035834701469
C           18.40877210387475      -22.76224126079465       -8.57451011993672
H           17.45759705588024      -22.25320011455069       -8.44135654413423
H           18.84166128274168      -22.94324973871731       -7.59073721885603
H           18.21761496007005      -23.72814009036387       -9.04349754956358
C           17.90185183943520      -19.88981599856378      -10.01104782393337
H           17.54924226449877      -19.72397091337064      -11.02926350405327
H           18.11803214360186      -18.91876324076055       -9.56567268974023
H           17.10110000138457      -20.35697530079393       -9.44321515613532
C           22.35273226186412      -26.30062449756630       -8.60839082806528
H           21.30825349441384      -26.33188284555475       -8.91509974576898
H           22.38255359046726      -26.13213912762317       -7.53067761707996
H           22.80649223239028      -27.26730447385484       -8.81725856782627
C           25.33730139012936      -26.31933312849609       -9.79795906017865
H           25.97979211299311      -26.40459103614515      -10.66685471313011
C           25.50629080654304      -27.16316778918165       -8.78557177145498
H           24.92969650341725      -27.09464326881323       -7.87967615568896
H           26.25137335497721      -27.94042824728375       -8.81933536264706
C           28.47110514908982      -22.82091238648330      -12.24257435727336
H           28.27921604433549      -23.75171785552218      -12.77705359340334
H           28.78386919493337      -23.07334848445507      -11.22867701151419
H           29.29068721772646      -22.30111918095317      -12.73181565801944
C           28.13580378194314      -19.82226001129615      -13.20458371158456
H           28.83381895685095      -20.32162983437943      -13.86748271500064
C           28.30113377650119      -18.53021579747160      -12.94665751648302
H           27.66878169725437      -17.99856441323254      -12.25572041582227
H           29.09422784462657      -17.96178456666065      -13.40303406800631
C           23.94847709033343      -16.54172848325378      -13.86658777919241
H           24.36697776396083      -16.96229933885936      -14.78088197322929
H           24.76992563859433      -16.13987720320076      -13.27305108125982
H           23.28799625293351      -15.72152744076914      -14.13624487230257
C           20.83031248815990      -16.61509743772209      -12.94229904949971
H           19.99906529522132      -17.06419691152280      -13.48590130702764
H           21.20120192403773      -15.77139216634574      -13.51874319412000
H           20.45066617255012      -16.24092157332164      -11.99134636072848
O           23.90221701194036      -20.52714767291431       -9.26902136503544
H           24.70652242731175      -20.08392968666042       -9.56249925548811
H           24.17215027618944      -21.32929591055424       -8.80729556555573
C           21.14008674495677      -23.44648069585696      -12.99768130651343
H           21.04061431915730      -24.11551841377991      -13.84692053555932
H           20.26992495692628      -22.80271885139389      -12.92312911237497
H           21.26888668491696      -23.99798241989499      -12.07275351836125
S           22.57746234276042      -22.35003117669838      -13.26346295722327
H           23.48325039124214      -23.33402875741837      -13.24405970630061
