87
 energy: -128.292945750725 gnorm: 0.233255807867 xtb: 6.7.1 (edcfbbe)
Fe          33.31900000000000       20.21400000000000       34.31300000000000
N           33.10000000000000       18.43000000000000       35.16799999999999
N           33.92200000000000       19.34900000000000       32.64700000000000
N           33.55800000000000       22.00000000000000       33.46100000000000
N           32.72200000000000       21.11800000000000       35.99200000000000
C           32.79500000000000       18.15900000000000       36.46900000000000
C           32.90500000000000       16.71100000000000       36.73100000000000
C           33.20600000000000       16.08100000000000       35.55100000000000
C           33.31500000000000       17.14600000000000       34.58000000000000
C           34.00599999999999       17.97500000000000       32.36300000000000
C           34.49800000000000       17.74600000000000       31.01400000000000
C           34.77399999999999       18.99200000000000       30.48600000000000
C           34.38300000000000       19.95700000000000       31.48800000000000
C           34.09100000000000       22.28200000000000       32.20900000000000
C           34.17899999999999       23.73600000000000       31.95300000000000
C           33.68600000000000       24.32300000000000       33.08400000000000
C           33.27700000000000       23.24600000000000       33.99600000000000
C           32.48400000000000       22.48100000000000       36.20400000000000
C           31.91700000000000       22.71800000000000       37.50500000000000
C           31.77500000000000       21.50600000000000       38.06900000000000
C           32.32700000000000       20.50700000000000       37.16100000000000
C           32.38000000000000       19.12300000000000       37.37900000000000
H           32.06400000000000       18.76800000000000       38.36000000000000
C           33.70800000000000       16.96000000000000       33.26900000000000
H           33.79200000000000       15.93300000000000       32.91400000000000
C           34.47000000000000       21.33800000000000       31.30000000000000
H           34.87300000000000       21.69000000000000       30.35000000000000
C           32.73900000000000       23.44800000000000       35.26100000000000
H           32.49500000000000       24.47500000000000       35.53200000000000
C           33.39500000000000       14.58500000000000       35.30400000000000
H           33.07600000000000       14.01700000000000       36.20400000000000
H           34.46600000000000       14.37000000000000       35.10399999999999
H           32.77600000000000       14.26600000000000       34.43900000000000
C           32.75900000000000       16.05400000000000       38.08900000000000
H           31.73900000000000       15.62400000000000       38.18500000000000
H           32.90900000000000       16.81000000000000       38.89000000000000
H           33.50500000000000       15.23700000000000       38.19300000000000
C           34.76100000000000       16.37800000000000       30.38400000000000
H           33.87300000000000       15.72600000000000       30.52900000000000
H           35.64000000000000       15.90300000000000       30.87100000000000
H           34.94799999999999       16.49600000000000       29.29500000000000
C           35.51400000000000       19.35200000000000       29.33700000000000
H           36.28100000000000       20.12300000000000       29.48200000000000
C           35.42700000000000       18.88500000000000       28.04500000000000
H           34.69300000000000       18.11000000000000       27.78000000000000
H           36.09000000000000       19.28100000000000       27.26200000000000
C           34.76100000000000       24.37100000000000       30.66500000000000
H           33.99800000000000       24.33800000000000       29.85800000000000
H           35.65700000000000       23.80200000000000       30.33800000000000
H           35.03400000000000       25.43000000000000       30.85900000000000
C           33.56700000000000       25.69300000000000       33.35700000000000
H           33.83200000000000       26.08299999999999       34.35099999999999
C           33.11900000000000       26.59000000000000       32.40000000000000
H           32.84400000000000       26.24200000000000       31.39399999999999
H           33.03300000000000       27.66100000000000       32.63500000000000
C           31.59000000000000       24.05900000000000       38.14600000000000
H           30.62300000000000       24.43500000000000       37.74700000000000
H           32.38800000000000       24.79400000000000       37.90699999999999
H           31.50300000000000       23.93800000000000       39.24700000000000
C           31.06600000000000       21.20200000000000       39.36599999999999
H           30.24900000000000       21.93800000000000       39.52399999999999
H           31.78300000000000       21.27300000000000       40.21099999999999
H           30.62800000000000       20.18200000000000       39.32400000000000
C           28.51300000000000       18.76800000000000       31.92800000000000
H           28.31200000000000       19.26900000000000       30.95700000000000
H           27.56900000000000       18.72400000000000       32.51200000000000
H           28.88800000000000       17.73999999999999       31.73300000000000
N           29.38500000000000       20.87100000000000       33.08000000000000
H           28.57600000000000       21.44300000000000       32.94800000000000
C           29.54200000000000       19.54600000000000       32.68800000000000
C           30.53000000000000       21.19100000000000       33.65600000000000
H           30.73600000000000       22.18300000000000       34.05700000000000
N           31.34500000000000       20.19200000000000       33.67500000000000
C           30.78300000000000       19.07500000000000       33.05500000000000
H           31.28800000000000       18.12600000000000       32.94600000000000
C           38.57000000000000       19.06600000000000       35.85100000000000
H           38.96400000000000       19.39399999999999       36.83700000000000
H           39.31200000000000       19.31900000000000       35.06400000000000
H           38.40300000000000       17.96800000000000       35.87700000000000
N           37.14800000000000       21.15300000000000       35.48500000000000
H           37.86600000000000       21.82300000000000       35.67400000000000
C           37.25800000000000       19.77800000000000       35.56700000000000
C           35.87900000000000       21.37900000000000       35.10000000000000
H           35.48800000000000       22.38100000000000       34.92300000000000
N           35.20900000000000       20.29000000000000       34.97200000000000
C           36.01700000000000       19.19100000000000       35.25700000000000
H           35.66799999999999       18.16900000000000       35.21800000000000
87
 energy: -128.339929586565 gnorm: 0.103480370145 xtb: 6.7.1 (edcfbbe)
Fe          33.31992302335106       20.21245280646821       34.31046518287491
N           33.09705083802468       18.40375808273672       35.16485845082728
N           33.92590298921824       19.33372657651283       32.62391477727433
N           33.56030958647282       22.02460879160773       33.44608938534462
N           32.71444564659939       21.12367296582116       36.00339697485263
C           32.80159921646688       18.15160420521413       36.47335900230493
C           32.90165851092211       16.72454298696394       36.74144895007915
C           33.20090134197910       16.10110753384505       35.55362504726408
C           33.32308794427330       17.14928329412255       34.58034423593768
C           33.99801897412138       17.97124575693674       32.34780958825831
C           34.49530096971235       17.74132892586564       31.02044037911073
C           34.78442592565554       18.98909302699606       30.48938055512244
C           34.40411405894746       19.95085488875484       31.49134303826900
C           34.09575168865346       22.28981658404742       32.20019538728175
C           34.17664049437420       23.71312550219331       31.94677300543356
C           33.67817679810414       24.31796839667798       33.08105234568598
C           33.29681132068969       23.25442300825420       33.99552737331996
C           32.48389653511192       22.47871854183158       36.19989988001178
C           31.92142141713830       22.71070409564905       37.49766640588449
C           31.77103185382420       21.48062284671916       38.07134003159948
C           32.30563137627647       20.50018156242903       37.15518798912444
C           32.38197504799449       19.12021563141279       37.38239662489416
H           32.06681299078555       18.77100367383364       38.35855893310965
C           33.70107785975951       16.96040144220110       33.25838639170127
H           33.80135321909373       15.93779455556587       32.91504538120093
C           34.48264703333338       21.32821797931356       31.29327990912798
H           34.86791934372430       21.67520581666060       30.34339224742278
C           32.74628810262682       23.45855393425180       35.25759171683364
H           32.50659904726707       24.47947250959593       35.53137935141599
C           33.39045964739179       14.62007742349917       35.30732576098720
H           33.08060398050847       14.04137317589375       36.18476572154630
H           34.44247513533568       14.38254597382781       35.10270614036316
H           32.79120926107176       14.28133253223285       34.45413857203540
C           32.75359716632406       16.06580376771370       38.08226216848126
H           31.75169813165256       15.63125191478360       38.19045091265492
H           32.90683692182378       16.79314557126168       38.88424777480272
H           33.48743001590935       15.25883322618682       38.19327666506015
C           34.75224940697652       16.39306469458600       30.39779772510154
H           33.88536792140717       15.73533678458529       30.52751257628574
H           35.62071384251517       15.91179946042898       30.86462953186103
H           34.94931602424791       16.49844317609951       29.32686110926807
C           35.52014765450336       19.35250239165056       29.31630982343024
H           36.26748782126923       20.13217775476170       29.47042496691669
C           35.42769160459792       18.88062446007667       28.06128805652807
H           34.69880608895367       18.12779402873276       27.78520210598163
H           36.07416002808769       19.26326771333669       27.28013285782048
C           34.74805464497923       24.34988169061641       30.69225368440955
H           34.01080672557671       24.33109131688904       29.87924674676453
H           35.63793782916817       23.80940813570891       30.35212719425016
H           35.02285737776599       25.39589641356167       30.87226911993077
C           33.55141345981593       25.71387140501301       33.34448999167785
H           33.80479222409991       26.08584074551121       34.33784167802175
C           33.13164422616217       26.59064745434360       32.41196273364046
H           32.84406325496357       26.25258823088407       31.42375287985942
H           33.04097732765188       27.64704028055725       32.63136253583710
C           31.59202973241455       24.04192611495983       38.12586725690512
H           30.63820402482570       24.43262968067706       37.74857594119815
H           32.37237257273004       24.77917470965095       37.90828421572832
H           31.50897701855958       23.93732241104797       39.21339430252307
C           31.07457258754066       21.19297919473763       39.36595621787476
H           30.26877279275184       21.91944865702111       39.52506790582066
H           31.77063504309963       21.26095221729401       40.21001521799975
H           30.63482699888343       20.19265455406764       39.33940832213250
C           28.49884855200312       18.77018932060102       31.92397570733962
H           28.29938229316661       19.25647089542002       30.96283456316728
H           27.56656883308156       18.71591868532320       32.49520374989635
H           28.87077520722968       17.76000040354976       31.73688199174794
N           29.38788922804626       20.84523960186299       33.06800504358986
H           28.57396119040020       21.42055787007324       32.93532490031711
C           29.53098848119075       19.53115334521464       32.67679649631359
C           30.54207208275880       21.18550162037809       33.66170532147638
H           30.74108790317152       22.16810064377546       34.06064611323372
N           31.37613812619966       20.19095358044352       33.67627396833940
C           30.77228614900306       19.11114929645425       33.06091455993383
H           31.27349397935360       18.16746339277442       32.95328113945386
C           38.56543857111016       19.07087358959257       35.85752762672454
H           38.96534526159294       19.38767786926487       36.82697362171068
H           39.30132493961966       19.31076428819967       35.08160803580839
H           38.40650327157905       17.99059616281946       35.87608186540174
N           37.15179325685546       21.12731678494647       35.47968458016226
H           37.87408005387925       21.79998411794895       35.67101407339647
C           37.26845841007862       19.76044943395054       35.56492689681011
C           35.87952446031792       21.38013502928908       35.10665522965738
H           35.49436930018715       22.37270706921549       34.93612373475507
N           35.20221309967028       20.28424321674292       34.96477241516790
C           36.03831440607301       19.22557633151816       35.25221021386898
H           35.69118129536491       18.20954426595955       35.21622119646091
87
 energy: -128.352047161164 gnorm: 0.022023035594 xtb: 6.7.1 (edcfbbe)
Fe          33.31682605841309       20.20933453751455       34.30493369861324
N           33.09538432873210       18.38210838195327       35.16185366719453
N           33.93284610580161       19.31917424027471       32.60365611717831
N           33.56864109802613       22.04615706925896       33.43550167709066
N           32.70289376111410       21.12753242308094       36.00820690946300
C           32.80420228848370       18.14512614836017       36.47642968456160
C           32.89885526960717       16.73885767047939       36.75059859196595
C           33.19921807219784       16.11951188103556       35.55588260773861
C           33.32555078922844       17.15617906991012       34.58307484385667
C           33.99182313683625       17.96821873782268       32.33405069287014
C           34.49638662207882       17.73757927508205       31.02482124415766
C           34.80305851060056       18.98726537989242       30.49664406043071
C           34.42601443258669       19.94423857537331       31.49514438495626
C           34.10005207826990       22.29820125261795       32.19414388743188
C           34.17288800048355       23.69412529331169       31.94510843351349
C           33.67169913337847       24.31359039757091       33.08373377735761
C           33.31163475009885       23.26290130301741       33.99388079117303
C           32.48333991238469       22.47221490461022       36.19686911455218
C           31.92118264685941       22.70012655336136       37.48800303388996
C           31.76445156278886       21.45745988055043       38.06920772731443
C           32.28600092968650       20.49671990476851       37.14817114358919
C           32.38300366544873       19.11870813169301       37.38297472211455
H           32.07279431017351       18.77412603975322       38.35792185699862
C           33.69050670533206       16.96210879576858       33.25120595482835
H           33.80927791610981       15.94142545547835       32.91963558832304
C           34.49490153610055       21.31886830572845       31.28999851226491
H           34.86461902916083       21.65995086811742       30.33672111657672
C           32.75509832379323       23.46540540813112       35.25779718826348
H           32.52638452400753       24.48272121503078       35.53832308492076
C           33.38657296763382       14.65340869475471       35.30985580013441
H           33.07953813099202       14.07650604395609       36.17955883440516
H           34.43107274084975       14.41452403918364       35.10051079063609
H           32.79478655084648       14.31550254956992       34.45962860007303
C           32.74595622418186       16.07839510526883       38.07956922379498
H           31.75240487556560       15.64197939305613       38.19101743166581
H           32.90106186908949       16.78992257827132       38.88422019044012
H           33.47494111206665       15.27649364178063       38.18872282426680
C           34.74567557558113       16.40294179918187       30.40839850607594
H           33.88558359525532       15.74677402151778       30.52997973806256
H           35.60610610627498       15.91856578573917       30.87256452125135
H           34.95327658492787       16.50802949176300       29.34824904105587
C           35.52753854306574       19.35577464695341       29.30230813000563
H           36.25817634780699       20.14428073612110       29.46443654686853
C           35.41983834276575       18.87434695109507       28.06989003090676
H           34.69989493658721       18.12554092020449       27.79306923603051
H           36.05665555131086       19.23951935992267       27.28241272676193
C           34.73494081339716       24.32990049280310       30.71668972609521
H           34.00946490904863       24.31829982007608       29.90067021281393
H           35.62366476498966       23.80199828424835       30.37429418991231
H           35.00684459172297       25.36713712356850       30.90604862498554
C           33.53530606196650       25.72753673482266       33.33664125232463
H           33.77677004939931       26.07731648034542       34.33502312616747
C           33.12898029234282       26.59720454287870       32.42064104718767
H           32.84693180282483       26.27334795172234       31.43505854811149
H           33.05138118172685       27.64958358652987       32.62591156568777
C           31.59365703766783       24.02309645409181       38.10545297254036
H           30.64720344615086       24.41827462015734       37.73340169960304
H           32.36804982393346       24.75766429089885       37.89292461872597
H           31.51336901056510       23.92415262480112       39.18620714690641
C           31.08413399754825       21.17965252677778       39.36770636493132
H           30.28710799797837       21.90427062050831       39.52832591713116
H           31.77381782707092       21.24712261503764       40.20873646335956
H           30.64310313943777       20.18787986692349       39.35851967138998
C           28.48735939035567       18.77000644742778       31.92223493077152
H           28.28386035324131       19.25040961676772       30.96757636537068
H           27.56062391549077       18.71390759273247       32.48754454495733
H           28.84982604194114       17.76581013806973       31.73582729619604
N           29.39509943146932       20.82560128530575       33.05895813006336
H           28.57948339938427       21.40287580210657       32.92732665395724
C           29.52773982997649       19.51913660834138       32.66647084099823
C           30.55027882665448       21.18412491685852       33.66158192154769
H           30.74042575893594       22.15906055021555       34.06362341814196
N           31.39893994518983       20.19009447791824       33.67214544379188
C           30.77425737148324       19.13875453280231       33.06022262738071
H           31.27029486019207       18.19623777774272       32.95404414117293
C           38.56329716069585       19.07193158594778       35.86278846139630
H           38.96050105183647       19.38779808067148       36.82471495904579
H           39.29933674648844       19.30593198501893       35.09498715679757
H           38.40971571414602       17.99947388076145       35.88009135321921
N           37.15782714075758       21.10961741177544       35.47499944030096
H           37.88285038296568       21.78229982875720       35.66753939565520
C           37.27809858242301       19.74710143395403       35.55808291039242
C           35.88695621067851       21.38570646978051       35.11276532350031
H           35.50655033756043       22.37378337959857       34.95696733193684
N           35.19966599852900       20.28365253251738       34.95740027190742
C           36.05111572552254       19.25134572157610       35.23997737834969
H           35.70855352372595       18.23745644927349       35.20199026964971
87
 energy: -128.353950691303 gnorm: 0.011121732965 xtb: 6.7.1 (edcfbbe)
Fe          33.31744035299607       20.20965380478303       34.30241998471350
N           33.08936091145482       18.38542267519987       35.16026419022604
N           33.93864061480858       19.31722090282847       32.60046095109912
N           33.57077430880761       22.04933605139723       33.43595360067873
N           32.69247957599217       21.12285501361227       36.00405216730490
C           32.80034904356672       18.14847358141690       36.47657636327981
C           32.89467737624354       16.74854493795537       36.75289723177978
C           33.19705776389281       16.13142082479430       35.55715082853516
C           33.32235935681106       17.16576349485535       34.58407631726703
C           33.99126459885483       17.96934056663240       32.33136989896624
C           34.50317345347023       17.73775286520775       31.02702561503037
C           34.82095383038611       18.98675143782380       30.50181792136658
C           34.44286174745330       19.94257373167451       31.49922507038513
C           34.10039739785746       22.29877001556177       32.19638525090492
C           34.16270803046505       23.69136131335631       31.94809583643347
C           33.65765011707593       24.31490924651555       33.08627521619725
C           33.31228751517901       23.26503659579269       33.99590699027055
C           32.48002411653778       22.46384671883694       36.19506196327300
C           31.91481173003804       22.68965967672111       37.48232996532213
C           31.75885258856603       21.44607879277015       38.06743406230560
C           32.27410936037359       20.49274643875947       37.14320130835836
C           32.37899056742339       19.11831555518356       37.38265107202179
H           32.07795976253157       18.77479539788089       38.36073451070095
C           33.68511231180500       16.96599153251464       33.25114861156528
H           33.81286180595969       15.94446502720372       32.92544925355994
C           34.50471516261776       21.31617995996547       31.29398634141670
H           34.86613609396123       21.65469205970574       30.33609666306187
C           32.76131811350798       23.46368207592322       35.26317722818728
H           32.54855516683240       24.48205969003278       35.55274975992774
C           33.38502249479677       14.67171506789642       35.30809118135171
H           33.07816078999225       14.09671244621432       36.17839584360053
H           34.43037434021331       14.44035693629189       35.09547966361477
H           32.79156836194893       14.34240713457636       34.45580101390762
C           32.73537656730924       16.08827656909030       38.08090192332237
H           31.73981854607642       15.65504158516817       38.19028120086773
H           32.89103973971927       16.79712291436390       38.88923720915307
H           33.46272991258950       15.28463272099742       38.18982605908957
C           34.74586721439456       16.40169792541151       30.41482101294448
H           33.87761831228335       15.75387216128139       30.52812883373980
H           35.59673456044118       15.91010630513103       30.89053942621167
H           34.96754256938846       16.50709800435943       29.35727592730769
C           35.53483142247912       19.35308348649620       29.29876134326171
H           36.25273298444667       20.15559169375459       29.44834874271982
C           35.41313637266489       18.85263480418902       28.07197239330174
H           34.68786185003918       18.10247327776717       27.81116691567798
H           36.03160515004283       19.21496903266435       27.26663936165409
C           34.72867024593474       24.32695912803215       30.72650177493902
H           34.00603385427838       24.31428880613869       29.90789918983619
H           35.61962998419623       23.79790422324192       30.39053670963648
H           34.99618255742354       25.36224692446998       30.92920671710305
C           33.51813110289274       25.73076606378944       33.33799572435521
H           33.73967376254448       26.06808314380559       34.34575349269856
C           33.13433527865742       26.61402090282378       32.41882853207367
H           32.85172965682173       26.30119305052506       31.42889555878417
H           33.05533180991716       27.66591868550260       32.63143986840649
C           31.58871266505177       24.01319609084968       38.08970591756533
H           30.64377363811601       24.40634058134106       37.71081858779669
H           32.36646679001610       24.74286201869944       37.87079847183760
H           31.50828933739025       23.91784146969023       39.17045269579921
C           31.09730458611127       21.16557121112170       39.37558368524968
H           30.30228331627229       21.88999381659248       39.54711275442921
H           31.79883370965633       21.23248423619498       40.20793553883329
H           30.65622586139122       20.17210893191951       39.37832637093180
C           28.47879586162460       18.76918524963453       31.92295625644130
H           28.26580095910119       19.24930465679504       30.96887733694516
H           27.55443572675062       18.71858689698896       32.49505556037467
H           28.82904023537622       17.76022729831992       31.73257718379799
N           29.40025682856390       20.82006387163463       33.05186704091965
H           28.58408518307767       21.39635219065153       32.92289058217806
C           29.53117409851825       19.51409877667774       32.65752767853373
C           30.55430123550846       21.18439550111331       33.65199509700206
H           30.73949958998934       22.15691270804475       34.06157154722705
N           31.40778714983343       20.19057466519112       33.65753458986307
C           30.78382008566482       19.14220866579803       33.04704776113707
H           31.27899144508577       18.19986034041203       32.93872459434277
C           38.56861395020201       19.06794594133220       35.86719839560212
H           38.95499902809789       19.38792496190001       36.83313843176656
H           39.31475628106116       19.29875402425522       35.10714929468252
H           38.41524585300860       17.99448443236840       35.88748606571706
N           37.17050824445767       21.10752086995003       35.47396260969247
H           37.89799858908329       21.77612661308636       35.66934231424501
C           37.28790518939260       19.74417116748474       35.54731225403883
C           35.90125124397168       21.39349442381603       35.11836932405068
H           35.52190751686616       22.38532062414200       34.98358459772485
N           35.20819735567163       20.29253371775320       34.95114749792770
C           36.05743644023121       19.25777550430090       35.21807482669172
H           35.71767978789418       18.24390556305187       35.16817534295640
87
 energy: -128.355318079095 gnorm: 0.011763324605 xtb: 6.7.1 (edcfbbe)
Fe          33.31803918046401       20.21182537292112       34.30060336769930
N           33.08522572392574       18.39617586629797       35.15906987696827
N           33.95080827522738       19.31844687164897       32.60141648134835
N           33.57469533138909       22.05105255233365       33.44170293336806
N           32.68050097889397       21.11549971040071       35.99834194854360
C           32.79599441952607       18.15486637099067       36.47614434103514
C           32.88949788505575       16.75881145082205       36.75244514267230
C           33.19404325479142       16.14382289435283       35.55653307195352
C           33.31985133482626       17.17924480604702       34.58440966328453
C           33.99573010725808       17.97326520463871       32.33065161833050
C           34.51257942497368       17.73975838459674       31.02937908506944
C           34.84326938605253       18.98797941842758       30.50780217462171
C           34.46611995410282       19.94398289379502       31.50589506097880
C           34.09957651072012       22.30034945090405       32.20296393836896
C           34.14607880287279       23.69161373191746       31.95079525533572
C           33.63560106294586       24.31793447583079       33.08878901351972
C           33.30785611494370       23.26723314372971       34.00026189993946
C           32.47204178374209       22.45267236688169       36.19309337274938
C           31.90604264751850       22.67862085367193       37.47817476549310
C           31.75235162224709       21.43555560954536       38.06679892869082
C           32.26349470619295       20.48804274724940       37.14002442904421
C           32.37462220269421       19.11832924398425       37.38388673253736
H           32.08144938519054       18.77482971922037       38.36433007574155
C           33.68259863099929       16.97224167412890       33.25286449492925
H           33.81470443937749       15.94989838172563       32.93237117233809
C           34.51736417512833       21.31675233063537       31.30211048469767
H           34.87245891299569       21.65418232544657       30.34086242931074
C           32.76552636326551       23.45986170578787       35.27117362579433
H           32.57388658165009       24.47908473670130       35.57341874959105
C           33.38335224604970       14.68839863862135       35.30220409793422
H           33.07906389490826       14.11103907154467       36.17157395604229