78
 energy: -115.980575729263 gnorm: 0.263559964798 xtb: 6.7.1 (edcfbbe)
Fe          34.84800000000000        4.01400000000000       10.34100000000000
N           36.71500000000000        3.75600000000000        9.78100000000000
N           34.61200000000000        5.30900000000000        8.87300000000000
N           33.01800000000000        4.38700000000000       10.97500000000000
N           35.11700000000000        2.75800000000000       11.81800000000000
C           37.66800000000000        2.91900000000000       10.32100000000000
C           38.90700000000000        2.95900000000000        9.56900000000000
C           38.70600000000000        3.83000000000000        8.55500000000000
C           37.36400000000000        4.31200000000000        8.68400000000000
C           35.50200000000000        5.67000000000000        7.89500000000000
C           34.92999999999999        6.65700000000000        6.98400000000000
C           33.68500000000000        6.92700000000000        7.44000000000000
C           33.49600000000000        6.08500000000000        8.59900000000000
C           32.11000000000000        5.30100000000000       10.47600000000000
C           30.92900000000000        5.41300000000000       11.31500000000000
C           31.10500000000000        4.52500000000000       12.34900000000000
C           32.38700000000000        3.88300000000000       12.10100000000000
C           34.23400000000000        2.44000000000000       12.83300000000000
C           34.84500000000000        1.56400000000000       13.80500000000000
C           36.11100000000000        1.37100000000000       13.39500000000000
C           36.26700000000000        2.07200000000000       12.15300000000000
C           37.45399999999999        2.12100000000000       11.44200000000000
H           38.27700000000000        1.49200000000000       11.78300000000000
C           36.79200000000000        5.20000000000000        7.80700000000000
H           37.40500000000000        5.55900000000000        6.98000000000000
C           32.33100000000000        6.07800000000000        9.35000000000000
H           31.52400000000000        6.73700000000000        9.02900000000000
C           32.95500000000000        2.95300000000000       12.95900000000000
H           32.34900000000000        2.60000000000000       13.79400000000000
C           39.67100000000000        4.16900000000000        7.42800000000000
H           39.28400000000000        3.75700000000000        6.47200000000000
H           40.66499999999999        3.72000000000000        7.63700000000000
H           39.76500000000000        5.27200000000000        7.33300000000000
C           40.16900000000000        2.10800000000000        9.81700000000000
H           39.89899999999999        1.21000000000000       10.41300000000000
H           40.91799999999999        2.70300000000000       10.38200000000000
H           40.59800000000000        1.78100000000000        8.84600000000000
C           35.58899999999999        7.21800000000000        5.72000000000000
H           36.26400000000000        6.45200000000000        5.28200000000000
H           36.18599999999999        8.11900000000000        5.97600000000000
H           34.80800000000000        7.47900000000000        4.97400000000000
C           32.69800000000000        7.78000000000000        6.87400000000000
H           31.65200000000000        7.44200000000000        6.83100000000000
C           32.99900000000000        9.10000000000000        6.33800000000000
H           34.02800000000000        9.48800000000000        6.35500000000000
H           32.20100000000000        9.72400000000000        5.91000000000000
C           29.73500000000000        6.34600000000000       11.05600000000000
H           28.84800000000000        5.74200000000000       10.76700000000000
H           29.97900000000000        7.04700000000000       10.22900000000000
H           29.49700000000000        6.91600000000000       11.97900000000000
C           30.31300000000000        4.32500000000000       13.51700000000000
H           30.73800000000000        3.73600000000000       14.34200000000000
C           28.96600000000000        4.84100000000000       13.71700000000000
H           28.47500000000000        5.43900000000000       12.93500000000000
H           28.42400000000000        4.63900000000000       14.65300000000000
C           34.18500000000000        1.01200000000000       15.07000000000000
H           33.20000000000000        0.56900000000000       14.81100000000000
H           34.02900000000000        1.83400000000000       15.80100000000000
H           34.82900000000000        0.22400000000000       15.51600000000000
C           37.20700000000000        0.67700000000000       14.15500000000000
H           37.31700000000000       -0.36300000000000       13.78000000000000
H           36.95199999999999        0.64500000000000       15.23600000000000
H           38.16600000000000        1.21700000000000       14.00700000000000
O           35.39100000000000        5.57300000000000       11.65000000000000
H           34.57099999999999        5.97400000000000       11.93800000000000
H           36.21000000000000        5.81900000000000       11.89300000000000
C           32.01800000000000       -0.02600000000000        7.53200000000000
H           32.19100000000000       -1.02900000000000        7.97700000000000
H           32.06600000000000       -0.11000000000000        6.42500000000000
H           31.01500000000000        0.33700000000000        7.84200000000000
N           34.41800000000000        0.72100000000000        7.78200000000000
H           34.78899999999999       -0.01300000000000        7.21400000000000
C           33.07400000000000        0.92600000000000        8.01500000000000
C           35.11999999999999        1.63900000000000        8.42200000000000
H           36.20700000000000        1.70600000000000        8.40800000000000
N           34.28200000000000        2.43500000000000        9.06100000000000
C           32.99500000000000        2.01400000000000        8.81800000000000
H           32.14300000000000        2.53100000000000        9.24100000000000
78
 energy: -116.033359960738 gnorm: 0.100564189321 xtb: 6.7.1 (edcfbbe)
Fe          34.84409019155391        4.00592115778065       10.32626143267918
N           36.73611680397489        3.75250355241587        9.77328414877726
N           34.60262959442336        5.32959056797740        8.86021406873428
N           32.99467595800621        4.39020243568561       10.98626859791882
N           35.11737969877438        2.75382570859019       11.83151099836320
C           37.67125858172778        2.91281427699337       10.32056375842340
C           38.90796689967686        2.94187644372828        9.56778746724248
C           38.70981302983410        3.82010816017400        8.54888351292283
C           37.36555781058935        4.31059248587911        8.68213826394184
C           35.49821902981383        5.67744156321272        7.88772819036187
C           34.93912388710642        6.65800523919308        6.97830303534317
C           33.68161382852225        6.93289076278420        7.43229649762297
C           33.48464490971203        6.08075360151681        8.59296025948816
C           32.10403827041890        5.30711914535049       10.47960233556980
C           30.92362996042647        5.41464871091484       11.30423423865069
C           31.09419932577872        4.53395329546468       12.35179842960128
C           32.38543556874285        3.89554328060969       12.11397878209283
C           34.22897408322826        2.43790578107739       12.83000167535043
C           34.83777011181063        1.56587172558950       13.80902724378489
C           36.11605804828672        1.37365919487189       13.40070531072063
C           36.27077900704198        2.08610806263036       12.15853334328660
C           37.45222532391677        2.12582008424009       11.44042261608547
H           38.26962029226584        1.50192311882609       11.78357894993431
C           36.79049916960212        5.20109981188389        7.80128340047868
H           37.40349755089382        5.55920364169526        6.98303184317056
C           32.32796091324659        6.07551517708630        9.34700442512292
H           31.53218427200324        6.73714489339721        9.02847019151844
C           32.95122425830510        2.95133398869292       12.95394882767477
H           32.35688366242584        2.60334164337822       13.78997334455194
C           39.66162127290605        4.16836819135167        7.43659425033027
H           39.29032645514418        3.76775906260090        6.48501573857423
H           40.64648863647975        3.73435335837628        7.63344426017147
H           39.76655451457363        5.25407064598842        7.33494963971278
C           40.14963942262428        2.11387057186035        9.82171986391064
H           39.90457718510828        1.22222510900518       10.40582474376811
H           40.90108758109708        2.69349978457754       10.37154256450889
H           40.58668836543820        1.79107647562879        8.87002290535307
C           35.59153054818633        7.20673459511938        5.73522522875910
H           36.25794807069583        6.46212338025569        5.28799013487386
H           36.17903460995304        8.10197485137985        5.97047079958348
H           34.82390954611434        7.47642912208003        4.99977032697813
C           32.70527764110983        7.82183296500149        6.86344119816304
H           31.67083473464167        7.47905190106588        6.83412128586633
C           32.98954701325649        9.05260856766838        6.34833707399454
H           33.99557572987738        9.45659882646347        6.36915485737504
H           32.21394549821686        9.68357645789914        5.92688997026432
C           29.75463803099681        6.33630684583761       11.05112351186864
H           28.86879868945907        5.75255245824582       10.76847630476973
H           29.97462417051979        7.03863549701756       10.24291058674599
H           29.51470084456167        6.90847741153779       11.95538413501334
C           30.27427706525151        4.33490604582957       13.51209222761057
H           30.70666328111477        3.75309247871812       14.32573792506072
C           29.00986909168826        4.82153929997420       13.71020691102086
H           28.49687246510028        5.40350770603133       12.95762614747752
H           28.46831861171166        4.63278593330709       14.63121138101824
C           34.18377308343734        1.02110942239584       15.05425302697076
H           33.21184667666343        0.57706815312996       14.81440305326361
H           34.02889416791778        1.82020543595946       15.78903471980359
H           34.81209953834109        0.24530932441668       15.50473436608539
C           37.20647217849864        0.67194091459034       14.14657714546076
H           37.32549445264551       -0.35684338904714       13.78607275332239
H           36.96575287080484        0.64146363562554       15.21434293671165
H           38.15512799364804        1.20197450614058       14.01541339963894
O           35.37865033451122        5.57702233803823       11.64420808204363
H           34.57711326300827        5.99571729088152       11.95688269594699
H           36.23810272483990        5.84417241410178       11.91426629887151
C           32.02190662144600       -0.02571579662774        7.52849517328441
H           32.18277096881888       -1.01863285842220        7.96499524334418
H           32.05699690924358       -0.11363153099241        6.43694148935139
H           31.03460921333333        0.33193578007256        7.83181336466681
N           34.40671639396317        0.70718918019843        7.77726091185036
H           34.78367613401404       -0.02839922129197        7.20600995801402
C           33.07083310208832        0.91344471543202        8.01759428873672
C           35.10552101840989        1.64658526056450        8.42650844560721
H           36.18083523972651        1.71385639060321        8.41333993046226
N           34.28409990927074        2.44950985900749        9.06642313741919
C           33.01044536879812        2.01159264568938        8.82205254235675
H           32.16384271863486        2.52545047507215        9.23829787460079
78
 energy: -116.043280068191 gnorm: 0.044281582088 xtb: 6.7.1 (edcfbbe)
Fe          34.84150060227937        4.00135322787142       10.31602074768448
N           36.75192541645626        3.74744664033227        9.76041745175975
N           34.59298066672122        5.33711904550579        8.84145821842381
N           32.97228052652700        4.39399822977785       10.99235388302666
N           35.11816212134454        2.74912854786914       11.84233243536653
C           37.67123381910840        2.90702326143918       10.31516654835070
C           38.90554372244188        2.92625768402054        9.56115553698300
C           38.71154761731371        3.80884137124721        8.54065115932669
C           37.36508776690808        4.30515765653012        8.67653891825876
C           35.49473716862869        5.67896439284177        7.87946884143121
C           34.94176751957497        6.65509444996836        6.97343652223051
C           33.67708103115534        6.92397633186381        7.42279413738248
C           33.47778235774773        6.07383619258766        8.58545716737436
C           32.09691830003847        5.30916883379298       10.47698726383850
C           30.92052036538183        5.41622733801884       11.29528326213390
C           31.09164960858250        4.54166242199375       12.34784365155235
C           32.38246473388813        3.90461719959082       12.11843190362970
C           34.22676079964460        2.43868899956507       12.82703033599030
C           34.83362277745825        1.56750800474920       13.80981459129894
C           36.11981528300122        1.37858506319297       13.40732130373022
C           36.27328923414562        2.10098936795247       12.16599762997027
C           37.45027628730669        2.13420068046754       11.44105080816583
H           38.26506935743011        1.51713323501169       11.79014309794904
C           36.78889761039586        5.19963186803451        7.79556246361140
H           37.40310254970428        5.55927211590363        6.98428389987005
C           32.32431937259283        6.07177123330443        9.34065684478673
H           31.53710416611760        6.73879927451223        9.02445859455310
C           32.94832670630419        2.95213097835991       12.94855005357659
H           32.36322006432692        2.60929426008230       13.78862433451839
C           39.65619456925565        4.16734245807544        7.44259570349208
H           39.29249054261141        3.77777216576547        6.49074485636684
H           40.63804398942725        3.74384333896355        7.63401898764296
H           39.76044757284410        5.24595740131902        7.34644151143975
C           40.13157590830417        2.11593494785287        9.82582630154606
H           39.89955198085031        1.22888385943306       10.40739729932241
H           40.87749614839424        2.69556477213025       10.37033665801567
H           40.57829989712038        1.79743891103532        8.88513321839682
C           35.59502466573387        7.19971235983495        5.74981617550304
H           36.25540810669273        6.46344043432406        5.29853392599586
H           36.18226852417115        8.08930362417424        5.97715340927289
H           34.83378123840890        7.47743242428404        5.02179441779836
C           32.70581701824659        7.83961756421732        6.85706584616675
H           31.67725782227395        7.49284676737838        6.85115778427582
C           32.98182793709240        9.02491212647585        6.36690424646049
H           33.97798481987927        9.43337285076366        6.37474576332733
H           32.22256822621497        9.65530678995854        5.93353501806834
C           29.77155527766678        6.33148146389246       11.04446066737780
H           28.88516331664723        5.75882178962268       10.76671035296954
H           29.98420724222423        7.03168435008617       10.24341282942556
H           29.53832511636010        6.90547662841127       11.94082995239355
C           30.25575065946494        4.33840307743320       13.50673138679035
H           30.70279207438398        3.75484432698206       14.30467252218494
C           29.03639114147665        4.79788393537002       13.70340130312310
H           28.49691217825417        5.36859362045817       12.97226198650891
H           28.50520026679833        4.61797669620169       14.62311098201443
C           34.17867917369411        1.03035932471829       15.03868679224091
H           33.21250094713895        0.58845891710567       14.80485583338993
H           34.02310781061853        1.82026362341399       15.77365812607462
H           34.80043501682366        0.26192109998410       15.49182136678827
C           37.20726248897567        0.66591773152459       14.13945872580260
H           37.32955378632839       -0.35510331126136       13.77941910082239
H           36.97669503851628        0.62905475666092       15.20124090474004
H           38.15241046040354        1.18881159295724       14.01687001639247
O           35.38309584119357        5.60314849618062       11.63469081921445
H           34.60868246806502        6.03808671502852       11.99985342304118
H           36.24842964032047        5.87072743743505       11.93971625341275
C           32.02177246581455       -0.02275147726359        7.52767104985844
H           32.17228238573871       -1.01440729652626        7.95381879144540
H           32.05391966729452       -0.10913817877699        6.44339153705265
H           31.04225927685816        0.33481969453021        7.82395630385312
N           34.39906760666223        0.69650203938777        7.78023311425835
H           34.78029714229758       -0.03925455092827        7.20765976614528
C           33.06833518549990        0.90465290518384        8.02675683277167
C           35.09445722785391        1.65343030314007        8.43027630515528
H           36.16176596450209        1.72273347397748        8.41399303702341
N           34.28559546651096        2.45920857044699        9.07429362296060
C           33.02136105910169        2.00969345448957        8.82996318030727
H           32.17571008646291        2.51813808775985        9.24263038459491
78
 energy: -116.046215474489 gnorm: 0.018305055740 xtb: 6.7.1 (edcfbbe)
Fe          34.84454995516327        4.00793404982969       10.31579421714918
N           36.75455937712096        3.74443900388744        9.75208390803077
N           34.58993416226868        5.33240512125794        8.83125765517506
N           32.96763983442955        4.39554264725272       10.98903710035256
N           35.12326183792592        2.75758457256520       11.84817604539742
C           37.66881413683277        2.90434361469323       10.30993410937647
C           38.90018117311833        2.91674877741080        9.55323153643559
C           38.70915284732001        3.79904793478258        8.53245583472420
C           37.36264338389581        4.29766076982927        8.66798192012822
C           35.49256602224418        5.67314760359753        7.87250630738412
C           34.93908577702396        6.64977412216743        6.96967124402252
C           33.67248136500415        6.91126274353057        7.41692284392456
C           33.47425999710988        6.06299275126815        8.57724585478521
C           32.09461044023836        5.30626680086386       10.46997750840884
C           30.91976624456732        5.41362607848830       11.28803281432411
C           31.09322944886664        4.53917764908355       12.33830900914217
C           32.38350095733422        3.90726695857553       12.11410221744751
C           34.22925424247487        2.44517373032278       12.82564265867739
C           34.83434559314890        1.57288662227842       13.80830472574051
C           36.12255046405109        1.38531247642612       13.41085411544909
C           36.27730517987987        2.11400411316263       12.17235013359371
C           37.45170969994260        2.14366569546238       11.44432337476137
H           38.26802429975636        1.53330947814475       11.79970451036577
C           36.78703955064118        5.19425240269976        7.78852048443768
H           37.40269602721446        5.55753868861071        6.98030773508679
C           32.32102822746399        6.06457231412756        9.33182542255169
H           31.53760321141659        6.73617783917656        9.01646740216316
C           32.94989416435737        2.95575427889784       12.94466324540752
H           32.36741797470962        2.61445454851307       13.78676776076510
C           39.65577875893457        4.16893221124381        7.44285706254283
H           39.29791954878392        3.78875035166182        6.48514740564823
H           40.63920211973524        3.74993432777575        7.63394673746804
H           39.75511000907040        5.24886626747507        7.35876793973443
C           40.12407090097017        2.11328023813033        9.83134413144638
H           39.89287746363329        1.22769390044710       10.41519866061526
H           40.86065701193470        2.70064654803753       10.37976170729660
H           40.58148277141289        1.79435387127441        8.89639323040568
C           35.60096057364294        7.19834872591183        5.75557045170802
H           36.25753227180087        6.46042619302721        5.30144312502502
H           36.19528472853110        8.08070641609165        5.99129806373880
H           34.84387075127402        7.48845267811093        5.02911584477014
C           32.69678523376717        7.82754626069306        6.85850416915041
H           31.66737909734900        7.48482348246618        6.87139475854821
C           32.98049765772434        9.01851340452443        6.35021751067499
H           33.97550278981440        9.42762728544144        6.36814845762325
H           32.21852366183493        9.65856735722808        5.93816919330347
C           29.77938654468372        6.33497871546512       11.03774872224100
H           28.88837549684639        5.76932116757574       10.76279194672293
H           29.99584312832098        7.03216833555029       10.23522524993041
H           29.55575804474777        6.91256381434409       11.93345679083982
C           30.26273699752665        4.32689526434925       13.49955137569441
H           30.72437502580722        3.74702529795332       14.29076086245388
C           29.03007468897832        4.77778343099046       13.71041136882551
H           28.46814617295534        5.33368948771519       12.98373390298108
H           28.51566446914576        4.58850835025417       14.63703279024497
C           34.16894482047966        1.03778036245026       15.02917816394084
H           33.20333163025429        0.59881488666074       14.78857160369813
H           34.00892012920426        1.82818896547679       15.76248014823905
H           34.78606202751339        0.26946622543071       15.48717317774991
C           37.20809829129826        0.65770360284613       14.13172335595747
H           37.32744735038186       -0.35925060374129       13.75921483339667
H           36.98313731924539        0.60703333239158       15.19395844261565
H           38.15631746962380        1.17633343599416       14.01470398358842
O           35.40064221757969        5.65299207933507       11.61712780387941
H           34.64481642878517        6.07029677301683       12.05215101711830
H           36.26395855719488        5.88900551063996       11.96797231951988
C           32.01718632731206       -0.01685495100464        7.52860247285884
H           32.15756145171981       -1.01414882173521        7.94523677552419
H           32.05364020049345       -0.09536278517449        6.44378263752435
H           31.03809206197820        0.34447239787714        7.82033079145285
N           34.39517561564369        0.69284013968707        7.79013564527846
H           34.77638787144715       -0.04252451532485        7.21647758281352
C           33.06552428479213        0.90167910886586        8.04031483980342
C           35.09015148970830        1.65496019097417        8.43691404636749
H           36.15599430797007        1.72823548981590        8.41408695223590
N           34.28493514545880        2.46084159393638        9.08484498688883
C           33.02210887789462        2.00632013166053        8.84498328383771
H           32.17566460927285        2.51145067927543        9.25859198086841
78
 energy: -116.047427426888 gnorm: 0.052803892135 xtb: 6.7.1 (edcfbbe)
Fe          34.84899152541244        4.01717848461828       10.31093216003145
N           36.75794756461687        3.74190026360188        9.74006458759429
N           34.58488231753816        5.31903909667707        8.81143788720147
N           32.96505127351468        4.40108733715959       10.98495107988964
N           35.13526746350966        2.77915579246680       11.85966139833412
C           37.66667066852470        2.90324892377645       10.30270016678840
C           38.89459191217093        2.90552754797900        9.54157303414225
C           38.70708312503217        3.78484560397503        8.51894016079984
C           37.36016530651776        4.28744756109489        8.65440951845575
C           35.49044370762174        5.66476588563278        7.86068097522273
C           34.93649932961831        6.64533510807533        6.96241500558114
C           33.66679390467749        6.89526860977247        7.40600912688923
C           33.46896593670948        6.04343965550470        8.56009323735855
C           32.09271437892287        5.30362471192019       10.46014973400526
C           30.91596550786752        5.40864979573420       11.27708645273976
C           31.09356590970595        4.53533691243330       12.32500825953751
C           32.38568314818116        3.91255778324948       12.10784039582353
C           34.23662422852077        2.46106792587380       12.82649443906002
C           34.83705199758776        1.58200898592214       13.80656633148486
C           36.12752636992314        1.39744891359536       13.41717562743055
C           36.28576771020380        2.13596345370071       12.18295364482027
C           37.45672465150691        2.16049023089195       11.45037308230030
H           38.27568324722543        1.55905678247650       11.81390523718992
C           36.78538565465637        5.18648076811333        7.77682500601622
H           37.40278645042317        5.55390764020456        6.97175034075859
C           32.31629840412290        6.05205030466238        9.31604963677227
H           31.53689446314427        6.72707383485593        8.99863674922859
C           32.95460621918484        2.96462876110980       12.94099075031717
H           32.37413520187096        2.61956936043941       13.78251982499887
C           39.65763298591187        4.17110841351020        7.44013961317267
H           39.30870456992342        3.80653117148445        6.47215229018357
H           40.64382990801884        3.75642941026716        7.63091787101515
H           39.74876931283202        5.25483406240896        7.37716993050144
C           40.11760447043180        2.10904033221275        9.83923694241345
H           39.88253439731542        1.22483661297480       10.42532884505724
H           40.83934134141271        2.70656498797374       10.39886230836465
H           40.59426895177050        1.78819208836877        8.91362466865345
C           35.61122087970773        7.20103965367967        5.75994236679926
H           36.25861582625909        6.45691319967705        5.29979672721914
H           36.22188494210332        8.06860827859162        6.01456075235054
H           34.86241871147097        7.51605115749616        5.03418923549657
C           32.68502650196383        7.81455914190192        6.86577490412034
H           31.65554921801687        7.47813714944687        6.89498195184458
C           32.97129312703875        9.01417063948360        6.35412975032137
H           33.97575099557430        9.39877789668943        6.33391694462265
H           32.20832425281608        9.64908475879599        5.93733636918437
C           29.78121611549038        6.33762401047228       11.03371450767404
H           28.88302921549679        5.78319675140449       10.75974716190359
H           30.00405409519776        7.03487380121970       10.23094500137960
H           29.56757271860183        6.91396241703911       11.93316376580990
C           30.27127429975668        4.30968439785164       13.48819864194232
H           30.75196763426374        3.74297670772545       14.27601677012864
C           29.02345439956546        4.73993188744190       13.71053112669086
H           28.44718584343494        5.29574500374209       12.99572912393647
H           28.53276867162607        4.53604793359007       14.64829123105657
C           34.15332257233251        1.04716856748944       15.01628541437766
H           33.18828116902817        0.61304856125139       14.76014712670721
H           33.98347682012438        1.84019007181095       15.74640397563374
H           34.76137587641725        0.27714147749029       15.48480099888157
C           37.20864691127942        0.64491438827116       14.11949613290262
H           37.31833612013718       -0.36443650509120       13.71914543375465
H           36.98851176613792        0.56720826953687       15.18270317831914
H           38.16284445494795        1.15759929007313       14.01144811957272
O           35.42994302365230        5.76199673529250       11.55542585901390
H           34.70638013483443        6.10079640186555       12.14906444595180
H           36.27843873656955        5.89748269553264       12.04949372020091
C           32.00640821037918       -0.00586290245794        7.53217775862598