78
 energy: -116.058060483822 gnorm: 0.000171559812 xtb: 6.7.1 (edcfbbe)
Fe          34.95017046219927        4.12721226143779       10.38955101700417
N           36.80103864379364        3.76414985413873        9.74934391085959
N           34.63702246337622        5.35004850516711        8.84682115687042
N           33.11035484509534        4.54336594176675       11.09879965153346
N           35.26888407461293        2.92311721726002       11.97169683223879
C           37.73761830025732        2.97631545266199       10.33922300470704
C           38.96608515524663        2.97807253587320        9.57376865745383
C           38.74417548440743        3.78241933227206        8.50119369765886
C           37.38469742690596        4.26321556867258        8.62876246366614
C           35.50016610288060        5.61414165139892        7.83129549312627
C           34.91347135062998        6.52519039407313        6.88050292439123
C           33.66186147699045        6.81845991419229        7.35072686466308
C           33.51188115858891        6.06173491082646        8.58046756281519
C           32.19274313415396        5.38087365967952       10.53825950078855
C           30.98107488590322        5.40664911760533       11.31435708468380
C           31.17602482786912        4.54390504287372       12.36186874929059
C           32.51823160150257        4.02069241351069       12.20465194493005
C           34.37308844820068        2.59122061963123       12.94137105664054
C           34.94913974110178        1.63976646510287       13.86406111616336
C           36.21676048128512        1.40358488757085       13.42871004872036
C           36.39561727313468        2.20963271670585       12.24322708004835
C           37.55962497146047        2.24231654213112       11.49753771393964
H           38.38830715450263        1.64217532087093       11.84139793204873
C           36.78519135575385        5.11290856741759        7.72235021851370
H           37.37207436888640        5.42606378941829        6.87246020444553
C           32.37748893971196        6.09722319514866        9.36777969210451
H           31.56182676255198        6.72228977432386        9.03791491902133
C           33.09238779656391        3.09714076980614       13.05877193903819
H           32.49340212930571        2.73813786784360       13.88132643854669
C           39.66379399370982        4.14641904890002        7.38664542830109
H           39.24627314752493        3.83720583406634        6.42803808795021
H           40.63125356166882        3.66569570222346        7.50971303508890
H           39.81785776971969        5.22503477269001        7.35610493147949
C           40.19408561049403        2.22253885784557        9.95211874385087
H           39.99115552559724        1.15174945702965        9.99318495398540
H           40.54933137175657        2.53661158252180       10.93370496084350
H           40.98944168925129        2.39176380130893        9.23055692059353
C           35.55676189864225        6.97528420913375        5.61564812903374
H           36.11899355258150        6.16206436863024        5.15903736955189
H           36.24679743197622        7.79952533221440        5.80294143108144
H           34.79965524917501        7.31448055518852        4.91147727939189
C           32.64342511513992        7.66871740293524        6.77510049775511
H           31.61964852946861        7.35092809732062        6.93752101275278
C           32.86793042807788        8.78395407339289        6.08773759015881
H           33.85930499028158        9.17388477778374        5.93740162513979
H           32.05917497898930        9.36308634426915        5.67358555573249
C           29.80243062223387        6.27244448956294       11.03505453257600
H           29.15045845060433        5.81522894042713       10.28872595827300
H           30.11832701472070        7.24363073076796       10.65691783203837
H           29.22660561929517        6.42380720536676       11.94594975555951
C           30.28426357338174        4.21029564375577       13.44996986990241
H           30.76326093144160        3.99423701721966       14.39816039669429
C           28.95906888618927        4.14467784091725       13.37072652392811
H           28.43130984108587        4.30186541028767       12.44644701005309
H           28.35521543907864        3.90226540423367       14.22952335601377
C           34.23533381698935        1.07344680389327       15.04331699702988
H           33.32550900160930        0.56084821176651       14.73034729618957
H           33.95420651249989        1.86482102715453       15.73887239391988
H           34.86505931756178        0.36215501850359       15.57215483080065
C           37.26285043408492        0.51137290355397       14.00434596068860
H           37.55942042543535       -0.25005378221422       13.28230754017086
H           36.89626259049885        0.01142149923808       14.89745336734854
H           38.15041523573794        1.08494116507610       14.27258976929334
O           35.68630535278169        5.84838099919552       11.71490476211355
H           34.84584719969601        6.24030912950162       11.97594801365028
H           36.00880262654209        5.34090538087426       12.46757328360165
C           31.86752506510560        0.73662317274854        7.21642493027146
H           31.37234980298530       -0.09978564240613        7.70962381788227
H           32.28858564803903        0.37790988798522        6.27727695175105
H           31.12672351826526        1.49898497650255        6.99699666139518
N           34.00045632691839        0.57570060709234        8.51879925815417
H           34.17799224171651       -0.39162225542210        8.30351201690106
C           32.92696123453336        1.30870279339479        8.08521089019608
C           34.76736186045927        1.38502838248875        9.28370386572746
H           35.67634479279318        1.07864466503131        9.75889618121746
N           34.24505754395067        2.58500382998793        9.36042976989026
C           33.10007658471026        2.55307795524680        8.61984108093909
H           32.48131682809451        3.42076208140359        8.52227869720170
