87
 energy: -127.753457723824 gnorm: 0.305740362171 xtb: 6.7.1 (edcfbbe)
Fe          29.02700000000000       25.21800000000000       13.17400000000000
N           27.61900000000000       25.85300000000000       11.87300000000000
N           30.20200000000000       26.75300000000000       12.63500000000000
N           30.41200000000000       24.64500000000000       14.51400000000000
N           27.79900000000000       23.75700000000000       13.77600000000000
C           26.35400000000000       25.33400000000000       11.73400000000000
C           25.56800000000000       26.21400000000000       10.88000000000000
C           26.35300000000000       27.23800000000000       10.51700000000000
C           27.65800000000000       27.00700000000000       11.10600000000000
C           29.96200000000000       27.66000000000000       11.62500000000000
C           31.15400000000000       28.43700000000000       11.39900000000000
C           32.09100000000000       28.02900000000000       12.26100000000000
C           31.50200000000000       26.98300000000000       13.05500000000000
C           31.65800000000000       25.19100000000000       14.69000000000000
C           32.34100000000000       24.46700000000000       15.76000000000000
C           31.50900000000000       23.49600000000000       16.16600000000000
C           30.29600000000000       23.58100000000000       15.38500000000000
C           28.07800000000000       22.78000000000000       14.71300000000000
C           27.00200000000000       21.81700000000000       14.74900000000000
C           26.06700000000000       22.23200000000000       13.89100000000000
C           26.54900000000000       23.43500000000000       13.26200000000000
C           25.87300000000000       24.17200000000000       12.30300000000000
H           24.89800000000000       23.81100000000000       11.97700000000000
C           28.77200000000000       27.79300000000000       10.93500000000000
H           28.71200000000000       28.58900000000000       10.19200000000000
C           32.17100000000000       26.28600000000000       14.04300000000000
H           33.16700000000000       26.62700000000000       14.32500000000000
C           29.21300000000000       22.74100000000000       15.49200000000000
H           29.25700000000000       21.97300000000000       16.26500000000000
C           24.08599999999999       25.95600000000000       10.52900000000000
H           23.72000000000000       25.86000000000000       11.57300000000000
H           24.22700000000000       24.94000000000000       10.10200000000000
H           23.33400000000000       26.51700000000000        9.93400000000000
C           25.97900000000000       28.41700000000000        9.58700000000000
H           26.79100000000000       28.26500000000000        8.84500000000000
H           26.28300000000000       29.21700000000000       10.29500000000000
H           25.05300000000000       28.71600000000000        9.05100000000000
C           24.71800000000000       21.56300000000000       13.52300000000000
H           23.89300000000000       21.58500000000000       12.78000000000000
H           24.29600000000000       21.74299999999999       14.53500000000000
H           25.20800000000000       20.56600000000000       13.48800000000000
C           26.97400000000000       20.56200000000000       15.64800000000000
H           25.93200000000000       20.38900000000000       15.80500000000000
C           28.04500000000000       19.79600000000000       15.86000000000000
H           29.05300000000000       20.16900000000000       15.62700000000000
H           27.93300000000000       18.78200000000000       16.27100000000000
C           31.72600000000000       22.41600000000000       17.24600000000000
H           31.54900000000000       21.53000000000000       16.60000000000000
H           30.80100000000000       22.63300000000000       17.82100000000000
H           32.56200000000000       22.19300000000000       17.94200000000000
C           33.77800000000000       24.82300000000000       16.18700000000000
H           34.28000000000000       25.29600000000000       15.34300000000000
C           34.21200000000000       24.81500000000000       17.43100000000000
H           33.63600000000000       24.31000000000000       18.22000000000000
H           35.15600000000000       25.31300000000000       17.69600000000000
C           33.53900000000000       28.54900000000000       12.43200000000000
H           34.52000000000000       28.28400000000000       12.88100000000000
H           33.21700000000000       29.53600000000000       12.82700000000000
H           33.65000000000000       28.60000000000000       11.32800000000000
C           31.26800000000000       29.49900000000000       10.27200000000000
H           32.27400000000000       29.12700000000000        9.98200000000000
H           31.38600000000000       30.29500000000000       11.03800000000000
H           30.76300000000000       29.91000000000000        9.37200000000000
C           28.31500000000000       28.56200000000000       17.55200000000000
H           27.87800000000000       28.10200000000000       18.46400000000000
H           27.85100000000000       29.55900000000000       17.39300000000000
H           29.41100000000000       28.67200000000000       17.69400000000000
N           26.78800000000000       27.33500000000000       15.92400000000000
H           25.93500000000000       27.62700000000000       16.35500000000000
C           28.04300000000000       27.68200000000000       16.36800000000000
C           26.89200000000000       26.56700000000000       14.85500000000000
H           26.04900000000000       26.14400000000000       14.31000000000000
N           28.17300000000000       26.41700000000000       14.58400000000000
C           28.92800000000000       27.11000000000000       15.51400000000000
H           30.01000000000000       27.12700000000000       15.47500000000000
C           32.66400000000000       22.78500000000000        9.68700000000000
H           32.32900000000000       22.49200000000000        8.66900000000000
H           33.25800000000000       21.95400000000000       10.12400000000000
H           33.29000000000000       23.70000000000000        9.61100000000000
N           30.52000000000000       22.08200000000000       10.79400000000000
H           30.56100000000000       21.15000000000000       10.43300000000000
C           31.46000000000000       23.06200000000000       10.55300000000000
C           29.57100000000000       22.58100000000000       11.57300000000000
H           28.69700000000000       22.02800000000000       11.91400000000000
N           29.87700000000000       23.83599999999999       11.84800000000000
C           31.06800000000000       24.18000000000000       11.20000000000000
H           31.49900000000000       25.17000000000000       11.27000000000000
87
 energy: -127.868434898175 gnorm: 0.172952384324 xtb: 6.7.1 (edcfbbe)
Fe          29.01798166345223       25.21819324808907       13.17498467878813
N           27.60525234826657       25.85962255547439       11.86545448579323
N           30.19904230318107       26.74273725232996       12.63424424799126
N           30.42170495623022       24.63857102437168       14.51424146854878
N           27.79797691900825       23.75347676488803       13.77701626109331
C           26.34249947918191       25.34592443523809       11.72233991865669
C           25.54980197016364       26.21349409233319       10.87149066134405
C           26.34340698152331       27.24145089128648       10.49905775056526
C           27.63955330976994       27.00982751499539       11.10255341157715
C           29.95803563240307       27.64554483844120       11.62616704934870
C           31.13448832759221       28.41872703694681       11.37907753020474
C           32.09055096983729       28.00782228884384       12.26842116706585
C           31.49373642846777       26.97546054502111       13.05291486725286
C           31.66322941140323       25.18346252312777       14.70445992136618
C           32.36870917923491       24.47242595557922       15.75561022193603
C           31.52565399963392       23.49094151934565       16.17900479833597
C           30.31474804664305       23.58798470137471       15.39628713080245
C           28.07950260796789       22.78127349598635       14.70889221848242
C           27.00982855412605       21.81890229037825       14.76031625743580
C           26.06327250950301       22.24600382087360       13.86412252016817
C           26.55715501634431       23.43934576567659       13.25734173717698
C           25.87244268644591       24.17448947122232       12.29861162797123
H           24.90136343389256       23.81197477615144       11.98497703027928
C           28.76544023978666       27.79529743998761       10.93247025636250
H           28.71424711508170       28.58988368928731       10.19748437992689
C           32.17013194463585       26.28681060582143       14.04568304446903
H           33.16051926705727       26.62987577122314       14.31642016640686
C           29.21926517450110       22.74354018914134       15.49972840911569
H           29.25654845542000       21.98303265030243       16.26746969186192
C           24.09769937973723       25.92074138307750       10.55673826713242
H           23.67981859598902       25.83761222718703       11.56676345333312
H           24.18397485473953       24.92646012802212       10.10306552313410
H           23.40874393810619       26.52961772770366        9.94846673248215
C           26.02831474388260       28.42374330648871        9.60059505297269
H           26.79461520182414       28.30499876216707        8.82630035005469
H           26.28888239842092       29.25538315697067       10.26521880680836
H           25.07148432466754       28.65451805026298        9.10107606914605
C           24.74345408378305       21.53736439433330       13.56759260626491
H           23.96835984171787       21.63831340656064       12.78604744753439
H           24.25791998568742       21.69905963465284       14.53928911373949
H           25.15424227399073       20.52235050677799       13.50186213460336
C           26.97220672372903       20.57338819623811       15.59986151318898
H           25.93614639204933       20.36561740576823       15.81333981242939
C           28.03216342822358       19.80644759699743       15.85317875060875
H           29.03515565062012       20.14529218156558       15.61259881209017
H           27.93077994823736       18.81141813876618       16.28455933026543
C           31.68716337253439       22.40945690802471       17.22910940007650
H           31.54112924724949       21.50235724659122       16.63004412543510
H           30.79983302948650       22.59447920730609       17.84651386252347
H           32.55229369249327       22.24399600228887       17.88994549892047
C           33.74691029920322       24.84674121240382       16.18124339000168
H           34.28866884217513       25.29298142710086       15.35365855310081
C           34.20441096772407       24.81302644257806       17.42594293234824
H           33.64058537299867       24.32745359483150       18.21546826212273
H           35.14862793056754       25.28539948674808       17.69083280231191
C           33.50293239356980       28.57847546794258       12.39573003631891
H           34.43545032815953       28.23938356136468       12.88525067367365
H           33.25598803824639       29.56589639290661       12.80827851660684
H           33.70415173716768       28.65030133009622       11.31954770578456
C           31.31441033903128       29.49923935842116       10.31170923126558
H           32.30173468279487       29.18110413072323        9.95298371607470
H           31.41949984756850       30.34324655239954       11.00585575512395
H           30.73706797753607       29.84115209089052        9.43275211394645
C           28.30914948369494       28.56090176226175       17.55267846400731
H           27.88213691653561       28.11195170896000       18.45811035939009
H           27.85816704711402       29.54957520901259       17.40110302995722
H           29.39054114300153       28.67167130067165       17.69076677186560
N           26.78956708222198       27.34406512998331       15.93760983272044
H           25.92935653144218       27.63426222284484       16.36704053337737
C           28.04325922834073       27.69138998601354       16.37311404158521
C           26.90622865783361       26.56857168803736       14.85658386237411
H           26.06982012284472       26.14889222926089       14.31511646205962
N           28.18246686251875       26.40818787841488       14.57571349263100
C           28.91562897903525       27.10537830193994       15.50740921682598
H           29.99127514501377       27.12415125464926       15.47308281658046
C           32.66176827056172       22.78397393101361        9.68607770323013
H           32.33785217127457       22.49401035035384        8.67865335513981
H           33.25443436114855       21.96600976048305       10.11475736434586
H           33.28140963596926       23.68418498598553        9.61325488851650
N           30.52924537887275       22.08206737534272       10.78755295494578
H           30.56448266610365       21.14419667568177       10.42798761602710
C           31.46867269508053       23.05292783786723       10.54293084984206
C           29.57934034178120       22.59859018496324       11.57546715746115
H           28.71215230589277       22.04820086700525       11.91385739383169
N           29.87023566113179       23.85462178181640       11.85003872920359
C           31.05615832769922       24.16545146985022       11.20368177977478
H           31.48874219021981       25.14865233769082       11.27114806255570
87
 energy: -127.934149358849 gnorm: 0.066258866471 xtb: 6.7.1 (edcfbbe)
Fe          29.01181123307287       25.22039361735802       13.17828856042979
N           27.59161396039530       25.86759403522548       11.86100202499100
N           30.20182191357330       26.73490865442056       12.62742982125182
N           30.43357947388116       24.63233292733446       14.51719310145138
N           27.79846920556506       23.74840688396477       13.77591103543827
C           26.33179398165328       25.35836842241524       11.71237885722160
C           25.53311718073502       26.21234781398796       10.86504542471715
C           26.33679642998888       27.24570232094421       10.48339653498007
C           27.62326298339000       27.00990470989490       11.09985374107369
C           29.96127386186781       27.63389596433904       11.61821637537780
C           31.11964640481003       28.41055255783214       11.35727457951927
C           32.09358735158082       27.99663978940349       12.27260374896602
C           31.49171058775333       26.97140595612360       13.04395645168694
C           31.67118940499086       25.17277765304784       14.71560958839417
C           32.38806775804562       24.47813017099906       15.75620917957475
C           31.52918790846285       23.48553401515996       16.19629921781672
C           30.33213154069237       23.59427490014824       15.40549478293118
C           28.08282584553620       22.77996304328532       14.70089437213737
C           27.02022595475957       21.81801169766164       14.76704548130454
C           26.05717882898631       22.25532877894569       13.84152662526055
C           26.56295338381117       23.43629191208731       13.25450204799541
C           25.87250043334629       24.17750799350750       12.29457913310044
H           24.90386176221602       23.81326673879613       11.99331470754520
C           28.75921418814913       27.79584318517124       10.92830187451248
H           28.71430537733047       28.59186360496481       10.20313713016767
C           32.17067840683561       26.28522227550332       14.04562175068317
H           33.15564017022619       26.63243000986327       14.30794585879422
C           29.22407555383296       22.74692898783404       15.50450571342183
H           29.25300591850004       21.99228209768438       16.26990113978531
C           24.10971324329184       25.88885036213528       10.58081404140407
H           23.63781219027209       25.81396405063263       11.55918036862460
H           24.13761438107334       24.91054484924019       10.10386619728756
H           23.48903430498843       26.54996269030955        9.96026452691762
C           26.07447640276294       28.42656159819779        9.61391643503761
H           26.80036977136221       28.34772353376457        8.80692519085652
H           26.29630482593181       29.29170356244006       10.23585999549366
H           25.08636049955379       28.58498432528281        9.15467283856269
C           24.77322565072162       21.51571083173102       13.61297404178849
H           24.05725958573540       21.70315592762555       12.79021841356276
H           24.22517168867775       21.65628733916232       14.54586864678813
H           25.10707421783806       20.48364778473541       13.51784619471718
C           26.97099701984680       20.60078229388836       15.55730246850953
H           25.94750482328267       20.33513122342078       15.81446009597784
C           28.01707213856846       19.82180778881212       15.84826993220489
H           29.02105367465138       20.12166165714285       15.59331499646293
H           27.91913524488868       18.84407214086846       16.29873406732327
C           31.65211344415005       22.40459273273564       17.21324964009954
H           31.53220387058635       21.47403937945963       16.65988913895653
H           30.79844611007536       22.55458420236585       17.87306763810102
H           32.55049700877395       22.30302106903499       17.83492138143834
C           33.71483170241437       24.85670302320707       16.17330915111604
H           34.29701958968240       25.30081406017235       15.37290709147018
C           34.19747770256003       24.80370178543352       17.41695955551443
H           33.63955208919667       24.34602204765522       18.21469980567084
H           35.14205001627853       25.25623086613614       17.67914811646411
C           33.46219152921619       28.60653387542159       12.36034042254513
H           34.33616268369484       28.18111223020408       12.89239099249841
H           33.28754717810587       29.59503366850827       12.78881173804993
H           33.74781829052942       28.69666932890896       11.31262942561836
C           31.35828402411877       29.49656693045129       10.35396778088023
H           32.32719872714862       29.23090656305112        9.93131371528254
H           31.45240550004179       30.38631676293432       10.97762649973243
H           30.70136825093314       29.75831261126218        9.50183717381903
C           28.30540703924455       28.56030793714696       17.55264363781727
H           27.88310935684844       28.11824679189848       18.45334242397004
H           27.86187467290297       29.54409169116006       17.40758100531004
H           29.37730446528183       28.67234225570270       17.68923122242826
N           26.79141518236038       27.35105646159066       15.94741105235077
H           25.92511274442980       27.63826553946823       16.37371667174229
C           28.04516004432659       27.69866360641093       16.37584642519503
C           26.91839067849986       26.56952742315773       14.85935579611208
H           26.08735895507309       26.15316933026507       14.32044247390140
N           28.19038478005393       26.40038045859843       14.57060702480169
C           28.90537369985652       27.10021579028409       15.50116244401578
H           29.97702557269357       27.12384716238179       15.47427032008130
C           32.65997596070016       22.78446957410119        9.68601032522928
H           32.34494220345130       22.49501679777937        8.68443059954135
H           33.25322445176838       21.97412518043651       10.10802829139019
H           33.27580066235460       23.67517334656167        9.61549284884379
N           30.53380042889864       22.08375731177471       10.78450778442087
H           30.56232621870254       21.14127954686461       10.42786381918016
C           31.47447299315870       23.04671522010503       10.53517873550248
C           29.58497981924569       22.61560915254615       11.57690104760630
H           28.72460163606839       22.06665997706039       11.91408435472271
N           29.86896334337995       23.87117103066772       11.85115339504732
C           31.04420041456492       24.15475748576538       11.20525355919815
H           31.48492029119286       25.13032711403639       11.26848816228515
87
 energy: -127.959603702157 gnorm: 0.048439105384 xtb: 6.7.1 (edcfbbe)
Fe          29.01127916032812       25.22155659871219       13.18174557888311
N           27.58728982041601       25.86987174941777       11.86410889686324
N           30.20800697657046       26.72626369955793       12.61341746302084
N           30.44039281233451       24.62875871635607       14.51421898271321
N           27.80296406489719       23.74545597720564       13.77104540457405
C           26.32959461470039       25.35999965751975       11.71248367505636
C           25.53206071234215       26.20497732286534       10.86524348589933
C           26.34249962561663       27.24198875809904       10.47991207494765
C           27.62097712699119       27.00491912573789       11.10153802705182
C           29.96545396710562       27.62681562893452       11.60351022880201
C           31.11513198655074       28.41106673841410       11.34700113078446
C           32.09221514569489       27.99606688205848       12.26807426119450
C           31.49408510244736       26.96680897416183       13.03204876711493
C           31.67640429998687       25.16615587552509       14.71173698615015
C           32.38619160320781       24.47771835128972       15.75450367854817
C           31.51482722674988       23.48208728537609       16.20205311564150
C           30.33515558570467       23.59918625656999       15.40760455749117
C           28.09124576909737       22.78138746601228       14.69512906100160
C           27.03275162519889       21.82147721788054       14.76939667615000
C           26.05610803954932       22.25890563590748       13.84317414095379
C           26.56443836060671       23.43050005398115       13.25325696085775
C           25.87371777333745       24.17883727381017       12.29437858820486
H           24.90230254062435       23.81599013950711       12.00288710364689
C           28.75590335417436       27.79206410929613       10.92509041674001
H           28.70937484944603       28.59488825511866       10.20837494918548
C           32.17075526169253       26.28057141457119       14.03972952998650
H           33.15384323668659       26.63371702986139       14.29875288621239
C           29.22508117825315       22.75326501127309       15.50666998299640
H           29.24606438014370       22.00554812402245       16.27899288487136
C           24.11394273179233       25.87207232659612       10.59016945647404
H           23.59224681566799       25.79253396088178       11.54691592169014
H           24.08681078354218       24.89588975539129       10.10041877309595
H           23.55948819175312       26.58165755428764        9.96146487731834
C           26.10074398285711       28.42637886848507        9.62066505631693
H           26.80435150149194       28.39126819079234        8.78610923745878
H           26.30317749942859       29.32532002577590       10.20651248243228
H           25.08897526659285       28.51845434862501        9.20010426531748
C           24.79182255113140       21.50712510524440       13.64011088863080
H           24.13633388069838       21.76798400812384       12.78812009113757
H           24.19453403357842       21.61557428097063       14.55090898080168
H           25.06077067998763       20.45249264210277       13.53311648663567
C           26.97100915961200       20.60969669760108       15.53285867050937
H           25.96105893385118       20.30419073891288       15.80138593085226
C           28.00819428589019       19.82441369570992       15.84135539987346
H           29.01519714608719       20.09176323419972       15.55895393237465
H           27.89910784651903       18.87053322808774       16.33330783586970
C           31.63342802347612       22.40087894604175       17.20845130823930
H           31.52559256409310       21.44352587681342       16.69361680480661
H           30.79972417859889       22.51016503128474       17.90747351836863
H           32.56475674509604       22.36220867396288       17.78751441507234
C           33.70039299837356       24.86521313755240       16.17596668198964
H           34.30702827804138       25.31690507482851       15.39694192344503
C           34.19049621567553       24.79926583612454       17.41741107560548
H           33.62775527681443       24.36247490896755       18.22327473588160
H           35.15315723802987       25.21466069868226       17.66881120730788
C           33.43541722882433       28.62169602740973       12.34190575687806
H           34.24539037672431       28.12068765574265       12.90769463171111
H           33.31689878391418       29.62153126651236       12.77018327992349
H           33.79031619361128       28.73940522268328       11.31253701835342
C           31.37775729905670       29.49736041085831       10.37635688936450
H           32.34342749377766       29.28373903894430        9.90743033271288
H           31.48188922480048       30.42470306443874       10.94777125473274
H           30.65759297962349       29.68698658974780        9.55884794986195
C           28.30289387477120       28.56253530105464       17.55380799854004
H           27.87969975330629       28.12095872310257       18.45414997021083
H           27.86051179728764       29.54727101402052       17.41341304903327
H           29.37362878813800       28.67571047588623       17.69137657979869
N           26.79259091582951       27.35471000694981       15.95074690064719
H           25.92425379098103       27.63978079830843       16.37602522215672
C           28.04675986717723       27.70324250774142       16.37614437115784
C           26.92330853492996       26.57051960128360       14.86339749931931
H           26.09588202896492       26.15410703787970       14.32378379934114
N           28.19390102940491       26.39839469610849       14.57218522065815
C           28.90341119532424       27.10021601886064       15.50074818864787
H           29.97373852989481       27.12689269997806       15.47936601839240
C           32.66029175960193       22.78331806892402        9.68444729120414
H           32.35147493275800       22.49355892094564        8.68105831482553
H           33.25740009444002       21.97500650414988       10.10436797270917
H           33.27499645608232       23.67452115937575        9.61714506744515
N           30.53100974296221       22.08606060266120       10.78489840101328
H           30.55425620839006       21.14135662455158       10.43242116471163
C           31.47498981295036       23.04419036219501       10.53126715372052
C           29.58549087917861       22.62707637883846       11.57649040091563
H           28.72796661173033       22.08223002764732       11.91818331457634
N           29.87138939058959       23.88292482422569       11.84504539132958
C           31.04357802908011       24.15303036194538       11.20077992986119
H           31.49467338675865       25.12178183193932       11.26000421319711
87
 energy: -127.968809844242 gnorm: 0.037814709453 xtb: 6.7.1 (edcfbbe)
Fe          29.01391005471260       25.22091259396454       13.18211258485510
N           27.58910394991590       25.86622799918609       11.87038574243523
N           30.21771479034949       26.71761896210469       12.59462079473128
N           30.44212442197452       24.62657090272524       14.50715464598479
N           27.80724928496783       23.74080177543984       13.76445262323759
C           26.33095687677539       25.35547733761273       11.71772785870581
C           25.53650926009069       26.19443720652191       10.86723168646590
C           26.35260856236474       27.23359531906951       10.48035449971212
C           27.62531654451147       26.99650120775098       11.10513505379189
C           29.97115028551972       27.62349788059556       11.58656502536969
C           31.11706508574991       28.41802133139237       11.34111901372616
C           32.09104343838061       28.00248180419334       12.25978644484722
C           31.50062421985326       26.96095808815616       13.01667702874050
C           31.67847627603922       25.16309185083821       14.70458989558448
C           32.37653508707871       24.47968817029686       15.75772095237631
C           31.49719762673070       23.48325331104059       16.20642884598233
C           30.33065678811758       23.60404039558344       15.40865892111502
C           28.09920436034615       22.77987392934082       14.69032542435623
C           27.04405122974648       21.82001995540391       14.76772711763395
C           26.05637787856769       22.25531883572811       13.85388224304649
C           26.56221268284429       23.42327564342926       13.25477304787033
C           25.87297059895081       24.17825281336910       12.29933838139792
H           24.89657208918229       23.82148492438593       12.01604918555837
C           28.75561754028028       27.78675350610273       10.92198391652849
H           28.69985352732930       28.59717333630389       10.21364741807017
C           32.17256949206916       26.27355297253233       14.02870931921733
H           33.15447041757618       26.63146750823125       14.28739039844812
C           29.22271631411726       22.75833838025626       15.50969993551331
H           29.23663254108467       22.01946559956325       16.29187468380724
C           24.11564678671787       25.87247373753670       10.58446094840557
H           23.56005771912532       25.79240161124847       11.52419823993584