87
 energy: -124.476805107241 gnorm: 0.290098883156 xtb: 6.7.1 (edcfbbe)
Fe         -20.32400000000000       21.76400000000000      -51.01500000000000
N          -21.19100000000000       22.18400000000000      -52.81500000000000
N          -19.43100000000000       23.59900000000000      -51.10800000000000
N          -19.43300000000000       21.28600000000000      -49.27300000000000
N          -21.23100000000000       19.98600000000000      -50.95600000000000
C          -22.16100000000000       21.42700000000000      -53.44000000000000
C          -22.52200000000000       22.07999999999999      -54.67900000000000
C          -21.81000000000000       23.22100000000000      -54.73499999999999
C          -20.97900000000000       23.31400000000000      -53.56400000000000
C          -19.37200000000000       24.47700000000000      -52.15600000000000
C          -18.52700000000000       25.58600000000000      -51.83000000000000
C          -18.05600000000000       25.35200000000000      -50.42899999999999
C          -18.64800000000000       24.09900000000000      -50.08500000000000
C          -18.72000000000000       22.17700000000000      -48.55400000000000
C          -18.31400000000000       21.50800000000000      -47.32299999999999
C          -18.81900000000000       20.25600000000000      -47.32399999999999
C          -19.51200000000000       20.11400000000000      -48.57200000000000
C          -21.07100000000000       18.99299999999999      -50.02500000000000
C          -21.97000000000000       17.93200000000000      -50.34999999999999
C          -22.66600000000000       18.27100000000000      -51.41499999999999
C          -22.20499999999999       19.56000000000000      -51.83000000000000
C          -22.66900000000000       20.24700000000000      -52.94000000000000
H          -23.51700000000000       19.81300000000000      -53.46900000000000
C          -20.07800000000000       24.33100000000000      -53.31500000000000
H          -19.91900000000000       25.07000000000000      -54.10000000000000
C          -18.42700000000000       23.48400000000000      -48.88700000000000
H          -17.96900000000000       24.09200000000000      -48.10699999999999
C          -20.17700000000000       19.01300000000000      -48.97099999999999
H          -20.00000000000000       18.08300000000000      -48.43100000000000
C          -23.55000000000000       21.56100000000000      -55.68899999999999
H          -24.38500000000000       21.44200000000000      -54.96500000000000
H          -23.07300000000000       20.57100000000000      -55.85500000000000
H          -23.95600000000000       21.95200000000000      -56.64599999999999
C          -21.84300000000000       24.30000000000000      -55.82900000000000
H          -20.74800000000000       24.30100000000000      -56.01600000000000
H          -22.09700000000000       25.15700000000000      -55.17000000000000
H          -22.37400000000000       24.39800000000000      -56.80000000000000
C          -23.76600000000000       17.45799999999999      -52.15100000000000
H          -23.08600000000000       16.58000000000000      -52.18800000000000
H          -24.40400000000000       17.45799999999999      -53.06000000000000
H          -24.40000000000000       17.38400000000000      -51.24199999999999
C          -22.04600000000000       16.59700000000000      -49.61099999999999
H          -22.81000000000000       16.44300000000000      -48.83600000000000
C          -21.74200000000000       15.51600000000000      -50.38300000000000
H          -20.98700000000000       15.59300000000000      -51.17899999999999
H          -22.24800000000000       14.55300000000000      -50.21900000000000
C          -18.68800000000000       19.13700000000000      -46.26800000000000
H          -18.27500000000000       18.36000000000000      -46.94600000000000
H          -19.77500000000000       18.95499999999999      -46.13000000000000
H          -18.16600000000000       19.07500000000000      -45.28899999999999
C          -17.46400000000000       22.20700000000000      -46.24700000000000
H          -17.67200000000000       23.27100000000000      -46.23400000000000
C          -16.40400000000000       21.55800000000000      -45.68900000000000
H          -16.31000000000000       20.46500000000000      -45.77499999999999
H          -15.62900000000000       22.11900000000000      -45.14599999999999
C          -17.10700000000000       26.24300000000000      -49.58500000000000
H          -16.40700000000000       26.34300000000000      -50.44199999999999
H          -16.52300000000000       26.25100000000000      -48.63999999999999
H          -17.81800000000000       27.09700000000000      -49.59899999999999
C          -18.17100000000000       26.79400000000000      -52.70000000000000
H          -17.08500000000000       26.67400000000000      -52.50100000000000
H          -18.58599999999999       27.54700000000000      -51.99600000000000
H          -18.30900000000000       27.13700000000000      -53.74799999999999
C          -24.71300000000000       22.57200000000000      -47.64400000000000
H          -25.69300000000000       22.75800000000000      -48.13300000000000
H          -24.56800000000000       23.31700000000000      -46.83300000000000
H          -24.71100000000000       21.54500000000000      -47.22100000000000
N          -23.39200000000000       23.87400000000000      -49.34799999999999
H          -23.93200000000000       24.71000000000000      -49.24900000000000
C          -23.61700000000000       22.70500000000000      -48.65400000000000
C          -22.35600000000000       23.70100000000000      -50.15400000000000
H          -21.99400000000000       24.44800000000000      -50.85900000000000
N          -21.85600000000000       22.49000000000000      -49.95200000000000
C          -22.64700000000000       21.84200000000000      -49.03700000000000
H          -22.44400000000000       20.82000000000000      -48.74200000000000
C          -16.32700000000000       22.40400000000000      -51.74499999999999
H          -15.34600000000000       22.44900000000000      -51.22599999999999
H          -16.95100000000000       23.25600000000000      -51.39899999999999
H          -16.15400000000000       22.48800000000000      -52.83899999999999
C          -17.01200000000000       21.11400000000000      -51.43600000000000
H          -17.16600000000000       21.05300000000000      -50.33800000000000
H          -16.34500000000000       20.28100000000000      -51.74199999999999
S          -18.58900000000000       20.94400000000000      -52.26500000000000
C          -18.65500000000000       19.13300000000000      -52.33300000000000
H          -18.62700000000000       18.69000000000000      -51.31500000000000
H          -17.78700000000000       18.73900000000000      -52.90299999999999
H          -19.59300000000000       18.80200000000000      -52.82599999999999
87
 energy: -124.586870564476 gnorm: 0.159624004376 xtb: 6.7.1 (edcfbbe)
Fe         -20.31605489296151       21.75332872220774      -51.02417627872244
N          -21.20544233724872       22.19608632482415      -52.80551469391202
N          -19.43278701635693       23.58165918698678      -51.09674594187931
N          -19.43493643210938       21.29388532437019      -49.27215343539265
N          -21.22728706091456       19.99593057068969      -50.95819670883852
C          -22.15669760297104       21.44343744259737      -53.44367216277468
C          -22.53197161675504       22.09207567808808      -54.68756643134384
C          -21.81695614023529       23.22773910023984      -54.75486711459386
C          -20.97936995047377       23.30214134978102      -53.57615290841123
C          -19.37005046509475       24.46547580226236      -52.13455660564235
C          -18.52364517399600       25.56839008570651      -51.80321255168698
C          -18.07571341831066       25.33804204702389      -50.45908854590078
C          -18.66444079518375       24.09459459806931      -50.08827923974431
C          -18.72855874465622       22.17817817693346      -48.53091272545142
C          -18.30657321100837       21.52991920148756      -47.29347844439380
C          -18.79214710458114       20.26613877200963      -47.31123348811624
C          -19.49944654921466       20.12720520148909      -48.56573598985175
C          -21.06609419856302       18.99581660356267      -50.04018572545619
C          -21.96476808099203       17.92435902666573      -50.34878648310847
C          -22.67219134469512       18.30131324421481      -51.43860364121666
C          -22.20054463326185       19.58817693203352      -51.82666691520064
C          -22.66493985820298       20.26176788999771      -52.94326478241816
H          -23.50178306254213       19.81176047466855      -53.47143895069258
C          -20.07932588787270       24.32273274831637      -53.31407743179457
H          -19.92542540858640       25.06975452326610      -54.08743347902774
C          -18.43020902967069       23.48150580632575      -48.87353856425263
H          -17.95262484028563       24.08819306994022      -48.11362110447351
C          -20.17821638370598       19.00906696044508      -48.97583511219200
H          -20.02249320562806       18.08560419841068      -48.42661622126398
C          -23.55091956725593       21.52849924447547      -55.65335340337280
H          -24.41444259885478       21.41152271750617      -54.98770105116822
H          -23.10919912203444       20.54879778023165      -55.87228261922348
H          -23.90312260717899       21.97759586517600      -56.59771050315673
C          -21.81064656867635       24.31758717218633      -55.80388527866396
H          -20.74140799967724       24.34495138083136      -56.04187398906909
H          -22.08441842562684       25.19017718275447      -55.19866770431735
H          -22.37712187900743       24.34743048683616      -56.74885060356679
C          -23.74929872657933       17.47068729507453      -52.11234242601444
H          -23.13802566825501       16.55151439648000      -52.18449699636781
H          -24.35109746802254       17.41022751922638      -53.03149198856348
H          -24.42980663235220       17.34678579382208      -51.25829422018582
C          -22.09208900305709       16.59516032130486      -49.66690142331435
H          -22.79754476562240       16.45961659917422      -48.84165585168343
C          -21.74666729526261       15.51474872443193      -50.38025209213664
H          -21.01123242368547       15.59061610455177      -51.17789502280853
H          -22.20787036955732       14.54732851371538      -50.19768359663995
C          -18.70910195502656       19.12637837920269      -46.30506389675775
H          -18.28282227229000       18.32627999034137      -46.92339272329190
H          -19.77011800666012       18.91909296455655      -46.11514484945862
H          -18.17755942006994       19.12948013435962      -45.33892960747823
C          -17.44372858140467       22.19615110586450      -46.27914704129286
H          -17.65288686374210       23.25841720582380      -46.21866471851990
C          -16.41687969817251       21.56780025628018      -45.69763456416478
H          -16.30512637110412       20.49024785904496      -45.78480213494440
H          -15.65678478197511       22.10909022714097      -45.13616464528271
C          -17.13542596830184       26.25739110211164      -49.65518620753583
H          -16.37612916379359       26.39899461682470      -50.43521080623538
H          -16.59199313197882       26.17942392937748      -48.68756320697889
H          -17.78476663679345       27.14191386052411      -49.59627163626090
C          -18.14786920303795       26.78737944800296      -52.63928155203910
H          -17.05939877754027       26.73030522793142      -52.50981008293488
H          -18.55776841913028       27.58758213337726      -52.00782494404579
H          -18.33851049904118       27.06048454360091      -53.69726916739432
C          -24.71410013436537       22.57421658876513      -47.64562544168796
H          -25.68623229373576       22.75603038850006      -48.12257722070338
H          -24.57541495927263       23.30510081055089      -46.83828233911474
H          -24.71060807786622       21.56250742563954      -47.22564402538825
N          -23.40413599939149       23.87261032115898      -49.34363424501955
H          -23.94416028419941       24.71342487457222      -49.24678905997962
C          -23.61787363466208       22.71019780978430      -48.64476482680678
C          -22.34927092574074       23.69345785349193      -50.14979542522980
H          -21.98913491355749       24.43379346665673      -50.84681848532296
N          -21.85497827008249       22.48454673334049      -49.97612104880684
C          -22.63776424992503       21.85374388985478      -49.04428889107170
H          -22.44128288552774       20.83713397605619      -48.74895287580615
C          -16.32210189204011       22.40952397790252      -51.74930291294599
H          -15.35454871066001       22.45431646789526      -51.23414807319644
H          -16.93557837243738       23.24975278208460      -51.41072548697227
H          -16.15410366337921       22.49458995731227      -52.82934259129746
C          -17.00167816399615       21.10517049038172      -51.42468861791917
H          -17.16681418512833       21.04329050537625      -50.34063787528466
H          -16.35299329523909       20.27597459714069      -51.73851377734336
S          -18.58410911428799       20.93346971033854      -52.28183121155232
C          -18.65171151547230       19.12010279097506      -52.33075114711068
H          -18.62910731070281       18.69709502392173      -51.32012505832031
H          -17.79492837689157       18.74345674556859      -52.90217148090697
H          -19.58189345459165       18.81355366797365      -52.82115564959006
87
 energy: -124.658844614590 gnorm: 0.079241549381 xtb: 6.7.1 (edcfbbe)
Fe         -20.31575817268375       21.74733749394041      -51.03018562388209
N          -21.21510930104253       22.20389512965236      -52.79855904901590
N          -19.43136304751774       23.56578673471615      -51.08547115358470
N          -19.43814634175521       21.30149283940570      -49.27259662784282
N          -21.22708407413188       20.00216445790610      -50.96378855270768
C          -22.15330065485736       21.45977347810141      -53.44327177379674
C          -22.54326015997889       22.10217430487085      -54.69636953060483
C          -21.82201640087054       23.23434283649168      -54.77744624851892
C          -20.98009400140278       23.28891979716033      -53.58544479592596
C          -19.36779175043546       24.45366618615828      -52.11571737282186
C          -18.51781557387560       25.55573910259794      -51.77342149487403
C          -18.09286480084101       25.33270376393668      -50.49215305038042
C          -18.67702353775164       24.09046788452943      -50.09054750557228
C          -18.73925597565672       22.17928041514929      -48.50773816625726
C          -18.30075105522413       21.54827774708242      -47.26496977842684
C          -18.76656760491497       20.26861871887799      -47.30263996900791
C          -19.48906017417868       20.14005292109976      -48.56292928845257
C          -21.06394112897472       18.99766515065966      -50.05814291164631
C          -21.95762131901922       17.90835610132439      -50.34897339813442
C          -22.68128256717735       18.30703544688347      -51.46421112822185
C          -22.20270208180447       19.60512291157208      -51.82116948882935
C          -22.66382690793131       20.27273184517401      -52.94705105842169
H          -23.48617890203560       19.80736306474693      -53.47561841501249
C          -20.08250805785841       24.31353379942345      -53.31091016802273
H          -19.93256136219837       25.06846244972783      -54.07139967072705
C          -18.43097954028506       23.47921682373384      -48.86009744913456
H          -17.93312408476037       24.08554088288178      -48.12162339783958
C          -20.18227787332721       19.00760993333598      -48.98224874165239
H          -20.04861781911134       18.09209311948247      -48.42254432870666
C          -23.55107442921368       21.49405931658051      -55.61352404516293
H          -24.44539314385470       21.37745135954799      -55.01072366295193
H          -23.14611354929258       20.52515941403285      -55.88836037857559
H          -23.84271468292695       22.00873986160948      -56.54327716589871
C          -21.77664220821471       24.33387967290908      -55.77683686908900
H          -20.73474224556910       24.39143705327681      -56.07012280224345
H          -22.07087133682637       25.22487733997129      -55.22970588436662
H          -22.38232096094738       24.28623656141816      -56.69304256348740
C          -23.72404916907123       17.41053256224776      -52.05878890237772
H          -23.17491623122806       16.46907751327253      -52.18624616087023
H          -24.28179628783205       17.57274810605116      -53.00513951146036
H          -24.46073359245599       17.29969453243929      -51.26406064677298
C          -22.13317092366856       16.59503352214961      -49.72340963528844
H          -22.78575937495341       16.48566487982922      -48.85378462958823
C          -21.74800579018255       15.51224726535235      -50.37522860665581
H          -21.03974105913921       15.58571994168162      -51.18371101945563
H          -22.16007945780988       14.53926333866055      -50.16797807877871
C          -18.73004342213992       19.11738700267293      -46.34535873720797
H          -18.29093026507389       18.29253463403873      -46.90088181733175
H          -19.76498928617245       18.88676335767476      -46.10255378558623
H          -18.18624393412327       19.19559095878659      -45.39329578270354
C          -17.43484421657122       22.18455265840094      -46.31157593334509
H          -17.62630052976232       23.24988949672252      -46.20592641531056
C          -16.43257728771297       21.57846297464781      -45.70221973908542
H          -16.29410276951979       20.51519751751042      -45.79654586121693
H          -15.68687062930717       22.10128097929967      -45.12408866728523
C          -17.16829707463228       26.27307557727402      -49.73084210884025
H          -16.35015616672038       26.45178421273743      -50.42933508380663
H          -16.67340853449337       26.09232136102146      -48.74239609388690
H          -17.75462629138758       27.18445102596738      -49.59652769402192
C          -18.12528949903787       26.77867817563769      -52.57481323938031
H          -17.03714401343322       26.78406729028591      -52.51875206609426
H          -18.53068597450526       27.62479576820940      -52.01866499536362
H          -18.37566712308685       26.96614913183728      -53.64243724969189
C          -24.71422062961890       22.57542387768390      -47.64667426126455
H          -25.67861939035721       22.75453479443231      -48.11476867069621
H          -24.58240687543792       23.29467581997142      -46.84226300407582
H          -24.70967811399382       21.57680390670349      -47.22979804327176
N          -23.41659964575041       23.87226034824523      -49.33958587704380
H          -23.95486820381959       24.71795955192708      -49.24610211614536
C          -23.61796443022073       22.71500312015038      -48.63608399579824
C          -22.34563332340282       23.68594510977152      -50.14750606553376
H          -21.98563039250941       24.42067011001216      -50.83600321606206
N          -21.85490219190735       22.48328836433921      -49.99593558517559
C          -22.63058757686208       21.86515366036216      -49.05442405250260
H          -22.44024776104141       20.85441750952083      -48.75431049713070
C          -16.31491616091422       22.41612174954727      -51.75238488907645
H          -15.35937905509382       22.46009074508637      -51.24096012378442
H          -16.92255264510544       23.24324916331658      -51.42039495222129
H          -16.15475382397518       22.49821400869777      -52.82048744273720
C          -16.98793275876402       21.09695055742709      -51.41253968153327
H          -17.16906137168999       21.03523315579557      -50.34392482529430
H          -16.35921666653319       20.27115868150068      -51.73535322749903
S          -18.58219341035994       20.92457534549544      -52.29664747097598
C          -18.64820951236972       19.10585638707775      -52.32920367883950
H          -18.63058233435690       18.70537072551787      -51.32429383669511
H          -17.80148057732292       18.74581039907417      -52.90136873332434
H          -19.57217741612443       18.82400320396581      -52.81658978211433
87
 energy: -124.686335526217 gnorm: 0.056671983199 xtb: 6.7.1 (edcfbbe)
Fe         -20.31761992315161       21.75092401438812      -51.02982831332751
N          -21.21704828017106       22.20776712791785      -52.78989029529730
N          -19.42965170554641       23.56196814261880      -51.07684196274835
N          -19.44698588107074       21.31054426793953      -49.27035367532237
N          -21.22894152483739       20.00536513023767      -50.97192374015985
C          -22.15670901110152       21.46861578928751      -53.43113524778438
C          -22.54466149714229       22.10408481497345      -54.68526738403178
C          -21.81313519510266       23.23668917470784      -54.77310386880580
C          -20.97732284359019       23.28669676964127      -53.57731268557269
C          -19.36994623814212       24.44479234440964      -52.11300233953830
C          -18.52116492114109       25.55485407844934      -51.77038494610103
C          -18.09887596311691       25.33714368761261      -50.48718958643190
C          -18.67935358257958       24.08813688096088      -50.07725813553161
C          -18.75338983644966       22.18564431470491      -48.49856988783303
C          -18.31024170830600       21.54431564677827      -47.26646640382017
C          -18.77033062779701       20.25895739200697      -47.31830756781845
C          -19.49278684325530       20.14369449698688      -48.57329310561295
C          -21.06098528893436       19.00183551972111      -50.06896297283857
C          -21.95052666603620       17.91170471578459      -50.36018319202882
C          -22.68064774373421       18.30433794165056      -51.46720714444854
C          -22.20746962208840       19.60644945483975      -51.82410739129367
C          -22.66641031615130       20.27892675521001      -52.94833449535183
H          -23.47126175088622       19.80351856470888      -53.49078380192360
C          -20.08261188315002       24.30720963100556      -53.30176068855119
H          -19.93990875228731       25.07139021267514      -54.05238084575871
C          -18.43213724082108       23.48190681336724      -48.84958905014811
H          -17.90298396117903       24.08197559222209      -48.12475585140809
C          -20.18667683016771       19.01443634068157      -48.99075047189401
H          -20.08163925978470       18.10429285496649      -48.41475968721808
C          -23.54977909020364       21.48284556652014      -55.59105923477070
H          -24.47642262571776       21.34445378949371      -55.03017093052449
H          -23.17882451862501       20.50325846758287      -55.89750008754257
H          -23.78986744125522       22.05038952653137      -56.50488638429031
C          -21.76060994045230       24.33928671560527      -55.76694605498067
H          -20.72618411634702       24.43886349917101      -56.10098527101248
H          -22.05501665485511       25.26172679214554      -55.26119560042480
H          -22.39789901633896       24.22352729721423      -56.65777595724956
C          -23.71655035203209       17.39750518798402      -52.03998586306803
H          -23.22273987837490       16.43174030318033      -52.19049908731333
H          -24.22830492347382       17.65075747618044      -52.98962482015054
H          -24.48888804501853       17.25841115952841      -51.27802633266759
C          -22.15009626946202       16.60116861796203      -49.74874691861303
H          -22.78933489578912       16.51577446299561      -48.87074748184897
C          -21.74488317628092       15.50160562428428      -50.37243255370954
H          -21.07186069323307       15.57543402940433      -51.21473760158853
H          -22.08845558045233       14.50701356324009      -50.10001795431051
C          -18.73713616568362       19.11320220706041      -46.36721322212841
H          -18.29608223772905       18.25604256814018      -46.88224878270469
H          -19.76397216779851       18.85813419820102      -46.09727194498884
H          -18.18037402763226       19.26758015887918      -45.43014199881884
C          -17.42877496466443       22.18892533205992      -46.32249342166085
H          -17.59341887141031       23.25646010485448      -46.20130072988060
C          -16.43010227782728       21.57928307372939      -45.69603097105147
H          -16.26943198667270       20.51982665130451      -45.81611857166279
H          -15.71395387299003       22.10145040315689      -45.08085707556568
C          -17.18602463308179       26.28128566900904      -49.76099653172033
H          -16.34031580139226       26.49403726603520      -50.42434596644829
H          -16.74238555047225       26.00279918070900      -48.77332171186718
H          -17.73089707053840       27.21897315986499      -49.60371075016872
C          -18.11972186766506       26.77137567506935      -52.54894947344672
H          -17.02574511364253       26.82574595694779      -52.52340584257947
H          -18.50702567736195       27.65121927967958      -52.02481203615309
H          -18.41978127490963       26.87187549136870      -53.61368703610303
C          -24.71065198769057       22.57599303810281      -47.64651044432334
H          -25.67724701168624       22.75460893331632      -48.11484117051835
H          -24.58599568378132       23.29352040771030      -46.83674000380540
H          -24.70543885385411       21.57507317239010      -47.23003283448423
N          -23.41970227095007       23.87690385068960      -49.34204253003792
H          -23.95946764089568       24.72152483039484      -49.24939366759953
C          -23.61406523971369       22.71900544724198      -48.63674880921223
C          -22.35046341995091       23.68994073588532      -50.15222797782575
H          -21.98308584813270       24.42623546175064      -50.83490338279888
N          -21.85932110046635       22.48796649785472      -50.00417090855485
C          -22.62990371737707       21.87059027298639      -49.06120646640661
H          -22.43729631088572       20.86283532798589      -48.75558235347170
C          -16.30569662344405       22.41204775084702      -51.75330992313751
H          -15.34754172971265       22.46474640872527      -51.24403048709063
H          -16.91648359902501       23.24191550663050      -51.42530586334031
H          -16.15028599760625       22.49383036710181      -52.82415602952638
C          -16.97833243145226       21.09282616695327      -51.41184267800774
H          -17.17301923717855       21.02839218911154      -50.34444778007022
H          -16.35650981175311       20.26043131151668      -51.73334919078258
S          -18.57509483655014       20.92294892506648      -52.30519519613751
C          -18.64489491800755       19.10203844644636      -52.33086336569036
H          -18.63063371750635       18.71122441621263      -51.31978659566585
H          -17.79960332187530       18.73724888613827      -52.90501045333906
H          -19.57397901339830       18.82899472339344      -52.81735294855759
87
 energy: -124.698537935083 gnorm: 0.036576608233 xtb: 6.7.1 (edcfbbe)
Fe         -20.32157036906171       21.75410668137578      -51.02951683866257
N          -21.22034358130818       22.21178211954465      -52.77487087542737
N          -19.42824977545827       23.55899312105475      -51.06415975797078
N          -19.45644105191876       21.32511452363696      -49.26988971072046
N          -21.23709753173231       20.00445160648325      -50.98282998039798
C          -22.15977763150735       21.47525674258764      -53.41645172859482
C          -22.54584379278381       22.10671558576745      -54.66847160972107
C          -21.80395420923486       23.23934987029418      -54.76192124972030
C          -20.97549597381254       23.28514633950638      -53.56439897980077
C          -19.37372060353760       24.43809482609567      -52.10425683734616
C          -18.52770850198506       25.55521059842294      -51.76424153880037
C          -18.10587016907568       25.34418840561965      -50.47947692113978
C          -18.67826664594376       24.08849004786592      -50.06283027524648
C          -18.75990514081559       22.19227272491624      -48.49301493122460
C          -18.30956231766372       21.53688134913866      -47.27387690790612
C          -18.77175783260037       20.25027876876089      -47.34017920826352
C          -19.50106542620102       20.15189885240992      -48.58537530703011
C          -21.06121087985357       19.00253019605177      -50.08025416178361
C          -21.94140153913078       17.90701658555375      -50.37574372897906
C          -22.68088237893883       18.29039190749574      -51.46899964310671
C          -22.21619306669898       19.59843760318799      -51.83202592530456
C          -22.66877603790805       20.27972247585993      -52.95220547165933
H          -23.45623711950437       19.80007051396066      -53.51362420320105
C          -20.08347195515990       24.30346713995283      -53.28641129818684
H          -19.94844422077879       25.07605700334092      -54.02870230696421
C          -18.42466026064854       23.48577536860876      -48.84146835607721
H          -17.86625570081144       24.07520222997938      -48.12813836459845
C          -20.19741507674585       19.02633246112594      -48.99723133035091
H          -20.12034539936567       18.12334994604127      -48.40505156452348
C          -23.54685075661996       21.48506640150737      -55.57653734394138
H          -24.49324654112402       21.33538114010593      -55.04852853573716