87
 energy: -124.720511551815 gnorm: 0.000046913628 xtb: 6.7.1 (edcfbbe)
Fe         -20.29993727962852       21.70503281613195      -51.03878591760041
N          -21.16354939972968       22.13036812634291      -52.78806496302077
N          -19.39459232235847       23.49145853044730      -51.05307241343051
N          -19.42883819705912       21.28385280521964      -49.27828006602962
N          -21.26880929531417       19.95080515782637      -50.97959145352656
C          -22.01823941932434       21.34045753743552      -53.48779647048634
C          -22.39177826871833       21.97087947968165      -54.73612827129948
C          -21.74201950456549       23.16367872203523      -54.76955052991357
C          -20.98278664475825       23.24540852303884      -53.54031628758494
C          -19.49052443107675       24.44860261360278      -52.01279538757304
C          -18.71752185562653       25.61587968405633      -51.65020051301740
C          -18.15196797430886       25.33891999677943      -50.44460262204388
C          -18.58698625002956       24.00654492071216      -50.08953449356721
C          -18.59504102410209       22.08354621631026      -48.56640115943594
C          -18.15449526892295       21.41725795217213      -47.35650389224566
C          -18.78121018577640       20.19902897137337      -47.34686035516699
C          -19.57766391706533       20.14535071258542      -48.54556216588367
C          -21.20022419694429       19.01183069411221      -50.00104098028447
C          -22.05887600699108       17.88508531075883      -50.31117693071761
C          -22.65905324290358       18.18793486421959      -51.50475261155723
C          -22.14833346463599       19.47542507476316      -51.90001303708122
C          -22.49293053465145       20.11135458852600      -53.08012491934850
H          -23.18068946307532       19.60168985524049      -53.73728616776014
C          -20.21165619180937       24.33658000480836      -53.18723674580762
H          -20.17369137028502       25.16640723407338      -53.87651994866840
C          -18.19694831771718       23.35551522153110      -48.93499718686253
H          -17.52723367194063       23.88163322714876      -48.27225600009506
C          -20.39707849008947       19.07984307911656      -48.87891622015926
H          -20.41202666099469       18.23734540547508      -48.20446085034366
C          -23.31303481301152       21.36792646661737      -55.74021689699287
H          -24.29503269203139       21.18834882576495      -55.30146034699762
H          -22.92106091041594       20.41414309375993      -56.09349892119641
H          -23.43632270090874       22.02594400627426      -56.59695392925428
C          -21.75691153056061       24.22059928950010      -55.82033182897839
H          -20.74952399753407       24.39822120888999      -56.19691171866191
H          -22.13759697898061       25.16003890468107      -55.41776706693283
H          -22.38773452281643       23.92661947949379      -56.65556560367319
C          -23.68980880970948       17.41016608733150      -52.24572088530214
H          -24.18409923067068       16.71084027608993      -51.57427101104497
H          -23.23832166328841       16.84317743385885      -53.06168315423012
H          -24.44004248420894       18.07443818731267      -52.67200215405666
C          -22.22486863598028       16.71933098901115      -49.47207039923158
H          -22.14562865642968       16.89419534693114      -48.40505988292630
C          -22.45180540880477       15.48324285263955      -49.90485744984704
H          -22.49254075643934       15.24142769769207      -50.95251282524980
H          -22.57912172704690       14.66112479026028      -49.22019305267412
C          -18.74051291747411       19.14619281674278      -46.29479229923178
H          -18.06210005436322       18.33862080092794      -46.57592158242657
H          -19.72891191424312       18.71541515661445      -46.14057288190040
H          -18.39669432771737       19.57206542686876      -45.35439220902603
C          -17.25369732673163       21.98934861398693      -46.38065292945104
H          -17.32487720089738       23.06306409600425      -46.24992372412330
C          -16.36442066344125       21.31134744239242      -45.66236258233787
H          -16.21623765279203       20.25245836133304      -45.78438079432649
H          -15.73148720530646       21.80123738270424      -44.94106145105003
C          -17.25314207457303       26.18181621822702      -49.60681514789741
H          -17.08206096372374       27.14845905613075      -50.07430429653417
H          -16.28845177508561       25.69265306265322      -49.46852957223945
H          -17.69105986449921       26.34903352598459      -48.62245836588414
C          -18.60298740153013       26.84237364606780      -52.48928548274419
H          -17.97608186244394       27.58596213566225      -52.00338122552888
H          -19.58498450712168       27.28293540608321      -52.66429186902822
H          -18.16302972270462       26.60370145125236      -53.45802430329603
C          -24.45514134524582       22.89849021053266      -47.50938088479464
H          -25.47374414697278       22.88955513107059      -47.89721377549707
H          -24.34263605264149       23.77192621837685      -46.86703794043422
H          -24.30255782936012       22.00529116468061      -46.91176259923541
N          -23.42740834192789       23.94103725519637      -49.54154523335507
H          -24.03828015743479       24.74098890164271      -49.56511990412694
C          -23.46866062104516       22.92878088532937      -48.61864456863037
C          -22.42406337327959       23.66759414963020      -50.40516744803480
H          -22.15924495454700       24.28913625141066      -51.23529983297435
N          -21.82819354331491       22.54515963741038      -50.08540289422887
C          -22.46619424245743       22.07373151062781      -48.97668079668492
H          -22.16480431557155       21.15762347619486      -48.51328228541618
C          -16.47809897926740       22.54540349348688      -52.62711575597144
H          -15.53777361526659       22.96829663224547      -52.27895500437998
H          -17.23306061282040       23.32582980283919      -52.62301802873785
H          -16.35020469555024       22.19485295514409      -53.64852160894142
C          -16.89825216992606       21.40134391701075      -51.72501464348318
H          -17.02201697624836       21.73456530330035      -50.69599083383596
H          -16.17098131693896       20.59048537973445      -51.76682599136463
S          -18.50281205029682       20.70176730433122      -52.29127101869340
C          -18.28319431444934       19.01758754730901      -51.63976395621557
H          -18.13914381158576       19.05441619449157      -50.56467594012254
H          -17.43227507598007       18.55492987182422      -52.13298083436488
H          -19.18936165398608       18.46801994494585      -51.86927181569992
