78
 energy: -115.985253517641 gnorm: 0.250905924275 xtb: 6.7.1 (edcfbbe)
Fe          -5.16900000000000        5.53400000000000       -8.39200000000000
N           -4.99200000000000        7.30200000000000       -7.48500000000000
N           -4.59100000000000        4.55000000000000       -6.69300000000000
N           -5.28700000000000        3.67900000000000       -9.34300000000000
N           -5.65500000000000        6.44200000000000      -10.02200000000000
C           -5.28100000000000        8.56600000000000       -7.97100000000000
C           -5.14200000000000        9.53300000000000       -6.94000000000000
C           -4.76700000000000        8.88300000000000       -5.80800000000000
C           -4.65900000000000        7.49400000000000       -6.12100000000000
C           -4.31100000000000        5.08400000000000       -5.51400000000000
C           -3.92100000000000        4.08300000000000       -4.62400000000000
C           -3.97600000000000        2.87200000000000       -5.21400000000000
C           -4.44600000000000        3.24300000000000       -6.61600000000000
C           -4.96300000000000        2.49000000000000       -8.89500000000000
C           -4.86700000000000        1.50500000000000       -9.92800000000000
C           -5.17700000000000        2.17600000000000      -11.08500000000000
C           -5.45300000000000        3.53300000000000      -10.68500000000000
C           -5.80900000000000        5.90500000000000      -11.27500000000000
C           -6.09400000000000        6.90900000000000      -12.27900000000000
C           -6.02400000000000        8.11500000000000      -11.66100000000000
C           -5.74200000000000        7.78500000000000      -10.22900000000000
C           -5.61500000000000        8.77900000000000       -9.29200000000000
H           -5.79000000000000        9.80600000000000       -9.61300000000000
C           -4.33000000000000        6.46800000000000       -5.28000000000000
H           -4.03800000000000        6.77000000000000       -4.27500000000000
C           -4.63400000000000        2.27600000000000       -7.59900000000000
H           -4.50300000000000        1.23800000000000       -7.29400000000000
C           -5.77900000000000        4.53500000000000      -11.54000000000000
H           -6.04900000000000        4.23500000000000      -12.55200000000000
C           -4.51300000000000        9.44800000000000       -4.42300000000000
H           -4.68100000000000       10.54600000000000       -4.43400000000000
H           -3.46200000000000        9.24700000000000       -4.12300000000000
H           -5.21200000000000        8.98400000000000       -3.69400000000000
C           -5.41400000000000       11.01300000000000       -7.08400000000000
H           -6.06600000000000       11.18600000000000       -7.96700000000000
H           -4.45700000000000       11.55800000000000       -7.23000000000000
H           -5.93000000000000       11.39000000000000       -6.17500000000000
C           -3.53500000000000        4.42300000000000       -3.16700000000000
H           -4.22500000000000        5.19900000000000       -2.77200000000000
H           -2.49600000000000        4.81500000000000       -3.13600000000000
H           -3.61700000000000        3.51300000000000       -2.53500000000000
C           -3.66600000000000        1.47500000000000       -4.77100000000000
H           -3.97100000000000        0.62900000000000       -5.40400000000000
C           -3.04300000000000        1.19600000000000       -3.65500000000000
H           -2.71500000000000        2.00200000000000       -2.98200000000000
H           -2.83900000000000        0.15200000000000       -3.37500000000000
C           -4.47400000000000        0.06800000000000       -9.78300000000000
H           -5.36100000000000       -0.57800000000000       -9.95500000000000
H           -4.08900000000000       -0.11400000000000       -8.75700000000000
H           -3.69300000000000       -0.18500000000000      -10.53200000000000
C           -5.25500000000000        1.69800000000000      -12.51600000000000
H           -5.54000000000000        2.42200000000000      -13.29300000000000
C           -5.00400000000000        0.45000000000000      -12.93000000000000
H           -4.71300000000000       -0.32900000000000      -12.21000000000000
H           -5.08500000000000        0.18800000000000      -13.99500000000000
C           -6.34800000000000        6.65400000000000      -13.76500000000000
H           -7.23300000000000        5.99300000000000      -13.88200000000000
H           -5.46400000000000        6.15600000000000      -14.21700000000000
H           -6.54700000000000        7.61700000000000      -14.28200000000000
C           -6.17500000000000        9.47800000000000      -12.22500000000000
H           -7.19900000000000        9.85400000000000      -12.01600000000000
H           -6.01900000000000        9.44900000000000      -13.32500000000000
H           -5.43700000000000       10.16300000000000      -11.75500000000000
O           -3.12900000000000        5.63700000000000       -9.08400000000000
H           -2.92800000000000        4.77200000000000       -9.44200000000000
H           -2.57700000000000        6.33300000000000       -9.05000000000000
C          -10.64100000000000        4.11400000000000       -7.49400000000000
H          -11.35200000000000        4.70000000000000       -8.11600000000000
H          -11.03100000000000        4.06000000000000       -6.45500000000000
H          -10.54900000000000        3.09200000000000       -7.91900000000000
N           -9.13300000000000        6.06500000000000       -7.03400000000000
H           -9.84900000000000        6.61000000000000       -6.59800000000000
C           -9.30300000000000        4.78600000000000       -7.49700000000000
C           -7.88500000000000        6.45100000000000       -7.25600000000000
H           -7.49000000000000        7.44000000000000       -7.02800000000000
N           -7.23600000000000        5.43400000000000       -7.79000000000000
C           -8.10000000000000        4.37500000000000       -7.96100000000000
H           -7.77500000000000        3.43800000000000       -8.39400000000000
78
 energy: -116.029817174309 gnorm: 0.102483559758 xtb: 6.7.1 (edcfbbe)
Fe          -5.19231606343730        5.53438081052258       -8.39627732493456
N           -4.99517753911387        7.29931857376712       -7.47443477513993
N           -4.59963416311329        4.54307916432893       -6.71439266616236
N           -5.26216073741047        3.69801167263158       -9.36917119855063
N           -5.64466121992246        6.45378330448752      -10.05061784593896
C           -5.27576395902921        8.55017443947536       -7.96390816754751
C           -5.14586230926320        9.53473404332617       -6.93288517985233
C           -4.76467510020795        8.87842996657998       -5.80207347661157
C           -4.66711830658343        7.48465403262114       -6.13490783228100
C           -4.30006990725470        5.09523688166316       -5.52212836122691
C           -3.91810436639747        4.08344344276515       -4.59573160338270
C           -3.98350713249409        2.87071749252445       -5.21950156148763
C           -4.44717468029609        3.21828875581255       -6.59901679251151
C           -4.94489038816942        2.48556149531164       -8.89554106025047
C           -4.87405139170846        1.49997200718844       -9.94335394131462
C           -5.19364619394348        2.16763816058214      -11.10356085310290
C           -5.45280158823526        3.53661800609848      -10.70608147099981
C           -5.83967295834322        5.89981892497928      -11.28536141902659
C           -6.09185797502538        6.90965198223589      -12.28580063504323
C           -6.02291680394285        8.10789398805393      -11.65325244696385
C           -5.74834107369528        7.79593583655350      -10.24169345402446
C           -5.61769068842637        8.77924957645131       -9.28771017309808
H           -5.78494790997391        9.80276705321243       -9.60234354570596
C           -4.32699888087973        6.46705702350111       -5.27492745534681
H           -4.04348499684589        6.77158265226490       -4.27281265526001
C           -4.62744961466542        2.25574368582996       -7.57439742504662
H           -4.48718192211880        1.22715294005542       -7.27711906316669
C           -5.79715347645015        4.54521580911872      -11.56708776692721
H           -6.03776962068127        4.25139873635745      -12.57877156549863
C           -4.51395512258944        9.44579397539903       -4.43381609504433
H           -4.67552492946847       10.52825203231993       -4.43117565838589
H           -3.48203169139272        9.24940669901308       -4.12288912853025
H           -5.19357883708815        8.99077705664336       -3.70367291075760
C           -5.41416208130914       11.00397773074281       -7.08500221157818
H           -6.05607280869259       11.18993154826149       -7.95151615732577
H           -4.47615819496520       11.55424488523684       -7.22551495977554
H           -5.91752555066956       11.39133847972360       -6.19286949203785
C           -3.54125348959220        4.42064488518889       -3.16890585388807
H           -4.21351050641598        5.18970657673596       -2.77728645223240
H           -2.51451422550738        4.80258603595262       -3.13117915201867
H           -3.62603160867814        3.54138241439696       -2.53009545854939
C           -3.67668308787526        1.50364082582880       -4.77592190669535
H           -3.98210972071557        0.67643074328734       -5.41615496795097
C           -3.03907392622779        1.19836493513718       -3.65297275290980
H           -2.68833153765942        1.96738336373449       -2.98123342199568
H           -2.84156126298833        0.16813154559264       -3.37649073595488
C           -4.47807030556223        0.07183473092165       -9.77891034369737
H           -5.34467518790358       -0.57878991824905       -9.94998685042109
H           -4.09287342614320       -0.11883589898665       -8.77316452721577
H           -3.69768468183671       -0.18650830882280      -10.50287378251544
C           -5.25577704057027        1.69300480395264      -12.49720691778568
H           -5.53376020949608        2.42451321731465      -13.25495506704680
C           -5.00637473605746        0.45518101576391      -12.92172347640525
H           -4.72485652216357       -0.33157436885620      -12.23849232321728
H           -5.08249080615977        0.19615790356998      -13.97237864100181
C           -6.34551325580996        6.65113975634761      -13.74872768978401
H           -7.21840394969163        6.00199008425184      -13.87979094466089
H           -5.47965074190517        6.16305073392237      -14.20975193447780
H           -6.53961422233346        7.59295292847085      -14.27072540334623
C           -6.17625806887159        9.47410384891296      -12.21697875475477
H           -7.18459254555749        9.85981883449440      -12.01999443504280
H           -6.02129890243258        9.45904744770685      -13.30123927562643
H           -5.44972191070723       10.16047457513694      -11.76970013069915
O           -3.13649699667930        5.61579963904571       -9.07471492404184
H           -2.90170424127652        4.76974190550884       -9.45283225049987
H           -2.54656338998755        6.34765203284136       -9.05375476108102
C          -10.64267290827864        4.11433761236751       -7.48963009334794
H          -11.34981289798075        4.68498014739747       -8.10360643240107
H          -11.03709305848110        4.05199926355681       -6.46982774345348
H          -10.55220213528747        3.10862315313910       -7.90597389863933
N           -9.15140432570973        6.06468705668804       -7.04081474129459
H           -9.86905958131645        6.61577377705865       -6.60343915816905
C           -9.31349467520222        4.78451546102944       -7.49522759913605
C           -7.87953275093205        6.43353819122037       -7.25513550400448
H           -7.48681611449354        7.40975146616346       -7.02742665429578
N           -7.21819904587600        5.43830716242299       -7.80080259086549
C           -8.09270329625687        4.39523387867937       -7.95864337821484
H           -7.77146851957624        3.46499367553356       -8.38801074082249
78
 energy: -116.042242919651 gnorm: 0.028133601783 xtb: 6.7.1 (edcfbbe)
Fe          -5.20580256886661        5.52246360380261       -8.39779090507145
N           -5.00404897059320        7.29045743963186       -7.46359141269638
N           -4.61391112962277        4.53664249970229       -6.72928715173495
N           -5.24185370415140        3.71272081078133       -9.39022765812176
N           -5.65314417033871        6.46104880389972      -10.06838263220784
C           -5.27735407735172        8.52906435173120       -7.95854341025572
C           -5.15085567564206        9.53034201853365       -6.92886134007416
C           -4.76580909269696        8.86924124328909       -5.79945299474908
C           -4.67931198040264        7.47087567760157       -6.14939881118261
C           -4.29903990457942        5.10240495338186       -5.53191819355458
C           -3.91863178203486        4.08999106498956       -4.57756850672313
C           -3.99457676128143        2.87953795142432       -5.22401238913913
C           -4.45049048228719        3.20019436829525       -6.58166414831478
C           -4.92424850511120        2.48818512894614       -8.89555466311108
C           -4.87800567235879        1.50157781713588       -9.94801725745363
C           -5.20790486965159        2.16151292396240      -11.11192018961640
C           -5.44871402979172        3.53992873692463      -10.72102612873560
C           -5.86244738395308        5.89764489378787      -11.29131600925033
C           -6.10111814042996        6.91395345433104      -12.28931957117298
C           -6.02811281324797        8.10722016533352      -11.64509221888350
C           -5.75623854972722        7.80398230086243      -10.25285301634683
C           -5.61886464252095        8.77520847593753       -9.28129783740676
H           -5.77760180870677        9.79875773679254       -9.58559132883086
C           -4.33012647882258        6.46325682506980       -5.26966761288491
H           -4.05176123124358        6.77291407163933       -4.27151111942100
C           -4.61950897659777        2.24449895526191       -7.56114055903475
H           -4.46804329333146        1.21778862262770       -7.27653908488365
C           -5.80402963522870        4.55296734230160      -11.59025083133250
H           -6.02197313879002        4.26882030738212      -12.60673271315660
C           -4.51313593657945        9.43737271271570       -4.44297172936964
H           -4.67162713588894       10.51182178832923       -4.43984914590661
H           -3.48987851985956        9.24410997812536       -4.12675530727047
H           -5.18224908303752        8.98892624680687       -3.70952357817761
C           -5.41273508404493       10.99288911537013       -7.08636733387043
H           -6.05017811348062       11.18498111799235       -7.94390165824001
H           -4.48241358563370       11.54337770838429       -7.22481095470100
H           -5.90659132281054       11.38791599021939       -6.20117020597002
C           -3.55060901848271        4.41928465197090       -3.17141722473741
H           -4.20831523269794        5.19321048323776       -2.78415659685982
H           -2.52671008751123        4.78932287683382       -3.12518164326367
H           -3.64046823206813        3.55503725285085       -2.52654823696486
C           -3.68747440632347        1.54135805779586       -4.77325189856007
H           -4.00540050048897        0.73082517184423       -5.41747671480457
C           -3.03365402903873        1.20755463624994       -3.65806546794799
H           -2.65348944622587        1.94318547347354       -2.97810853412071
H           -2.84998106352965        0.18047836277897       -3.39369042573165
C           -4.48184160115219        0.07682850228166       -9.77176760077884
H           -5.33445624296733       -0.57982109460810       -9.94693063151724
H           -4.10329150962253       -0.11247507182099       -8.77295332407123
H           -3.69710721281802       -0.18546739381375      -10.47884991978919
C           -5.26545035691483        1.68817068106511      -12.47316725766654
H           -5.53072926948079        2.43208888390183      -13.21476583762324
C           -5.01721699057258        0.45588397777807      -12.91285188381016
H           -4.74126869859021       -0.34724488887547      -12.26097593367781
H           -5.07857922720915        0.21080189652210      -13.95937656146211
C           -6.34692279562976        6.65152819992302      -13.73648035427176
H           -7.21159927986377        6.00435937189035      -13.87040851603870
H           -5.48723042698947        6.16569402766410      -14.19569462721819
H           -6.53606212996387        7.58165520275209      -14.26429755879717
C           -6.17748943311806        9.47660838718189      -12.21230083850491
H           -7.17667971076742        9.86652136678706      -12.01641607955997
H           -6.02513850698388        9.46389685354242      -13.28842485166223
H           -5.45356658372428       10.15979415138951      -11.77602295327301
O           -3.12158298503064        5.59403485289533       -9.03908987197477
H           -2.84731564963980        4.78390293825045       -9.47791747219203
H           -2.52632554627297        6.34531047103724       -9.07114359072757
C          -10.63932964130844        4.11018935597497       -7.48704313329543
H          -11.34867537364101        4.67128867156649       -8.09407100548868
H          -11.03531303140135        4.04410335785842       -6.47610120641021
H          -10.54936664761838        3.11148824045365       -7.89628643945495
N           -9.16127376325470        6.06773743567676       -7.05153742697461
H           -9.87902842646674        6.62362720876163       -6.61494389402716
C           -9.31670541909577        4.78465256916599       -7.50056241745575
C           -7.87443700071135        6.42397669045791       -7.25902969357827
H           -7.48202423624139        7.38941177522219       -7.02103858714537
N           -7.20276852009643        5.44425848885724       -7.81139363584285
C           -8.08457910309111        4.41400059861840       -7.96446845165846
H           -7.76820441269809        3.48534012130207       -8.38991209220844
78
 energy: -116.045417290224 gnorm: 0.033277937964 xtb: 6.7.1 (edcfbbe)
Fe          -5.20192075662379        5.51098504621063       -8.39727715669267
N           -5.01253428341701        7.28101081318475       -7.45799766500364
N           -4.62781353086814        4.53624911272371       -6.73121632583785
N           -5.23480847286314        3.72133771375793       -9.39770116554475
N           -5.65557568932292        6.46247142943168      -10.07381761784086
C           -5.28413977289766        8.51535870861305       -7.95670706609844
C           -5.15506302787990        9.52239426402664       -6.92797172275967
C           -4.77051116009616        8.86155823181479       -5.79901959358444
C           -4.69087839887887        7.46195993780023       -6.15218574458855
C           -4.31074868432506        5.10611857800682       -5.53419256848075
C           -3.92573745266302        4.09978336650214       -4.57047638417877
C           -4.00492856342456        2.89071158757512       -5.21952898953236
C           -4.45485987390019        3.19770657342300       -6.57228074374022
C           -4.91310778564850        2.49559207954846       -8.89374003949182
C           -4.87923096845054        1.50630311870680       -9.94122913435901
C           -5.21425743879432        2.16000003862455      -11.10751558228840
C           -5.44703454582018        3.54322060378444      -10.72532789486489
C           -5.87032993302805        5.89896575120833      -11.29351340462482
C           -6.11137274304400        6.91869559008216      -12.28984545192953
C           -6.03454254895948        8.11094360039690      -11.64246325919295
C           -5.76249479923672        7.80630760547808      -10.25631153499820
C           -5.62285600511338        8.77027316289981       -9.27600558389220
H           -5.77345510082725        9.79677394339808       -9.57213253161257
C           -4.34140009870244        6.46195660434883       -5.26283453352286
H           -4.06421292892810        6.77509067756461       -4.26708036058446
C           -4.61124610374134        2.24643781226972       -7.55895471616041
H           -4.44513317007477        1.21770561500979       -7.28378328049218
C           -5.80193035953452        4.55624795289001      -11.60074574199244
H           -6.00291232740792        4.28094696249337      -12.62448126142937
C           -4.51064115637498        9.42841579557716       -4.44606396147063
H           -4.66670551139426       10.50302772689069       -4.44640686757184
H           -3.48672358328725        9.23343851012354       -4.13242896148739
H           -5.17657152131600        8.98260691421227       -3.70789520651574
C           -5.40986041693702       10.98373276257893       -7.08862934183712
H           -6.04915474447415       11.17866948184595       -7.94401679252565
H           -4.47707953567246       11.52934564345412       -7.23010097658590
H           -5.89771384141055       11.38453939373460       -6.20229489413217
C           -3.56435941424347        4.42680549670983       -3.16602436714549
H           -4.20925689388154        5.21606716640805       -2.78549182719616
H           -2.53266204456053        4.77690354481970       -3.10963611004928
H           -3.67584680954709        3.56814682847608       -2.51458842341005
C           -3.69923118105120        1.56046187521113       -4.76260266594757
H           -4.04497217019438        0.76033469840580       -5.40491282944148
C           -3.02622219344922        1.20665266084741       -3.66416845215873
H           -2.59202364609529        1.92128204289369       -2.98737037768442
H           -2.85891564084248        0.17294875042078       -3.41647267057351
C           -4.48413152273271        0.08156790513098       -9.76011792493809
H           -5.33061043282185       -0.57978472251328       -9.94669505168909
H           -4.11893012728833       -0.10539493346978       -8.75597626772815
H           -3.68724327001492       -0.18047552199204      -10.45454135048531
C           -5.27118436989143        1.68461530464652      -12.46205217050425
H           -5.53152575716352        2.43709437635060      -13.19560233114070
C           -5.02903827238102        0.45451893833940      -12.91400416066044
H           -4.77431328318637       -0.36968682767135      -12.27703125504918
H           -5.08631422831089        0.22684139740382      -13.96428954772610
C           -6.35316777577530        6.65200489004582      -13.73379365625947
H           -7.21598295114597        6.00207090617038      -13.86668591819529
H           -5.49081925672492        6.16387337609628      -14.18638636720622
H           -6.53964436172616        7.57859906727505      -14.26846691579171
C           -6.18056419622567        9.48264414806889      -12.20946202478526
H           -7.17619239103753        9.87805139259596      -12.00812581453978
H           -6.03267718569309        9.46911116194096      -13.28559145811236
H           -5.45102572227287       10.16218599208992      -11.77688164166657
O           -3.07358940791691        5.56361852033662       -8.96399554871157
H           -2.80143544152204        4.81163566311350       -9.53148680308014
H           -2.51248271485295        6.34957149713224       -9.11126997450564
C          -10.63130083638545        4.10295078714160       -7.48810323910097
H          -11.35030016875195        4.65623262842222       -8.09138334654335
H          -11.02204718893920        4.03663159824128       -6.47464965602463
H          -10.53828256076590        3.10226539623785       -7.89230791500274
N           -9.15989499939074        6.06999482751178       -7.06423345862012
H           -9.87829029413936        6.62850932830945       -6.63147917565492
C           -9.31247765578792        4.78507196859313       -7.51296421623298
C           -7.86970444493175        6.42286372952158       -7.26656138586382
H           -7.47573033535263        7.38354908812545       -7.01394456982775
N           -7.19450636433989        5.44726640659287       -7.82200609898136
C           -8.07843299323502        4.42082403700231       -7.97816347353840
H           -7.76518266009325        3.49169189882495       -8.40430550078243
78
 energy: -116.047229342655 gnorm: 0.023157897392 xtb: 6.7.1 (edcfbbe)
Fe          -5.19066953583285        5.50377673056266       -8.39620984417892
N           -5.01710791644350        7.27348275944996       -7.45475456989761
N           -4.64181742065920        4.53966440734519       -6.72869898139531
N           -5.22653310293651        3.73135992762377       -9.40079354569274
N           -5.64788251822294        6.46419967946266      -10.07864376821116
C           -5.28901208733766        8.50636200069618       -7.95684246476715
C           -5.15866809757338        9.51529808210499       -6.92818934541258
C           -4.77627642080587        8.85647764717833       -5.79896178102072
C           -4.70020008469912        7.45684136130896       -6.15044828429424
C           -4.32659677695664        5.10974848933958       -5.53320598530949
C           -3.93575103230579        4.10994914465109       -4.56686719738966
C           -4.01291005138770        2.90218165943071       -5.21365033863829
C           -4.45949802981690        3.20212067911100       -6.56618919290911
C           -4.90296282016302        2.50676507480791       -8.89154088275391
C           -4.87958527731826        1.51325846181925       -9.93184885220912
C           -5.21891257128649        2.16111549360245      -11.09958618539764
C           -5.44303140733565        3.54847179163651      -10.72657379793683
C           -5.86903567456587        5.90236960930330      -11.29719005153117
C           -6.12112344028468        6.92365328274671      -12.29095787656168
C           -6.04252875357608        8.11599078915255      -11.64272863241351
C           -5.76370337617295        7.80862442461624      -10.25925560936190
C           -5.62484085906629        8.76691047267995       -9.27283177752449
H           -5.77327813172192        9.79625053444986       -9.56064066380685
C           -4.35519941865540        6.46299893815137       -5.25475328287483
H           -4.07968419698855        6.77815656309010       -4.26022831540058
C           -4.60094625073823        2.25488768898132       -7.56008300468915
H           -4.41846763737424        1.22468368662166       -7.29241625808055
C           -5.79389538743456        4.55928948842428      -11.60774395585308
H           -5.98608056727354        4.29120096874996      -12.63594155289504
C           -4.50733152999416        9.42087854206644       -4.44708379796538
H           -4.66008649281424       10.49719020456637       -4.44858409328256
H           -3.48072654973144        9.22189497048199       -4.14013277928382
H           -5.17074126348772        8.97636338246892       -3.70410178987405
C           -5.40664588788365       10.97681090194531       -7.09174284774851
H           -6.05012468747374       11.17352635959318       -7.94529950449218
H           -4.46950473034605       11.51570302111719       -7.23942775264867
H           -5.88795634167754       11.38303635069338       -6.20255766815615
C           -3.57880628609411        4.42986535699399       -3.15850465884185
H           -4.20886019155242        5.23615025943801       -2.78226728205381
H           -2.53760485502370        4.75607271913175       -3.09089968055906
H           -3.71498225239037        3.56859425135831       -2.51001896444060
C           -3.70826472911875        1.57345963244315       -4.75069164217101
H           -4.09849386749277        0.77823498921869       -5.37754334474936
C           -3.00832315009656        1.21017535505675       -3.67439093144503
H           -2.53793418227419        1.91062355451921       -3.00228466961094
H           -2.86491241823018        0.16913886723777       -3.43428740321049
C           -4.48774120575086        0.08719766862858       -9.75001306330187
H           -5.33036100104814       -0.57627557800323       -9.95099288867492
H           -4.13835134864183       -0.10154703526059       -8.73867096313582
H           -3.67886900409735       -0.17263571862268      -10.43394638584136
C           -5.28184854609623        1.68082045122325      -12.45376248792352
H           -5.52862724509449        2.44098009430395      -13.18488580287137
C           -5.05294683516022        0.45044888420865      -12.91275612305694
H           -4.80754006469751       -0.38740395073660      -12.28642728171658
H           -5.10260787623290        0.24026059766854      -13.96874401252081
C           -6.36327574680213        6.65235823964705      -13.73454280274665
H           -7.22573624743804        5.99927520179957      -13.86436710666277
H           -5.49775962761265        6.16174646162465      -14.18204496719543
H           -6.54943945564554        7.57692446083456      -14.27494217817912
C           -6.18787609594687        9.48971652288380      -12.20629536107141
H           -7.18005763719859        9.89131953988143      -11.99498660800616
H           -6.04832005389149        9.47627168017078      -13.28455344022678
H           -5.44970598096825       10.16489262131531      -11.77739735828073
O           -3.03766299021610        5.55431193802654       -8.95238632959245
H           -2.75809024972119        4.82294379572095       -9.51494972110540
H           -2.48747478215499        6.33601337059955       -9.14280554856930
C          -10.61955159151623        4.09174869547801       -7.49054067776103