78
 energy: -115.976913254040 gnorm: 0.257590801838 xtb: 6.7.1 (edcfbbe)
Fe          35.30799999999999        4.17800000000000       10.18800000000000
N           37.20499999999999        3.92500000000000        9.58200000000000
N           34.99299999999999        5.49700000000000        8.66900000000000
N           33.48400000000000        4.58900000000000       10.86200000000000
N           35.74600000000000        3.08800000000000       11.80200000000000
C           38.15799999999999        3.06400000000000       10.11000000000000
C           39.34799999999999        3.10400000000000        9.30700000000000
C           39.14300000000000        3.96500000000000        8.29300000000000
C           37.78900000000000        4.44700000000000        8.41700000000000
C           35.91000000000000        5.83700000000000        7.70200000000000
C           35.29399999999999        6.72900000000000        6.74700000000000
C           34.05399999999999        6.99800000000000        7.19700000000000
C           33.84900000000000        6.18400000000000        8.37100000000000
C           32.57200000000000        5.45800000000000       10.35300000000000
C           31.47800000000000        5.63100000000000       11.26100000000000
C           31.70100000000000        4.84900000000000       12.33400000000000
C           32.96000000000000        4.18600000000000       12.10500000000000
C           34.81600000000000        2.77200000000000       12.78900000000000
C           35.46800000000000        1.89600000000000       13.73800000000000
C           36.69900000000000        1.65900000000000       13.31100000000000
C           36.90400000000000        2.44100000000000       12.10500000000000
C           38.05300000000000        2.39300000000000       11.32100000000000
H           38.90200000000000        1.80700000000000       11.67100000000000
C           37.16900000000000        5.26800000000000        7.54600000000000
H           37.70700000000000        5.50900000000000        6.63000000000000
C           32.70900000000000        6.16800000000000        9.13300000000000
H           31.85100000000000        6.73900000000000        8.77700000000000
C           33.56200000000000        3.27000000000000       12.90800000000000
H           32.96900000000000        2.89400000000000       13.74100000000000
C           40.10500000000000        4.28900000000000        7.14200000000000
H           39.80100000000000        3.72500000000000        6.23500000000000
H           41.13799999999999        3.99200000000000        7.42200000000000
H           40.06999999999999        5.37700000000000        6.91900000000000
C           40.64300000000000        2.25100000000000        9.54600000000000
H           40.36799999999999        1.28500000000000       10.02100000000000
H           41.33500000000000        2.80000000000000       10.22000000000000
H           41.14200000000000        2.04600000000000        8.57500000000000
C           36.02400000000000        7.25100000000000        5.47700000000000
H           36.47700000000000        6.39600000000000        4.93200000000000
H           36.82899999999999        7.95800000000000        5.77100000000000
H           35.29700000000000        7.76000000000000        4.80900000000000
C           32.99200000000000        7.90600000000000        6.59200000000000
H           31.95900000000000        7.54300000000000        6.48800000000000
C           33.26100000000000        9.14600000000000        6.17400000000000
H           34.27900000000000        9.55500000000000        6.25700000000000
H           32.46800000000000        9.77400000000000        5.74200000000000
C           30.32900000000000        6.61100000000000       10.92600000000000
H           29.83900000000000        6.29800000000000        9.97900000000000
H           30.73600000000000        7.63700000000000       10.79900000000000
H           29.57600000000000        6.59900000000000       11.74300000000000
C           30.87100000000000        4.56500000000000       13.61400000000000
H           31.20700000000000        3.76100000000000       14.28400000000000
C           29.74900000000000        5.22900000000000       13.99000000000000
H           29.35000000000000        6.04700000000000       13.37200000000000
H           29.22400000000000        4.95800000000000       14.91800000000000
C           34.70600000000000        1.38200000000000       14.97700000000000
H           33.81600000000000        0.80200000000000       14.65100000000000
H           34.36899999999999        2.24200000000000       15.59400000000000
H           35.36700000000000        0.72000000000000       15.57600000000000
C           37.82500000000000        0.94000000000000       14.07300000000000
H           37.89800000000000       -0.11200000000000       13.72200000000000
H           37.60200000000000        0.94200000000000       15.16100000000000
H           38.79300000000000        1.45100000000000       13.88300000000000
O           36.06500000000000        5.80500000000000       11.46700000000000
H           35.29199999999999        6.25600000000000       11.80500000000000
H           36.91200000000000        6.01100000000000       11.64100000000000
C           32.40300000000000        0.14200000000000        7.46300000000000
H           32.51700000000000       -0.84400000000000        7.96300000000000
H           32.41800000000000       -0.00800000000000        6.36200000000000
H           31.43600000000000        0.59200000000000        7.77200000000000
N           34.86600000000000        0.74200000000000        7.62400000000000
H           35.18099999999999       -0.03700000000000        7.08200000000000
C           33.53400000000000        1.04300000000000        7.86700000000000
C           35.64600000000000        1.65100000000000        8.22400000000000
H           36.73399999999999        1.67300000000000        8.17700000000000
N           34.85700000000000        2.48000000000000        8.85700000000000
C           33.52100000000000        2.12500000000000        8.67900000000000
H           32.71300000000000        2.67400000000000        9.14400000000000
78
 energy: -116.026551710567 gnorm: 0.104105698261 xtb: 6.7.1 (edcfbbe)
Fe          35.33475369963743        4.19397581529822       10.18115815362948
N           37.22455595184249        3.91401557542800        9.57351391887611
N           34.99738034558248        5.49899831209979        8.66045997940989
N           33.48839989855144        4.60293886875070       10.87799855248972
N           35.73046028032535        3.05904167440699       11.78241026655886
C           38.17228508184403        3.08307776886656       10.11995535596681
C           39.36509413763106        3.08667340841188        9.30682446697608
C           39.14724598390884        3.94528342182595        8.27905091603611
C           37.79557337104515        4.43734967787015        8.42731939636156
C           35.89124500396029        5.81414203036626        7.67721382685301
C           35.29845772702772        6.73946526625957        6.73578417756700
C           34.03611803431909        6.99468177992838        7.17872103954407
C           33.85258084476207        6.18593715399341        8.37264043744809
C           32.57411956333564        5.46686663564705       10.35828367453402
C           31.45796122556492        5.63754118959415       11.25437155343673
C           31.67946196369744        4.83871433526787       12.34207014961763
C           32.94768320369545        4.18315143241899       12.08764857187020
C           34.82889406880411        2.76128782601794       12.78138199290692
C           35.45503424950170        1.88968261349800       13.75083150558650
C           36.72031111699852        1.67556597606298       13.33598441795684
C           36.88659233944951        2.41669213137231       12.09430401996731
C           38.03946914555033        2.39814094769257       11.31894503286589
H           38.88309130712192        1.81361812884074       11.66673396920973
C           37.16381597319664        5.27134980125370        7.54157341357431
H           37.70966481878693        5.52888428034810        6.64082156338461
C           32.71080498776884        6.16134025785630        9.14446867347079
H           31.86134789006464        6.73677881954780        8.79479973378105
C           33.55878587768725        3.26263227862174       12.90533787150737
H           32.97953084412466        2.90340758759931       13.74856573183535
C           40.09162498082529        4.28649861662358        7.15115027004004
H           39.80480751665554        3.73701704751021        6.24645654063259
H           41.11476568649801        4.00371014869713        7.41694918770542
H           40.06937930941419        5.35784433362025        6.92609858531174
C           40.62251495555488        2.25957534950021        9.54924444387643
H           40.36787051945761        1.30335348329182       10.01558822755069
H           41.31790093205587        2.79353765821847       10.20676154786736
H           41.12540007886440        2.05449914529528        8.59882204659736
C           36.01169037595668        7.24786632934937        5.49540640574602
H           36.46345808944262        6.41176828852245        4.94885317651778
H           36.81015693897386        7.94677671450671        5.76933402419279
H           35.30582547030321        7.75340303037850        4.82980719582391
C           33.00969461913124        7.89730253480962        6.59398756025045
H           31.98810235706619        7.52758210749115        6.50802083766008
C           33.26826517937618        9.13235005727288        6.17619489384745
H           34.26301732693902        9.55477760069044        6.25694962986721
H           32.48954163761888        9.75989592566488        5.75181194187479
C           30.33580828116545        6.59939547037157       10.92611215133121
H           29.84819862103481        6.30174815315957        9.99163575944616
H           30.72985632095424        7.61462471465224       10.80445281945923
H           29.58441183058072        6.60646086621312       11.71497148209158
C           30.87478310048445        4.58387662759422       13.58350664781108
H           31.22311139605729        3.78398048982556       14.23768392842173
C           29.77023159888076        5.22500188788422       13.97570011471488
H           29.35037170802914        6.03718246687450       13.39939878365618
H           29.24957875476418        4.95567557458805       14.89061172100688
C           34.71572393019814        1.37971107149352       14.96735932827586
H           33.83434654535378        0.80741482343287       14.65669200348990
H           34.37993216271671        2.22263031642472       15.58204701525171
H           35.35750224748960        0.73098993199815       15.56951191287369
C           37.82005260054272        0.94163333135685       14.06578248867570
H           37.89852231443333       -0.09778417835390       13.72500618519712
H           37.61066928406873        0.93947179507244       15.13967728865137
H           38.77803388666229        1.43965088248547       13.89168220175206
O           36.04257770893721        5.82007290548612       11.45396719819853
H           35.29555878090584        6.28291712889693       11.82778718872366
H           36.93449742701230        6.03397115926018       11.65888199518630
C           32.41024346219431        0.13835166323613        7.45885679102426
H           32.50854974217341       -0.83726047315481        7.94876060021334
H           32.41109170008666       -0.01131448627876        6.37366852680981
H           31.45874332843281        0.58401477992633        7.76085777854734
N           34.85240102194670        0.73737951669056        7.61826713710569
H           35.17545243816335       -0.04103714633197        7.06948182561548
C           33.53297492983796        1.02324702625602        7.88279920707805
C           35.61794259069673        1.66159630613229        8.23735930629790
H           36.69556471145811        1.68235357994765        8.18683376179010
N           34.85083092081052        2.50288403197739        8.88566951899677
C           33.54170500518209        2.12433829171594        8.68264171217096
H           32.73699673882591        2.67382812457843        9.13272674155135
78
 energy: -116.040859690424 gnorm: 0.025899814736 xtb: 6.7.1 (edcfbbe)
Fe          35.35224246117107        4.19588273726613       10.17318441808709
N           37.24063423787840        3.91672612662224        9.56897337062542
N           35.00243445157357        5.48636640134807        8.64927956836037
N           33.48537109236323        4.60739223869909       10.88989457837208
N           35.71491474959201        3.03409482522722       11.76576874548628
C           38.17710163150081        3.09811823575938       10.12340665180458
C           39.37500144354601        3.07997530670623        9.30906763612841
C           39.14575058609488        3.93125540729760        8.26896053105274
C           37.79636680479962        4.42745628535593        8.43355381833126
C           35.88208560423016        5.79218405537379        7.66174235900218
C           35.30244100950343        6.73566071080753        6.72949938886275
C           34.03011192837175        6.98444836638803        7.17191614623707
C           33.86002298389704        6.17601015121192        8.37361824862369
C           32.57945160477684        5.47684869139596       10.36288090565208
C           31.44727285644964        5.64303882906570       11.24515589472513
C           31.66677027514688        4.82935606628074       12.33693648985686
C           32.94401151290683        4.18118684350072       12.07127391740162
C           34.83341896321131        2.74759155300333       12.76491389263058
C           35.44487409821492        1.88514875413213       13.75139375870907
C           36.72999799794056        1.68644254923364       13.34639006766352
C           36.87163106771741        2.39903177853600       12.08574765930192
C           38.02345946834198        2.40184429777992       11.31339458235357
H           38.86490114304757        1.82069975090994       11.66165884698107
C           37.16380586322410        5.27416894512477        7.54071638837021
H           37.72231432271504        5.55518220037592        6.65849969969829
C           32.72020873924550        6.15826405553808        9.15616007812755
H           31.88011451499299        6.74535092529250        8.81437012348954
C           33.55578827838146        3.25685667260620       12.89968196874701
H           32.99216043906859        2.91794456637563       13.75735820508720
C           40.07697469348543        4.27993846662627        7.15611870754319
H           39.80268673924575        3.74450982621769        6.24641427509350
H           41.09680643025402        4.00913513649400        7.41605728490595
H           40.05459781324354        5.34490516902039        6.93989863603455
C           40.60220147403068        2.26897485440991        9.55447417821899
H           40.35720262413119        1.31776008975453       10.01835654414361
H           41.29877388509738        2.79523830036512       10.20633364997322
H           41.11141630205642        2.06405349367821        8.61544995812920
C           35.99598736289148        7.24366182742550        5.51214498958272
H           36.44893109232718        6.41893261163295        4.96280988250639
H           36.79075942215455        7.94001957439932        5.77779968799468
H           35.29798161402960        7.75213015385123        4.85316943962210
C           33.03180009131324        7.88047963017101        6.60694920597223
H           32.01754250069983        7.50164573232544        6.54091540966580
C           33.28013097497219        9.11331293558886        6.18019607461687
H           34.25980195701715        9.55084874119256        6.25417711812467
H           32.50840546822825        9.73837758636363        5.76059126337381
C           30.33989115212408        6.58734231783731       10.92327933584698
H           29.85829552074607        6.30076660245523        9.99007631724265
H           30.72975011150090        7.59756786653322       10.80575398323898
H           29.58516988174532        6.60484237537628       11.69572639296225
C           30.88486565397453        4.59138049819036       13.53575176284716
H           31.25421414724725        3.79771317064851       14.17702401302504
C           29.79059402444798        5.22135472014380       13.95443308375925
H           29.34530947521295        6.03952917646198       13.42073521871147
H           29.28795241895092        4.94900057363934       14.86876465620113
C           34.72906693604117        1.38096415147425       14.95805394754364
H           33.85141175168709        0.80938689560204       14.65973200129306
H           34.39234402418856        2.21159134721290       15.57749075313671
H           35.36513064992049        0.73872864178106       15.55828291304747
C           37.81340137696241        0.94822641055182       14.05725437267016
H           37.89015113914648       -0.08310991521118       13.71463252538518
H           37.61452610508663        0.93409251117157       15.12591828367650
H           38.77239586006390        1.43231064902250       13.89517260284370
O           36.02717953876459        5.86610620898350       11.40676706643604
H           35.31676839998242        6.31698212701164       11.87671512059291
H           36.92964823534073        6.04322565219251       11.68887827485649
C           32.41299918339269        0.13692002418278        7.45801942351346
H           32.49866568205577       -0.83879116156117        7.93441598724474
H           32.41589329668525       -0.00569220759535        6.38002239276921
H           31.46847770519053        0.58101096049216        7.75159892144902
N           34.84179409972330        0.73946252103672        7.62463962728227
H           35.17432165176742       -0.03382456729800        7.06990036828475
C           33.52838510322660        1.01067060487071        7.90231529490902
C           35.59314936840470        1.67549055980543        8.25210585145163
H           36.66312874214739        1.69790442611276        8.19994505558416
N           34.83688238522224        2.52221473183202        8.90567647871678
C           33.55015834827523        2.12303961394014        8.69418808480781
H           32.74241745569267        2.67114105637216        9.13047564339985
78
 energy: -116.043660715433 gnorm: 0.054468395536 xtb: 6.7.1 (edcfbbe)
Fe          35.36006403098305        4.20165060424519       10.17055233590315
N           37.24105328372389        3.91451526708002        9.56086799990395
N           35.00649087618796        5.46387511622912        8.63613086957319
N           33.48472761931742        4.60717270664369       10.88825981112634
N           35.70592762467780        3.02400477835064       11.75373988071791
C           38.17453740894921        3.10170569879603       10.12162477657661
C           39.37296856118600        3.07758768656827        9.30917224906124
C           39.14187098354243        3.92166886555398        8.26325450379972
C           37.79588895743743        4.42074686183495        8.43004589353022
C           35.88411391666068        5.77394521952750        7.65153356856899
C           35.30683459034955        6.72335728492432        6.72737486915042
C           34.03679165193815        6.97107919582186        7.17393179284849
C           33.86875371506028        6.15958316047170        8.37032223499413
C           32.58528621263199        5.48030488875380       10.35775621463512
C           31.44690902193603        5.64293091457616       11.22886597000101
C           31.66347178982435        4.82334404607060       12.31720751435662
C           32.94254254472169        4.17425919130791       12.05551857115333
C           34.82937095816573        2.74067842059660       12.75150680787487
C           35.44206372361341        1.88718755097381       13.74510694068318
C           36.72915256381941        1.69158917938352       13.34122602221437
C           36.86456959072282        2.39287635278068       12.07757477073298
C           38.01534707230955        2.40360406964559       11.30830636184167
H           38.85612087090647        1.82436110988470       11.65891158569347
C           37.17101478540514        5.27465531771087        7.53682326589619
H           37.74351418711512        5.58233323799770        6.67212961396959
C           32.73283737198064        6.15951344918547        9.15727046159528
H           31.90354583657971        6.76770150370957        8.82641544382487
C           33.55147840252751        3.25295454296491       12.89192587282760
H           32.99990661509991        2.93071622724159       13.76315414321276
C           40.06872614386699        4.27666831658473        7.15327585650672
H           39.79765859158652        3.75014071026732        6.23723864214757
H           41.08984399112138        4.00978689311833        7.41135029736649
H           40.03973079266961        5.34391904037053        6.94831149491699
C           40.59592378699555        2.27123240934644        9.56659214977744
H           40.34812558316897        1.32118327275242       10.03207320778870
H           41.28766365645069        2.80004556492515       10.22238299542599
H           41.11237656086620        2.06543602944488        8.63150263492804
C           35.98924484797239        7.24366409721770        5.51530135322640
H           36.44290687035421        6.42546091022614        4.95702379604721
H           36.78110008342362        7.94258654386757        5.78399616787027
H           35.28282937459616        7.75656022651868        4.86865567683686
C           33.04246150540523        7.86517108045674        6.61954483420356
H           32.02788967219808        7.48370556318044        6.57670167390442
C           33.28810629046089        9.09463236748410        6.18153727935201
H           34.26663574818695        9.53673209785710        6.24602233749426
H           32.51457783114496        9.71795805130220        5.76627429080970
C           30.33910539650034        6.58171140274278       10.90655440809251
H           29.86536581707971        6.30003589460711        9.96717279295029
H           30.72773950150946        7.59383743943198       10.79718167612384
H           29.57647633423077        6.59564877237158       11.67193208748455
C           30.89352239935211        4.59113708010698       13.50986695324830
H           31.27040590454057        3.78881624787016       14.13367547584198
C           29.80597920559791        5.21945612687665       13.95296342995532
H           29.34137221904647        6.04431643919968       13.44367977383406
H           29.32119666055175        4.92800034896061       14.86936550549960
C           34.73962193866065        1.38046835700031       14.95522971270685
H           33.86139369470280        0.80388155934730       14.66635815153922
H           34.40480792947510        2.20711646983178       15.58141516220669
H           35.38541032570033        0.74101447795519       15.54859223580346
C           37.81014206303504        0.94829986710812       14.04592404180286
H           37.88247766242382       -0.08016919578141       13.69270399399435
H           37.61452123982622        0.92315600115562       15.11554264010950
H           38.77315727877579        1.42808256165874       13.89063239024763
O           36.02102877680100        5.96280606811735       11.32268798596031
H           35.33682104284571        6.32218703289491       11.95456497267266
H           36.91830633075627        6.03927160899747       11.74621179546557
C           32.41135390704361        0.13858002898487        7.45876457078714
H           32.48685234679586       -0.84528256886396        7.92140878009742
H           32.42848100461754        0.00893840738952        6.37887893425302
H           31.46347226825528        0.58053964974708        7.74335655340115
N           34.83487725954153        0.74949974562899        7.64574650089582
H           35.17509996244362       -0.01548776730787        7.08370302668943
C           33.51973900142125        1.00942134022681        7.92530204110820
C           35.57732526914351        1.69143444606970        8.27434924350471
H           36.64535039048079        1.72209280572264        8.21989445539099
N           34.81755454759043        2.53218066012020        8.93134607025007
C           33.53713979301710        2.12293441772905        8.71735999290758
H           32.72194643039516        2.66728865034858        9.14433961030527
78
 energy: -116.046063419111 gnorm: 0.021785424151 xtb: 6.7.1 (edcfbbe)
Fe          35.36525600800373        4.20640975564548       10.17002357390409
N           37.23866436897267        3.91342569611890        9.55461721661690
N           35.01215285802912        5.44029541329233        8.62601031975730
N           33.48659630144319        4.60652657036615       10.88492201107671
N           35.70032873603021        3.02030272025919       11.74597572745260
C           38.17085974702679        3.10242478950132       10.11918254216260
C           39.36888869683064        3.07630907406227        9.30956358279805
C           39.13889808754584        3.91391720215209        8.26003672704458
C           37.79644449499001        4.41617920715553        8.42571461432679
C           35.89026614261446        5.75820299631621        7.64494681780990
C           35.31253483821774        6.71072968362518        6.72834530661304
C           34.04739584427806        6.95804663510221        7.17987701055831
C           33.87953746820355        6.14288433628875        8.36856516671519
C           32.59239595473247        5.48257180592167       10.35231856163553
C           31.44968622126310        5.64109102532896       11.21282991582757
C           31.66198059774864        4.81720927168543       12.29532228830933
C           32.94245745960018        4.16702923080054       12.04258646345575
C           34.82400498802715        2.73624217223403       12.74148935727406
C           35.44083383697586        1.88827161802908       13.73726035279907
C           36.72550513850404        1.69291611459785       13.33219654946774
C           36.86010543581968        2.38885739496879       12.07040854858879
C           38.00965858991195        2.40343800495159       11.30338259558568
H           38.84985898846367        1.82512755704529       11.65625363489892
C           37.18109864515225        5.27559094004798        7.53384763954362
H           37.76555346643445        5.60825724480747        6.68524150785438
C           32.74764402263455        6.16298163583697        9.15778377486780
H           31.92958322842568        6.79328791909429        8.83765699839255
C           33.54758031581655        3.25006538183310       12.88580658886537
H           33.00565972947998        2.93958802461987       13.76695055090887
C           40.06300048408056        4.27430958523400        7.14939943544245
H           39.79130990440634        3.75601134254245        6.22743229401882
H           41.08613594907965        4.00846929982070        7.40512190551808
H           40.02720181348516        5.34541913478658        6.95621187509925
C           40.59257902609729        2.27100712464996        9.57997013320667
H           40.33884017081925        1.32140212121180       10.04706499461824
H           41.27675417123005        2.80455448730563       10.24254001114080
H           41.11703979361198        2.06468073349032        8.64791865516398
C           35.98576970261682        7.24603565444525        5.51695425253435
H           36.44033376913723        6.43415845083295        4.94814399965293
H           36.77433785316396        7.94883612503569        5.79071639555932
H           35.26768034824364        7.76280961304450        4.88347025259741
C           33.05059529811230        7.85182987868083        6.63402561366100
H           32.03472315452166        7.46902258992176        6.61316507275725
C           33.29553534964575        9.07749783353015        6.18429378008271
H           34.27674599257691        9.51965059871909        6.23577485374569
H           32.51825342303984        9.69953608532953        5.77353609382301
C           30.33754332800551        6.57628896067134       10.88824487880752
H           29.87357280060455        6.29870679623966        9.94051520486728
H           30.72431485875780        7.59211800681017       10.78944973575222
H           29.56639678469940        6.58052284841385       11.64854774961411
C           30.89686344503464        4.58361236463664       13.48779888775136
H           31.27920508917703        3.77294728167283       14.09669097864818
C           29.81693057992905        5.21431760976527       13.95244092162408
H           29.34261415459749        6.05067362478294       13.46598925021767
H           29.35354672381304        4.90706148549750       14.87543440762308
C           34.74899694574497        1.37723472145692       14.95337769977155
H           33.86974751375119        0.79516685305569       14.67241657572726
H           34.41706711415420        2.20152664254731       15.58665674072555
H           35.40736803790676        0.73927807020968       15.53815345664293
C           37.80729364300760        0.94404810746743       14.03283062491469
H           37.87527294814136       -0.08190153252925       13.66612728118406
H           37.61261409352932        0.90730582545000       15.10410525818830
H           38.77396426351241        1.42264551981739       13.88318718078628
O           36.01599906829352        5.95624578855344       11.38002030951872
H           35.35331547131472        6.38402365251730       11.91335958407814
H           36.89630555801831        6.08960271943069       11.74464114156416
C           32.40819731858407        0.14304521559707        7.45842764815933