78
 energy: -116.058080789762 gnorm: 0.000036500278 xtb: 6.7.1 (edcfbbe)
Fe          35.43508838182363        4.28370953226486       10.21115023312333
N           37.27380863647200        3.91713231642439        9.53844696752837
N           35.08364625697782        5.47839398857542        8.65405016671325
N           33.60058385024875        4.68957001378287       10.94141812995395
N           35.79937398076426        3.12470109113962       11.81706805511753
C           38.22486595462543        3.14070057336107       10.11997179056486
C           39.43167077084907        3.12196927536424        9.32102998129845
C           39.18268822821176        3.90472049330077        8.23847392193487
C           37.82840670760455        4.39225926198018        8.39303293767525
C           35.92832580946981        5.73680237224690        7.62159367907277
C           35.32501604601392        6.64363212058060        6.67725946859118
C           34.08214292845536        6.93981494310494        7.16849800742052
C           33.95261430823441        6.18641759529785        8.40264626239786
C           32.66039066898642        5.49803193054598       10.37579915499240
C           31.45955013240658        5.51978794850537       11.16878888802559
C           31.68864394264664        4.69254119215990       12.23751085272121
C           33.03186668774919        4.17734143807909       12.06414798952868
C           34.93512955549515        2.82652895413515       12.82562546193630
C           35.54800720341582        1.92280364257221       13.77233070091233
C           36.80353645236915        1.67639478785632       13.30864288284755
C           36.94003891443804        2.43229450025772       12.08503915855425
C           38.08115524802363        2.44150889593600       11.30428002160487
H           38.92129607584722        1.85482947836601       11.64354752858310
C           37.20937741027389        5.23104881416010        7.48957737777812
H           37.77746930515313        5.53257705147630        6.62288139723583
C           32.82624430526938        6.21335925315170        9.20182660366491
H           32.00616995750290        6.84003499067891        8.88622488303968
C           33.64891630554743        3.31588747623441       12.95250890595354
H           33.08253052755886        2.99759502472106       13.81402862262368
C           40.07274237235210        4.24326299581463        7.09233287760837
H           39.62418733964137        3.92504514714016        6.15089602702172
H           41.03858963566127        3.75437761622395        7.19407257908932
H           40.23673267597276        5.31971125648140        7.04185437969685
C           40.66782446311706        2.37111904345696        9.68173716347047
H           40.46144137683911        1.30321785234200        9.76150530937532
H           41.05631385508630        2.71240963171550       10.64144205477842
H           41.44010016489527        2.51450170386621        8.93012550544738
C           35.94547592923644        7.08795731452009        5.39905243210316
H           36.49982695114404        6.27285101159613        4.93621789090379
H           36.63841289892103        7.91327348251459        5.57014966588391
H           35.17578098382422        7.42359198383711        4.70690190552445
C           33.05486981983630        7.78903956902105        6.60738918466634
H           32.03356420643257        7.47383276721768        6.78911755379248
C           33.26872874816901        8.90113246039871        5.91158825233828
H           34.25782160114585        9.28894436936328        5.74208146880829
H           32.45353221543408        9.47985082869576        5.50970326753079
C           30.21251327036127        6.25337565022505       10.81732885453868
H           30.03201592404100        6.21571984578348        9.74403957882202
H           30.28142352159487        7.30240205869340       11.11036138971636
H           29.36137188108945        5.80891488980461       11.32915512910872
C           30.80659047269533        4.34319840583365       13.32895546103187
H           30.91106767571055        3.33382369824236       13.71007506933276
C           29.91102223564238        5.15182758539794       13.88622522547524
H           29.79663322507746        6.17750746772530       13.58165481437536
H           29.27528053402612        4.81946158235086       14.69011038942282
C           34.87491790573161        1.40331489987348       14.99624306085951
H           33.97846315175747        0.84205652710572       14.73137368900501
H           34.57791339982263        2.22436910777250       15.64927664339198
H           35.53804163468205        0.74598406796015       15.55330755931841
C           37.87395662149100        0.81736782344290       13.88995008574205
H           38.15173283985225        0.02483437564147       13.19437614683849
H           37.54013888901225        0.35719968525350       14.81666024751300
H           38.76594301071810        1.40735651529328       14.10190738143614
O           36.17337641239744        6.04299804619979       11.48296497051490
H           35.33329775668853        6.44120181862152       11.73561559410825
H           36.50003501857258        5.56002535230198       12.24990920312114
C           32.33994359404263        0.80615115019234        7.14553198193081
H           31.85502109009801       -0.02418991208586        7.65871425205238
H           32.75553031611321        0.43252365892265        6.20974867138879
H           31.59191164625408        1.55899296831817        6.91792721486539
N           34.47969036596835        0.68216488086685        8.44076036817759
H           34.65795072196894       -0.28993986433439        8.24888019323040
C           33.40270384470104        1.40207232783023        7.99401065966414
C           35.24922316287166        1.51217121324667        9.18051674799855
H           36.16119639554827        1.21957155431349        9.65867025096962
N           34.72520212993179        2.71285995478499        9.22913335941846
C           33.57654569379522        2.66012155816592        8.49539520945485
H           32.95584586757751        3.52405311577973        8.37865304773151
