87
 energy: -128.334124316779 gnorm: 0.268712326633 xtb: 6.7.1 (edcfbbe)
Fe         -36.81900000000000       15.82100000000000        2.96800000000000
N          -38.72399999999999       16.70500000000000        3.10900000000000
N          -37.86400000000000       14.11800000000000        2.22800000000000
N          -35.18600000000000       14.91100000000000        2.53700000000000
N          -35.88600000000000       17.49600000000000        3.41200000000000
C          -38.91199999999999       18.06500000000000        3.43300000000000
C          -40.30300000000000       18.43300000000000        3.12400000000000
C          -40.89899999999999       17.31000000000000        2.62900000000000
C          -39.93500000000000       16.25200000000000        2.61100000000000
C          -39.26300000000000       13.90900000000000        2.06900000000000
C          -39.54800000000000       12.51100000000000        1.78600000000000
C          -38.32999999999999       11.91000000000000        1.71700000000000
C          -37.26700000000000       12.86400000000000        1.99200000000000
C          -34.96700000000000       13.58100000000000        2.17500000000000
C          -33.53300000000000       13.33600000000000        2.06800000000000
C          -32.91100000000000       14.49100000000000        2.34100000000000
C          -33.90800000000000       15.50100000000000        2.62900000000000
C          -34.52200000000000       17.64600000000000        3.48000000000000
C          -34.23600000000000       18.94300000000000        4.08400000000000
C          -35.61500000000000       19.60900000000000        4.36900000000000
C          -36.57800000000000       18.64700000000000        3.92200000000000
C          -37.94100000000000       18.90900000000000        3.98300000000000
H          -38.27100000000000       19.81800000000000        4.48500000000000
C          -40.20800000000000       14.94500000000000        2.18300000000000
H          -41.23900000000000       14.71200000000000        1.91600000000000
C          -35.93100000000000       12.59000000000000        1.96200000000000
H          -35.60499999999999       11.56900000000000        1.76600000000000
C          -33.57000000000000       16.76900000000000        3.01600000000000
H          -32.53000000000000       17.08900000000000        2.95600000000000
C          -42.31000000000000       17.01200000000000        2.10100000000000
H          -42.92900000000000       17.93300000000000        2.15600000000000
H          -42.78400000000000       16.22200000000000        2.72200000000000
H          -42.25200000000000       16.68000000000000        1.04200000000000
C          -40.84000000000000       19.88800000000000        3.35500000000000
H          -40.14300000000000       20.61800000000000        2.89100000000000
H          -40.90600000000000       20.09500000000000        4.44400000000000
H          -41.84099999999999       19.99700000000000        2.88600000000000
C          -40.96600000000000       11.81100000000000        1.54000000000000
H          -41.21100000000000       11.83900000000000        0.45700000000000
H          -41.75500000000000       12.35400000000000        2.10200000000000
H          -40.92400000000000       10.75200000000000        1.87200000000000
C          -38.04700000000000       10.41400000000000        1.40800000000000
H          -38.47099999999999        9.93900000000000        0.51100000000000
C          -37.27999999999999        9.67100000000000        2.22700000000000
H          -36.83900000000000       10.11300000000000        3.13300000000000
H          -37.08500000000000        8.61200000000000        2.00100000000000
C          -32.92900000000000       11.94400000000000        1.65600000000000
H          -33.54400000000000       11.49800000000000        0.84500000000000
H          -32.93500000000000       11.25900000000000        2.53000000000000
H          -31.89000000000000       12.08000000000000        1.28700000000000
C          -31.41500000000000       14.86600000000000        2.37200000000000
H          -31.14200000000000       15.93000000000000        2.41600000000000
C          -30.39300000000000       13.98200000000000        2.34900000000000
H          -30.59100000000000       12.90100000000000        2.30500000000000
H          -29.35100000000000       14.33300000000000        2.37400000000000
C          -32.84700000000000       19.54000000000000        4.37400000000000
H          -32.34900000000000       19.80400000000000        3.41600000000000
H          -32.22300000000000       18.79400000000000        4.91100000000000
H          -32.95400000000000       20.45900000000000        4.98900000000000
C          -36.00000000000000       20.96300000000000        4.96600000000000
H          -35.08000000000000       21.53000000000000        5.22400000000000
H          -36.59900000000000       20.81000000000000        5.88900000000000
H          -36.58700000000000       21.54700000000000        4.22500000000000
C          -36.52799999999999       15.59400000000000        8.64500000000000
H          -35.59600000000000       15.18400000000000        9.08900000000000
H          -37.40200000000000       15.12000000000000        9.14100000000000
H          -36.55000000000000       16.69300000000000        8.80600000000000
N          -36.52700000000000       14.00700000000000        6.68400000000000
H          -36.47100000000000       13.18200000000000        7.24600000000000
C          -36.55600000000000       15.29700000000000        7.17700000000000
C          -36.58500000000000       14.05200000000000        5.37200000000000
H          -36.57500000000000       13.17500000000000        4.72500000000000
N          -36.65599999999999       15.31900000000000        4.99300000000000
C          -36.60899999999999       16.12000000000000        6.10200000000000
H          -36.61800000000000       17.20000000000000        6.02300000000000
C          -36.60699999999999       17.19800000000000       -2.58500000000000
H          -35.73400000000000       17.86000000000000       -2.76600000000000
H          -37.50800000000000       17.65500000000000       -3.04800000000000
H          -36.40700000000000       16.20500000000000       -3.04200000000000
N          -37.07600000000000       18.11300000000000       -0.29200000000000
H          -37.18599999999999       19.05600000000000       -0.60700000000000
C          -36.81900000000000       17.04300000000000       -1.11300000000000
C          -37.15200000000000       17.69900000000000        0.95700000000000
H          -37.35200000000000       18.34700000000000        1.81000000000000
N          -36.94800000000000       16.39900000000000        0.98100000000000
C          -36.70800000000000       15.96700000000000       -0.30100000000000
H          -36.48000000000000       14.93000000000000       -0.51300000000000
87
 energy: -128.411645783368 gnorm: 0.130082318781 xtb: 6.7.1 (edcfbbe)
Fe         -36.84178917368565       15.79336946346345        2.93447813991713
N          -38.71877689893883       16.71749290632430        3.10428882046988
N          -37.88807692719458       14.08184815689399        2.25795837012467
N          -35.16115290936257       14.90334103483916        2.55329689507169
N          -35.91256082581917       17.48605746025472        3.42540967298535
C          -38.92082502355909       18.04634214227972        3.44324484486192
C          -40.30041981928071       18.43060900784476        3.13479905624010
C          -40.89954333646865       17.30904045517197        2.62970889578872
C          -39.91593426517809       16.25140566872501        2.61923305604725
C          -39.25644077167372       13.90123055354803        2.08595827088016
C          -39.54754844398708       12.50785705052941        1.76700334736911
C          -38.33124526445985       11.88237102067568        1.70953684501057
C          -37.29360999810041       12.86167728500046        1.99828329790095
C          -34.95050049756675       13.58911735889472        2.18662450390809
C          -33.52145212172618       13.32741243928030        2.06026560114045
C          -32.88010642476024       14.49925394574376        2.32994789945779
C          -33.90461720364410       15.49055264400841        2.63597592584379
C          -34.56293860261633       17.68829235190132        3.49300359643720
C          -34.28022423103649       18.98010980687782        4.09083699470475
C          -35.57133561763786       19.58229733942832        4.36484575413826
C          -36.55140504321470       18.62768181255009        3.93391081481547
C          -37.93116036230398       18.87983374517404        3.97695361047617
H          -38.25842580621024       19.80260018710750        4.45253729326599
C          -40.18341676486988       14.94303369009803        2.19625673019930
H          -41.21204702984534       14.71349990136064        1.92428870483946
C          -35.93239419151661       12.61410314083836        1.96977752897011
H          -35.60706447844422       11.59804479282245        1.76096275921852
C          -33.60418500321146       16.78192412840517        3.02841105605419
H          -32.56633217543106       17.09770559073897        2.97977746505165
C          -42.29757247323018       17.03319062229515        2.11004233110190
H          -42.92502013662877       17.92862566625816        2.15675075783813
H          -42.77271840928311       16.24480061356390        2.71009373767774
H          -42.25221636280141       16.69173186479569        1.06652774468023
C          -40.83125405931491       19.85425449824368        3.34801966978254
H          -40.15344468705842       20.59265590871623        2.89802360833519
H          -40.90523127400603       20.08078547838541        4.42018034823818
H          -41.82152737186974       19.98447047582142        2.89557781552533
C          -40.92815912413229       11.83729741964455        1.54441858734042
H          -41.19396325293018       11.84809228199945        0.47857140979753
H          -41.72513867023947       12.35122945317749        2.09534248680156
H          -40.90714352305525       10.78792993028617        1.86843507528723
C          -38.04644695099228       10.43047266115140        1.42561302653351
H          -38.47547314511143        9.97192373772083        0.53238383937465
C          -37.28576234293876        9.68348166442981        2.22273849800448
H          -36.84689701372447       10.09980163484162        3.12380254811462
H          -37.08860616310645        8.63579686923476        2.00453708214710
C          -32.94475437199770       11.96596709577462        1.65966836901221
H          -33.54181006538175       11.51161302627143        0.86077955086242
H          -32.93636361167729       11.27873982039451        2.51611599947434
H          -31.92214415858950       12.07800057818740        1.28731194886396
C          -31.42500193607214       14.84404753656931        2.36313419104360
H          -31.16505165912249       15.90190500895871        2.41026510572587
C          -30.40593553335381       13.98334483161453        2.34992907497439
H          -30.57227965624087       12.91549567295955        2.31941306736461
H          -29.37513904733675       14.32816425431567        2.37280410383642
C          -32.88883856759659       19.53552584808644        4.36714237302337
H          -32.36855341821096       19.79767100731788        3.43249890540745
H          -32.25393446035168       18.80865321659332        4.89744637051100
H          -32.95556438534026       20.44253784730965        4.97882698945803
C          -35.96599884764962       20.92894749949655        4.95272002956572
H          -35.08431407822010       21.52131073941613        5.21974584182848
H          -36.57561262567659       20.80480817932670        5.86261364376099
H          -36.56330958378674       21.52085139900251        4.23955854485925
C          -36.52398466473742       15.59087483245390        8.64391620219331
H          -35.60684976596273       15.19038946909173        9.09275599426788
H          -37.38738619356784       15.13042802138223        9.14078482327801
H          -36.55109410856785       16.67305596168925        8.80369231537681
N          -36.52793109702564       14.00955223412208        6.69900720966485
H          -36.47097509972349       13.17939093580328        7.26173558162508
C          -36.55303489072779       15.29493563699805        7.18363788554139
C          -36.58892746834019       14.06229696186574        5.36520408100370
H          -36.57890198022409       13.19417531535984        4.72536097220573
N          -36.65679359826870       15.31538928411885        4.96621325760965
C          -36.61712952698596       16.10254572934666        6.08718388249116
H          -36.62465382516976       17.17628744967278        6.01486054160177
C          -36.60601868966184       17.19923204930045       -2.58939334054827
H          -35.74465611250350       17.85250129365700       -2.77503192095803
H          -37.49404448884989       17.64712037798665       -3.05212868913304
H          -36.41247477179994       16.22110972612960       -3.03881861565198
N          -37.07760117908929       18.12358386057518       -0.32016508706229
H          -37.18995888102282       19.06985700533464       -0.63239961519878
C          -36.80780635882503       17.04801881124757       -1.12488357800018
C          -37.15118714687576       17.70089904121162        0.94079474954209
H          -37.35235047293573       18.34227203476282        1.78022816874237
N          -36.93328676446507       16.40785927358564        0.98849715139100
C          -36.70921224422395       15.97657233632669       -0.28950786536081
H          -36.49003049167386       14.94442293503677       -0.50015253196265
87
 energy: -128.439759741194 gnorm: 0.051372073105 xtb: 6.7.1 (edcfbbe)
Fe         -36.86486891107312       15.78054521694526        2.90823880491188
N          -38.71367638684799       16.72006304575878        3.10311696738834
N          -37.89774898607004       14.05871415992839        2.28209762921765
N          -35.13911369420843       14.90077434848104        2.56190567673473
N          -35.93319474760835       17.48644946026858        3.43885637696792
C          -38.91887948168842       18.02257429956389        3.44722257081182
C          -40.29130635040219       18.41965273630423        3.14782040720886
C          -40.89532897337261       17.30272068605090        2.63345230106802
C          -39.89640617590757       16.24533669686291        2.62669851186409
C          -39.23922597675865       13.89644887560159        2.10730687124097
C          -39.54013742766519       12.50895443942657        1.76021752361278
C          -38.32629596699880       11.86512333263653        1.71047506117599
C          -37.31097587304469       12.86484051835947        2.02246332506667
C          -34.93866350630628       13.59949550749093        2.19810579087752
C          -33.51759751618081       13.32400333290484        2.05712207578166
C          -32.86151637122131       14.50626111544297        2.32635909830938
C          -33.90712810958066       15.48232545282888        2.64300829934125
C          -34.59604251466485       17.71171755122685        3.50625017590346
C          -34.32796562470219       19.00898332942429        4.09707286000667
C          -35.53108426985856       19.56084064803638        4.35972324552269
C          -36.53471034115070       18.60771951857281        3.94133503596908
C          -37.91925928712787       18.85055592538082        3.96693516081367
H          -38.24405909354272       19.78887413453509        4.40913144728316
C          -40.15809557038336       14.93849565743982        2.21129796056215
H          -41.18311405124597       14.71188427667976        1.93540920716475
C          -35.93458229706722       12.64231346901394        1.98543235894451
H          -35.61256661003471       11.63310328515644        1.75185557198263
C          -33.64204737203985       16.78767703421306        3.04557706975168
H          -32.60666924494961       17.10393397881913        3.01316907217765
C          -42.28233513050051       17.05391037790583        2.12115551263322
H          -42.90868845391074       17.93874156983994        2.16532403641978
H          -42.76174920701192       16.26792969568413        2.70848544827280
H          -42.24641055570813       16.70864290297685        1.08576513468582
C          -40.81964007637902       19.81381377469602        3.34557792925208
H          -40.15349535846213       20.55591665557947        2.89943586507153
H          -40.90059946005007       20.05643306434113        4.40764040395614
H          -41.80388368584122       19.94916287916915        2.89993867202164
C          -40.88458669510846       11.86745386843065        1.54674210351612
H          -41.16722251305563       11.86800794128751        0.49052808138066
H          -41.68177370720486       12.36793162658364        2.09538800378395
H          -40.87340308553647       10.82372834443987        1.86887567948790
C          -38.04887811615063       10.45683098910881        1.44052193852874
H          -38.49312973129256       10.01241677754002        0.55332103874793
C          -37.29087384687029        9.69731581772574        2.22055676848844
H          -36.84926950875354       10.08915233037361        3.12137387946638
H          -37.09301660386706        8.65864174330594        2.00373624282823
C          -32.95941342929803       11.99288521484675        1.66120921794445
H          -33.55416915882374       11.53140120364243        0.87469366696679
H          -32.94219380081275       11.30446915943896        2.50910434838455
H          -31.94513810959706       12.08768657240804        1.28538294917574
C          -31.44802253401664       14.82554123850093        2.35405713786566
H          -31.20157565682327       15.88143225885657        2.39955564515512
C          -30.42069652226509       13.98037042054520        2.35061344023853
H          -30.55314154781535       12.91643183272577        2.33444829539617
H          -29.39909262843718       14.32670259183422        2.37245528699550
C          -32.93858320766974       19.53591036192417        4.36019955276450
H          -32.41020334174333       19.78702698168795        3.43487480005191
H          -32.31065098708869       18.80816443498907        4.88381905006327
H          -32.97400250482882       20.43617635850950        4.97158101656889
C          -35.92892742254865       20.89733871290932        4.94246555752543
H          -35.06698642728186       21.50081838132846        5.21202265272142
H          -36.54513273341296       20.77785825392777        5.84071492474219
H          -36.53059272664794       21.48142758819091        4.23628493582379
C          -36.51963877935871       15.59073732565104        8.63870276723666
H          -35.61231829157443       15.19510125440005        9.09252474167506
H          -37.37614287257026       15.13789716899469        9.13775398970871
H          -36.55063970659968       16.66284947539970        8.79851283500178
N          -36.52826113532768       14.00667062818987        6.70865999378609
H          -36.46841908551173       13.17409354667189        7.27133612347322
C          -36.55076349962535       15.29142839100581        7.18355788043345
C          -36.59803973598471       14.06330208600532        5.36089366071559
H          -36.58580861076101       13.20202931458535        4.72543397547455
N          -36.67517518197354       15.30257661211862        4.94763692419227
C          -36.62936692173029       16.08306623822633        6.07142383317641
H          -36.63915662555270       17.15273099772866        6.00732001314249
C          -36.60437284077543       17.19476439010456       -2.59716847265779
H          -35.75182278662135       17.84520143535731       -2.78940468215180
H          -37.48539733470829       17.63814947222284       -3.05810720268353
H          -36.41564096061925       16.22607447980880       -3.04298389568139
N          -37.07892315656267       18.13455762768197       -0.35102826325103
H          -37.19461508521874       19.08215518616054       -0.66373211630341
C          -36.79708710388206       17.04949343753051       -1.13541385800587
C          -37.14868781256528       17.71375208127726        0.92154177503863
H          -37.35521411868379       18.35553054004372        1.74703462205729
N          -36.92406538415590       16.42575505833976        0.99872746219686
C          -36.70698768661794       15.98937374930506       -0.27419274661524
H          -36.49671607650265       14.95965554458243       -0.48453503454620
87
 energy: -128.449028406683 gnorm: 0.022715952795 xtb: 6.7.1 (edcfbbe)
Fe         -36.87422717277617       15.78213302120201        2.89840393640400
N          -38.70536305906806       16.70457964999342        3.10915170008456
N          -37.88860630379158       14.05739602723390        2.32341972672734
N          -35.13536881176913       14.90227186929335        2.57328411494079
N          -35.94480364335304       17.47960888263470        3.45571410319510
C          -38.91349921911453       18.00007349140008        3.45908208556919
C          -40.28066052193707       18.39661576649103        3.16195161606037
C          -40.88604354971437       17.28811967849945        2.64533480352953
C          -39.88759526897783       16.23201605787621        2.63829059077701
C          -39.22401436521079       13.89827159616703        2.13154239351370
C          -39.52033960756618       12.52109543143291        1.76774085432497
C          -38.31199963986911       11.87406594929240        1.72740158464533
C          -37.30229157599994       12.87018332617051        2.05225485805965
C          -34.93640660538354       13.60470839287798        2.20951364485511
C          -33.52307312114892       13.33000709327407        2.05860605496594
C          -32.86512553498164       14.50899489989584        2.32885061129578
C          -33.91017808204462       15.48121355855566        2.65264405555395
C          -34.60830688298897       17.69918389855929        3.51415280689252
C          -34.33264891371700       19.00118843269805        4.09079357847400
C          -35.54892998523722       19.55488729404928        4.37079139551003
C          -36.54925433536786       18.59355537907185        3.95409930883450
C          -37.92331613771712       18.83647273473751        3.96935989888483
H          -38.24567324504731       19.79358267386683        4.36861556946684
C          -40.14753908611075       14.93087602704873        2.22776266396095
H          -41.16746298691374       14.70285660503478        1.94680088255879
C          -35.92998911882074       12.65363573620212        1.99916304547043
H          -35.61030162104413       11.65257917617082        1.73802662240790
C          -33.65791576985479       16.78457137310084        3.06205577143102
H          -32.62687889903373       17.10919743140322        3.05627848212652
C          -42.27304917980798       17.06962870278304        2.13307141479243
H          -42.88269696081847       17.96675542081760        2.18326188726260
H          -42.76372632807675       16.28963228137264        2.71730306089728
H          -42.24083694039619       16.73099783073424        1.09634608353720
C          -40.81155989464143       19.78177415460209        3.35036291386771
H          -40.14499997153349       20.51768414171297        2.89699275524891
H          -40.89529796294281       20.02675104026561        4.41075896009436
H          -41.79495309032380       19.89938666619623        2.89999011207959
C          -40.85822305908390       11.89388784611783        1.54767284444695
H          -41.13493020381389       11.90223383755985        0.49093929583875
H          -41.64342107896619       12.40285126413426        2.10323790982823
H          -40.83822793223199       10.85221651125970        1.87086143338131
C          -38.04915291698599       10.47222244076712        1.45275872865814
H          -38.51823069081109       10.04213858099425        0.57190723361606
C          -37.28891965885457        9.70206142469442        2.22137803025273
H          -36.84156093850079       10.08155660072155        3.12542662985731
H          -37.09945906288026        8.66576686444995        1.99547486576209
C          -32.97512051605450       12.00369810894915        1.65478799890729
H          -33.58894273264124       11.54539240342570        0.88109765541655
H          -32.94656556016174       11.32178547249508        2.50767347198990
H          -31.96842580181468       12.09775468196661        1.26014325577295
C          -31.45662191866812       14.81866221989431        2.34754216852150
H          -31.22058382036409       15.87584801975611        2.37714065957671
C          -30.42226145564921       13.97894729988525        2.35640056409519
H          -30.53377806606238       12.91001859241421        2.37437007862060
H          -29.40689454211298       14.33858346083612        2.36940412904033
C          -32.96005763003509       19.53718670526886        4.35115266854237
H          -32.44624785589130       19.78042538510701        3.41921885861261
H          -32.35287138135661       18.79826271389312        4.87661562633464
H          -33.00083861419805       20.43654547638749        4.96181918635856
C          -35.91209489695508       20.88908968957456        4.94637547702796
H          -35.03615644254357       21.47557839428164        5.20510452487186
H          -36.52096503053106       20.76156039958854        5.84336557637324
H          -36.50419920506635       21.46086668567989        4.22830382523798
C          -36.51482631125923       15.59049596958648        8.62812468963340
H          -35.60683327421469       15.19933529326545        9.08579003172346
H          -37.36876238702548       15.14121314778715        9.13535251064884
H          -36.54803488126179       16.66339019810772        8.78367087605958
N          -36.53064714843267       13.99436260364160        6.70725952530494
H          -36.46260739147629       13.16498501092185        7.27404766334231
C          -36.55508688783046       15.28232473947068        7.17431010835494
C          -36.61530490213939       14.04590377303579        5.35836628823793
H          -36.60225929383633       13.18472445548310        4.72392869334189
N          -36.70224294722757       15.28133503414850        4.93860188167332
C          -36.65343752796836       16.06535590182074        6.05771702737790
H          -36.67306806655350       17.13345251388478        5.99260123304088
C          -36.60028983042191       17.18140423959334       -2.61586922008395
H          -35.75063086401619       17.83299961106205       -2.82032900488105
H          -37.48359754521027       17.62146539460295       -3.07655426534597
H          -36.41431105923834       16.21001561128636       -3.05711299935499
N          -37.07710539828604       18.15097042639491       -0.38898198732337
H          -37.19923077882348       19.09344916406421       -0.71729646475284
C          -36.78751603134022       17.05210811914592       -1.15120291980855
C          -37.14777093585414       17.75079246009890        0.89142788094761
H          -37.36647805590518       18.40645529671611        1.70206244398833
N          -36.91841543856948       16.46377080950791        0.99740559988724
C          -36.69858924886439       16.00835295421525       -0.26847303010457
H          -36.49626938891045       14.97464449933888       -0.46419320715055
87
 energy: -128.454652742689 gnorm: 0.016245587090 xtb: 6.7.1 (edcfbbe)
Fe         -36.89019358335454       15.78122109199404        2.89838191200915
N          -38.69112059742471       16.69015289936648        3.10743439802493
N          -37.86878950127819       14.07290779769845        2.34283160642279
N          -35.13553316276656       14.90821213452475        2.58129757129218
N          -35.96298981608222       17.46797762384784        3.46231666222909
C          -38.90198126224495       17.98190529393008        3.46254582891293
C          -40.26850100849416       18.37167484188027        3.17958368927139
C          -40.87600283554909       17.27080664890701        2.66168295810609
C          -39.87820253191313       16.21876542782319        2.64813164890318
C          -39.20267292225435       13.90645442980580        2.15228912676820
C          -39.49333641920116       12.53978649912439        1.78218373980262
C          -38.29110656985252       11.88872042046362        1.75270147655113
C          -37.28637100737153       12.88095474091952        2.08283248046648
C          -34.93384200798604       13.61252697054805        2.21613952042288
C          -33.52809871255810       13.33911215672556        2.06159444906418
C          -32.87004401820283       14.51326308427147        2.33748088291523
C          -33.91249891831716       15.48256686293428        2.66409257815591
C          -34.62668849627443       17.68306336408216        3.51834029888221
C          -34.34986951933978       18.98489899561615        4.09037839992995
C          -35.56187004479324       19.54509791711220        4.37077069718800
C          -36.56194896926998       18.58303947201652        3.95545355107424
C          -37.92485776968298       18.83257592066415        3.96106556761723
H          -38.24668018176121       19.79797445104414        4.32981586956773
C          -40.13838090193948       14.92339758101447        2.24347333289246
H          -41.15428146003636       14.68948387480641        1.96121296888121
C          -35.92203699407203       12.66368040342221        2.01208334969892
H          -35.60734696164787       11.66845556243242        1.73214087677592
C          -33.67141932428762       16.78098861597180        3.08526864445951
H          -32.64366825656507       17.11494716246269        3.11370295030986
C          -42.26463773324568       17.08286928609035        2.15016461039695
H          -42.84674627785130       17.99985985708015        2.21050918264541