72
 energy: -105.980693468595 gnorm: 0.000035989463 xtb: 6.7.1 (edcfbbe)
Fe          -6.09524456759029       24.76926582443697        7.48926210791044
N           -4.39933950899875       23.74959062921079        7.26651452467933
N           -5.71220026099965       24.99991567350883        9.43928743845094
N           -7.84562676170945       25.74317807211654        7.71959810836919
N           -6.52926156115177       24.47236729428797        5.55510157813768
C           -3.89966406452479       23.23622172530849        6.11397482844308
C           -2.63241437627471       22.57891162145528        6.35270104064727
C           -2.38664856416574       22.69792847843301        7.68382236360909
C           -3.50316033144354       23.43367591525393        8.23749327850165
C           -4.64950280610119       24.49933610326508       10.12554376210151
C           -4.72092354855896       24.86167833165571       11.51788635503581
C           -5.86099637208633       25.60573504085284       11.66393069866441
C           -6.47164438118223       25.66266607341811       10.35007175311107
C           -8.29712438553046       26.34726024399547        8.85531176411392
C           -9.56560067411758       26.98584486872564        8.62415486081624
C           -9.88333869472216       26.74812491851377        7.31249124972278
C           -8.78113538660278       25.98544682751218        6.76450398262133
C           -7.64620314330866       24.87698010885381        4.89304935273489
C           -7.57223247217002       24.51021680430991        3.49617467049368
C           -6.37341656161448       23.89124798830082        3.32709237689314
C           -5.73746588782319       23.87580569297867        4.62533282168436
C           -4.50562121074416       23.30377308067232        4.87402531497570
H           -3.98474412593690       22.86078748964651        4.03963588216098
C           -3.61304153160531       23.76871163212257        9.57131329684586
H           -2.82447254373967       23.44348553904907       10.23186362578375
C           -7.65583441958991       26.32097320376534       10.08115999229208
H           -8.13572583759836       26.83392916890628       10.89979029897397
C           -8.70829170196504       25.56170067581120        5.45081332002430
H           -9.53281151320416       25.80876860287630        4.80091094303360
C           -1.23024526997600       22.20146448318479        8.48094011198610
H           -0.51889658220232       21.67951000572071        7.84591467139471
H           -1.56836640372575       21.51266247321091        9.25513290608594
H           -0.71366120624729       23.02979035981044        8.96668387679484
C           -1.81855092158939       21.91564676417939        5.29588164221595
H           -1.55960621691639       22.62460616315117        4.50923739938230
H           -2.37593791547999       21.09588864412026        4.84227731608025
H           -0.89800419623085       21.51417964779540        5.71206391849249
C           -3.75660188842458       24.42768095750403       12.56505445391308
H           -2.86569314550481       25.05825836531233       12.56178552791128
H           -3.44275571345614       23.39905645882574       12.39482821247233
H           -4.21951292196920       24.49291771498270       13.54745393327659
C           -6.41484621825626       26.20546915216195       12.85814439592013
H           -7.49692371359279       26.22645073178901       12.91440060126082
C           -5.70704966435619       26.72311273459743       13.85647595604132
H           -4.63223616725621       26.77076358471287       13.83266168466872
H           -6.18400613767412       27.14318131513073       14.72625058572861
C          -10.31526682127990       27.78872515984691        9.62828457684740
H           -9.63201309587870       28.37515511548800       10.24085599690839
H          -10.89354523404428       27.14281502756121       10.29118643651478
H          -11.00166090316845       28.46651183300692        9.12515702501582
C          -11.04466686899031       27.17377480281115        6.56223994315198
H          -10.86948515356977       27.40143761686280        5.51744936576013
C          -12.27418113820103       27.29178369203217        7.05188664696921
H          -12.51343047085606       27.03450594441213        8.06905088068350
H          -13.09419741920535       27.62781278370600        6.43946169607359
C           -8.63653379371697       24.79945402825568        2.49494501315163
H           -8.78423985122735       25.87495079276635        2.39523456569716
H           -9.58377456716974       24.35468827716245        2.80074908330979
H           -8.36889360146195       24.39918813430863        1.52035620811332
C           -5.77179482032239       23.31669643609569        2.09152154578751
H           -4.82427097963240       23.80588938922401        1.86576220430280
H           -6.43596654153382       23.44796484276822        1.24104628429001
H           -5.58078477370902       22.25068795902046        2.21736059307828
O           -7.25112756596264       22.89171348843655        7.91207112587120
H           -8.04762270814342       23.26184688661919        8.30983429409729
H           -7.48396058138870       22.61435756809929        7.01839945181831
C           -3.39162401597710       26.83278951196017        7.65584009390745
H           -3.02543241929903       27.85411278542520        7.69441134677570
H           -2.78648474931190       26.24306891247986        6.97520109090861
H           -3.39107860657527       26.37444512264979        8.63891111288471
S           -5.08900111805959       26.83108678253357        6.97937206491811
H           -5.61838072339844       27.54236992103701        7.98141256876058
