77
 energy: -118.882378572842 gnorm: 0.283868026412 xtb: 6.7.1 (edcfbbe)
Fe          27.98600000000000       31.31400000000000       10.09400000000000
N           26.24400000000000       32.36500000000000       10.34300000000000
N           28.81000000000000       32.44400000000000       11.60600000000000
N           29.84900000000000       30.37400000000000        9.83400000000000
N           27.20400000000000       30.31500000000000        8.52700000000000
C           25.10000000000000       32.19600000000000        9.57400000000000
C           24.07300000000000       33.07600000000000       10.09100000000000
C           24.59300000000000       33.76600000000000       11.11100000000000
C           25.96200000000000       33.33700000000000       11.29400000000000
C           28.16000000000000       33.41400000000000       12.36800000000000
C           29.11499999999999       33.97800000000000       13.30800000000000
C           30.28800000000000       33.34000000000000       13.12800000000000
C           30.13200000000000       32.37400000000000       12.04700000000000
C           31.01700000000000       30.63600000000000       10.52800000000000
C           32.06500000000000       29.79900000000000        9.96500000000000
C           31.54700000000000       29.08500000000000        8.96300000000000
C           30.13300000000000       29.42000000000000        8.86500000000000
C           27.89700000000000       29.32900000000000        7.81200000000000
C           27.01400000000000       28.79000000000000        6.80300000000000
C           25.69000000000000       29.52600000000000        6.96000000000000
C           25.90100000000000       30.45700000000000        8.04700000000000
C           24.94800000000000       31.32500000000000        8.51600000000000
H           23.98400000000000       31.32600000000000        8.00700000000000
C           26.84000000000000       33.79200000000000       12.24900000000000
H           26.46000000000000       34.51300000000000       12.97300000000000
C           31.13100000000000       31.53700000000000       11.56900000000000
H           32.10000000000000       31.59700000000000       12.06400000000000
C           29.20000000000000       28.91200000000000        7.98600000000000
H           29.53000000000000       28.08600000000000        7.35600000000000
C           23.86700000000000       34.82700000000000       11.96800000000000
H           23.53900000000000       34.36899999999999       12.92600000000000
H           22.97400000000000       35.20200000000000       11.42400000000000
H           24.55800000000000       35.66799999999999       12.18900000000000
C           22.63600000000000       33.21700000000000        9.53800000000000
H           22.31300000000000       32.25100000000000        9.09400000000000
H           22.61199999999999       34.00100000000000        8.75200000000000
H           21.94100000000000       33.48400000000000       10.36300000000000
C           28.75800000000000       35.08400000000000       14.33500000000000
H           27.75200000000000       34.88300000000000       14.76200000000000
H           28.74400000000000       36.07399999999999       13.83100000000000
H           29.50400000000000       35.08700000000000       15.15800000000000
C           31.64500000000000       33.56100000000000       13.83900000000000
H           32.30700000000000       32.70400000000000       14.03100000000000
C           32.05600000000000       34.76700000000000       14.23700000000000
H           31.42900000000000       35.65500000000000       14.06700000000000
H           33.02700000000000       34.88800000000000       14.74000000000000
C           33.55200000000000       29.75200000000000       10.40300000000000
H           33.75900000000000       28.78500000000000       10.91000000000000
H           33.76100000000000       30.58200000000000       11.11100000000000
H           34.20900000000000       29.83900000000000        9.51100000000000
C           32.36800000000000       28.06900000000000        8.12200000000000
H           33.30900000000000       27.66300000000000        8.52200000000000
C           31.97600000000000       27.65800000000000        6.91200000000000
H           31.13700000000000       28.15100000000000        6.39900000000000
H           32.48800000000000       26.82100000000000        6.41400000000000
C           27.33100000000000       27.67200000000000        5.79500000000000
H           27.59100000000000       26.74100000000000        6.34300000000000
H           28.19400000000000       27.97100000000000        5.16200000000000
H           26.44200000000000       27.47800000000000        5.15700000000000
C           24.40800000000000       29.32200000000000        6.13500000000000
H           24.44000000000000       28.32800000000000        5.64000000000000
H           24.33400000000000       30.11000000000000        5.35500000000000
H           23.52100000000000       29.36400000000000        6.80300000000000
O           28.34000000000000       32.95500000000000        8.89900000000000
O           29.40700000000000       32.82400000000000        8.36200000000000
C           27.15900000000000       26.44300000000000       12.96100000000000
H           26.19100000000000       25.93500000000000       12.76500000000000
H           27.35300000000000       26.44000000000000       14.05500000000000
H           27.96700000000000       25.89500000000000       12.43100000000000
N           26.17500000000000       28.76800000000000       12.93500000000000
H           25.49900000000000       28.58400000000000       13.64800000000000
C           27.09300000000000       27.84800000000000       12.46500000000000
C           26.34100000000000       29.91200000000000       12.29200000000000
H           25.75100000000000       30.81000000000000       12.46900000000000
N           27.32200000000000       29.76700000000000       11.42500000000000
C           27.80900000000000       28.48400000000000       11.50500000000000
H           28.61900000000000       28.14600000000000       10.87100000000000
77
 energy: -118.951870791237 gnorm: 0.134021843142 xtb: 6.7.1 (edcfbbe)
Fe          27.99268898896711       31.37930263802606       10.06365862952319
N           26.22652046706961       32.35468526661025       10.35054410649323
N           28.81641351695714       32.43560422378324       11.62815089151904
N           29.85149780442113       30.37543269362027        9.82311672756573
N           27.20535081911257       30.30864575084612        8.53792865469309
C           25.09969719371984       32.19474163398912        9.58184576144277
C           24.06079031293206       33.07856690758791       10.08194069826536
C           24.58684184340710       33.77258878476864       11.11916448966664
C           25.95568506821693       33.32188638587265       11.28780169668361
C           28.17936106477310       33.40309725408545       12.37311425209680
C           29.12058077934572       33.97831639038819       13.32016348183328
C           30.31275620099768       33.34228971244258       13.13365712119936
C           30.12245183202762       32.37137406665576       12.06042645112896
C           31.00801752971338       30.62760277612295       10.51612871038504
C           32.07690840999090       29.80172320281753        9.96766863342242
C           31.55220889359623       29.07168846564636        8.94851741948716
C           30.13347247273884       29.42883125401979        8.86502559266138
C           27.86201623224272       29.33446914042410        7.81229712973092
C           26.97197486449959       28.80153606282786        6.80774268449885
C           25.72989570221182       29.50094162561589        6.95282921411065
C           25.92660459976824       30.43247726818855        8.03854472996050
C           24.96186036330805       31.31563292333630        8.51794747485039
H           24.00151972902659       31.32006585172971        8.00975580394857
C           26.84839142303225       33.78045146720145       12.24404824675742
H           26.47101494477302       34.51015675482800       12.95588351498740
C           31.11734088117505       31.53305795588713       11.56588731694515
H           32.08680664560829       31.60128637305593       12.05186451260584
C           29.18371059884839       28.91860027009291        7.99005458509869
H           29.51042817537256       28.09701098582645        7.36219465403626
C           23.87935473181141       34.81560060384096       11.96298792042144
H           23.54728691585854       34.37577670876248       12.91257090026504
H           22.99860231357336       35.19562119248481       11.43427153333511
H           24.54796937106005       35.65370588865637       12.18370628801685
C           22.65105551365388       33.20910181411455        9.53916969177079
H           22.31717756691598       32.26414940789854        9.09912046684364
H           22.61400574586851       33.98606586939836        8.76619623339025
H           21.95797558225065       33.47830709750318       10.34446653537788
C           28.76214701713199       35.06456386807807       14.32232048892802
H           27.76962069160414       34.88220919522487       14.75167872123914
H           28.74656551204794       36.04923349082773       13.83717590458510
H           29.49211961588951       35.08343113504883       15.13866912829678
C           31.62157627008815       33.56770155788854       13.83171694459426
H           32.26978044970550       32.70859486976721       14.01089451456909
C           32.04303326241899       34.76184778875017       14.23469820391042
H           31.44653292058274       35.65023672382689       14.06625555698353
H           33.00408352075055       34.88576097568207       14.72843749290967
C           33.53198871692090       29.75849854642884       10.40490463049072
H           33.74998803265927       28.80383576714106       10.90223224072951
H           33.75884487519414       30.57193947267964       11.09939662605771
H           34.18968590693726       29.84264614524293        9.53142767334346
C           32.33211237587626       28.08103380986442        8.12809783906546
H           33.25913396767258       27.68194514342096        8.54757117152567
C           31.97159418917779       27.66479957630843        6.91717468151823
H           31.14901688173170       28.13134560215589        6.39215768740089
H           32.49471885437134       26.85427619360398        6.41493749496380
C           27.31450527968870       27.69955802641015        5.81878326433755
H           27.58245099666251       26.76806484618801        6.33932490892080
H           28.16773797721299       27.97577306843417        5.18265490250791
H           26.45836992531422       27.48729951887200        5.16942139473214
C           24.44930479677402       29.31962351031686        6.15208242153197
H           24.44556754541969       28.34531286969962        5.64989871214883
H           24.34573221038068       30.09487637167584        5.37876535245432
H           23.55727015926221       29.36563094117435        6.79382453317388
O           28.34348525148854       32.90306339958262        8.92107032966087
O           29.44554317999389       32.84438365963995        8.32807204781562
C           27.15486373048322       26.44429500172552       12.96213977663129
H           26.20365052763832       25.93270532810152       12.77220286599929
H           27.35104021181896       26.43067129717225       14.04106730495591
H           27.95294726220632       25.90485980350328       12.44354488747269
N           26.17745695218394       28.75619163648886       12.93844535893253
H           25.49654364669729       28.57405098706755       13.65518355829817
C           27.08898487759056       27.84362007435121       12.46407759958622
C           26.35557052648116       29.91044357229904       12.28230454814420
H           25.76967773421230       30.79855815157512       12.45796927932405
N           27.33404499351234       29.78732645147968       11.41239272800102
C           27.80147591310746       28.50128924917770       11.50603461129729
H           28.60599814226386       28.16010970416768       10.87959985794322
77
 energy: -118.981431595679 gnorm: 0.057928005539 xtb: 6.7.1 (edcfbbe)
Fe          28.01823438554343       31.45857915673029       10.01081087810751
N           26.22395923603338       32.35509936764623       10.34399792354409
N           28.82217984158497       32.42861288069476       11.64550247427721
N           29.85933112594134       30.38344413176664        9.80581459124983
N           27.20585802613683       30.30483337996802        8.54207253925756
C           25.10724845892465       32.19325016243363        9.58771079201441
C           24.05613753029286       33.07586085388618       10.07547501815820
C           24.58702975427677       33.77246530376911       11.12535188302519
C           25.95657029973219       33.30526539864830       11.27808766775471
C           28.19354722624760       33.38727733347366       12.37786228264430
C           29.12105656194110       33.97598004206054       13.32618230821081
C           30.33019642460999       33.34057042856492       13.13606277469074
C           30.11193830914400       32.36586502574746       12.06945239050217
C           30.99987500090004       30.62501036914865       10.49965221723264
C           32.08065382010196       29.80325290085911        9.97024398542403
C           31.54980654779305       29.06123566519637        8.93721722555130
C           30.13091613533640       29.44453394446635        8.86258581438064
C           27.83707978775395       29.34132954976396        7.81821772735816
C           26.93187598398992       28.81346632836230        6.81464006999260
C           25.76702793240531       29.47566116805766        6.94848674024853
C           25.94707171085237       30.41596232892000        8.03626716114753
C           24.97706593522251       31.30602751223713        8.52257418866506
H           24.02116578165347       31.31269927528511        8.01380188214961
C           26.85629621311973       33.76533370149062       12.23720085705308
H           26.48252875107760       34.50715760775758       12.93311006690533
C           31.10479884976513       31.52952360561980       11.55900757662348
H           32.07425025242495       31.60458441486614       12.03670193658692
C           29.16846190406744       28.92728238524855        7.99553012952251
H           29.49047081800020       28.11006604622179        7.36722698476500
C           23.89497936200786       34.80123261863405       11.95622118227563
H           23.55995007945833       34.37676147829342       12.90296757595911
H           23.02115818489125       35.18624650848784       11.43807153253615
H           24.54892174415989       35.63888987323995       12.17712384119261
C           22.66993611257831       33.20060874786407        9.54031783374731
H           22.32741423733778       32.26995467614117        9.10128081180752
H           22.62092585360256       33.97357138894714        8.77428059260712
H           21.97623934586714       33.47319587468100       10.33212155070966
C           28.76784686237727       35.04291857696142       14.30833366004460
H           27.78255793744899       34.87323439227557       14.73748163934689
H           28.75203126699913       36.02473920779782       13.83444401720805
H           29.48862856905671       35.07347926716076       15.12070226592308
C           31.59192196502400       33.57055041769891       13.81561450924064
H           32.22840384433992       32.70795590181130       13.98484315477370
C           32.02794489998625       34.75647147585859       14.22745425086928
H           31.45963923392184       35.65141252021728       14.06383577040579
H           32.97837975025047       34.87815956858432       14.72116751352110
C           33.50728974378580       29.76523690621790       10.40610337870741
H           33.73486614188760       28.81828164771282       10.89810540618940
H           33.74711234464794       30.56828259684698       11.09241312175708
H           34.16824659694194       29.84810801150135        9.54513368176414
C           32.28759696102207       28.10026902058956        8.14069081205515
H           33.19898584588924       27.70312026612418        8.58424013349237
C           31.96532516359861       27.67617623955883        6.92138022663354
H           31.15052615394822       28.11119500877405        6.37921163001165
H           32.50851514992469       26.89182283256503        6.41847291959731
C           27.29617274476168       27.72634246501008        5.84234798652247
H           27.57157331252968       26.80020780124157        6.35249683808687
H           28.14420808396681       27.99947036540204        5.21166895231326
H           26.46236872834915       27.50184426833467        5.18322664551154
C           24.48980835731726       29.31546517846876        6.16798951268106
H           24.46327042296991       28.35456468588651        5.65966156619040
H           24.37515319657875       30.08924220714226        5.40527660408438
H           23.60307537121907       29.36860865202554        6.80241910243336
O           28.33729850627312       32.79890888726232        8.97994179875669
O           29.45062720797743       32.85325588996764        8.32034086352831
C           27.15327675412500       26.44682394801909       12.95991962465240
H           26.21229533693911       25.93290362932764       12.77646410155553
H           27.34965337831999       26.42827248533928       14.02951403833483
H           27.94530780528838       25.91226520352763       12.45031378002150
N           26.17907788896035       28.74986045894005       12.93910932909203
H           25.49475802259722       28.57118006241044       13.65783627418934
C           27.08642528071512       27.84281634761491       12.45986685722255
C           26.36846431991235       29.91136080821459       12.27520709950699
H           25.78622623335083       30.79196489180528       12.45010396009918
N           27.34139630416814       29.80401080499125       11.40371734472857
C           27.79602425871242       28.51919599169238       11.50615936784885
H           28.59656252914114       28.17132967393980       10.88655725322044
77
 energy: -118.987388516342 gnorm: 0.024464143667 xtb: 6.7.1 (edcfbbe)
Fe          28.02710009199888       31.48010119970702        9.99590523754770
N           26.23274647996235       32.35827126256801       10.33355443965650
N           28.81772697900316       32.41534455050412       11.64640732077572
N           29.85386086506787       30.41287155621272        9.78614940156444
N           27.20593510532548       30.31031653761364        8.54828505461602
C           25.11395669154229       32.19347359689452        9.58559261229261
C           24.06360377923153       33.06879865779302       10.07618174737753
C           24.59525003223706       33.76314532582608       11.12468251607409
C           25.96358080701897       33.30019305780187       11.27222827425447
C           28.19025004268313       33.37422537258136       12.37589586764024
C           29.11402630016239       33.96340353191796       13.31917871527076
C           30.32194727109239       33.33266510101233       13.12692634188286
C           30.10625498864518       32.35700813934948       12.06666542901716
C           30.99073419740334       30.64030310487806       10.48683935993027
C           32.06290837963355       29.81270815303350        9.96654792591848
C           31.52753608831437       29.07488871252316        8.93461572032688
C           30.11860436312871       29.46779633026662        8.85410135775151
C           27.83789839589782       29.34498020977871        7.83191811160749
C           26.93748909721588       28.80644295814502        6.83138152147478
C           25.76202874730055       29.48225650152626        6.96267954249900
C           25.94732055662485       30.42302758473176        8.04800775033635
C           24.98018402080995       31.30633013959249        8.52625053253423
H           24.02663075072743       31.30598518365964        8.01711635784729
C           26.85894501429453       33.75822025577470       12.23048648624623
H           26.49151745299616       34.51254229753199       12.91361626634377
C           31.09975612868256       31.53170773982129       11.55080948585790
H           32.07084067866652       31.60986930616185       12.02078429073985
C           29.16062302652138       28.93542060911858        7.99915153416417
H           29.47386136690187       28.11287364936131        7.37604308108966
C           23.91139834274655       34.79218855091207       11.95797182192877
H           23.57891368652480       34.36952333711517       12.90713803594350
H           23.03855134268541       35.17812799338787       11.43841237948726
H           24.57024514397630       35.62841615420355       12.17365210815642
C           22.68043805295716       33.19038698750273        9.53645929143487
H           22.33942858491114       32.25836367995114        9.09645921236537
H           22.63425192213904       33.96356207775970        8.76964473171485
H           21.98714622544099       33.46509297807647       10.32819140779993
C           28.76742608261701       35.02701960349287       14.30083325921937
H           27.78138889572837       34.85668181929081       14.72872075274593
H           28.75626225345687       36.00676786610795       13.82255701545770
H           29.49365726593554       35.05353644183758       15.10907490160451
C           31.57792504331135       33.56714177813212       13.80415510956342
H           32.20701325456562       32.69841516069864       13.96173088846707
C           32.01534190700908       34.75016749237897       14.22435864883123
H           31.46324590669976       35.65576188016202       14.04846677047581
H           32.96346945424075       34.86338194476745       14.72172636580058
C           33.48538990249345       29.77407659814027       10.41003620519170
H           33.71056947630757       28.82657905514391       10.90294224364691
H           33.72311150033372       30.57893765236781       11.09681616942982
H           34.14761011503145       29.85892457972323        9.54991950279396
C           32.24947500147075       28.10192196605720        8.15063192563228
H           33.14132328672275       27.70147603262571        8.62770964391992
C           31.96127954607806       27.68194523419525        6.91895241041421
H           31.15442658345457       28.10430788777912        6.34934874014774
H           32.55365849281268       26.93288973484632        6.41239605974691
C           27.29374590775525       27.73336273125097        5.85626454665652
H           27.56967137423423       26.81447176853771        6.37434323116672
H           28.13834742234492       28.03162922116267        5.23613053864327
H           26.45779227003527       27.51600931085002        5.19746680706879
C           24.50215123000658       29.31840549718637        6.17729323691987
H           24.48477826016521       28.35812450058104        5.66815066670238
H           24.40634070372765       30.10090233069380        5.42406339690739
H           23.62847219675493       29.37257606140387        6.82445802404747
O           28.34944647806936       32.76424501457439        8.97852028203451
O           29.46539153105441       32.78762260299612        8.34456962087904
C           27.15425266649753       26.44968932011779       12.95526890788122
H           26.21426026707525       25.93079329670605       12.77477120039073
H           27.35160660133317       26.43007417853184       14.02552580776605
H           27.94840336462555       25.91582472275023       12.44669681017345
N           26.17965908530390       28.75241831867914       12.93773190662326
H           25.49526369952806       28.57310953308821       13.65585422042453
C           27.08660222592142       27.84585134654529       12.45507969309588
C           26.37311799473362       29.91546824885621       12.27778486269777
H           25.79472155705621       30.79782971196951       12.45247284026442
N           27.34486093393159       29.80888870200193       11.40827187028228
C           27.79748979805692       28.52545867758182       11.50512015418946
H           28.59855946304783       28.17847979159188       10.88685349062701
77
 energy: -118.989756094633 gnorm: 0.016841539707 xtb: 6.7.1 (edcfbbe)
Fe          28.02999327342632       31.47728937306024       10.00065576128854
N           26.25002833598249       32.36592679416602       10.31535151720556
N           28.81227444980694       32.40742263293350       11.63338603526804
N           29.83872664348049       30.43577307102501        9.77549012288322
N           27.20868583200367       30.31871054903827        8.56116771049138
C           25.12404403092839       32.19624731133494        9.57798062960715
C           24.07460689502101       33.06198126989803       10.07527462921846
C           24.60633487061034       33.75410477828893       11.11987532330631
C           25.97467204985380       33.30084511613836       11.26056271666615
C           28.18504751204625       33.36488757066697       12.36714241079298
C           29.10598750016178       33.95059335669911       13.30713021124533
C           30.31091595985229       33.32484958005342       13.11253488618486
C           30.10164368392169       32.35291583053745       12.05480936077265
C           30.97855321243478       30.65795054431673       10.47322955015638
C           32.03885413460429       29.81901178496238        9.96344736848244
C           31.49926515488100       29.08375606248173        8.93804245604609
C           30.10170959084837       29.48623283111177        8.84983171414583
C           27.84012260914891       29.35021911059898        7.84853421444622
C           26.94260343102983       28.80733590768479        6.85303155713383
C           25.76035640573372       29.48777531561537        6.98414750235116
C           25.94967923565213       30.43197796305057        8.06201033503822
C           24.98293649366979       31.30766268591126        8.52682253954982
H           24.02978200053459       31.29675981576657        8.01869806436840
C           26.86158724248303       33.75682842560799       12.21928094410572
H           26.49885591006850       34.51805880251951       12.89503261337562
C           31.09689262958331       31.53927241440076       11.53686959423783
H           32.06943594922559       31.61760593932867       12.00135172148032
C           29.15343163714958       28.94060492933835        8.00210113397121
H           29.46193264614977       28.11521453909702        7.38097121665199
C           23.93041088396324       34.78425409757331       11.96124748499279
H           23.60625265821830       34.36045095306861       12.91432890261994
H           23.05464493473605       35.17224917764432       11.44494334563068
H           24.59908860904474       35.61711742403408       12.17023882634759
C           22.69042431564270       33.17852465970089        9.53076437582283
H           22.35599040415454       32.24137442851649        9.09166855749094
H           22.64942490045553       33.94943877420548        8.75912528565179
H           21.99460059514924       33.45455531295014       10.32183298575916
C           28.76420780291782       35.01172334353125       14.29443101049776
H           27.77685530449367       34.83966738229785       14.72193480787113
H           28.75806840530616       35.99196020395277       13.81433656554218
H           29.49700262082851       35.02874891807466       15.09912245822603
C           31.57019944635584       33.55961250107740       13.78972863601690
H           32.19038340357306       32.68428244956240       13.94598544126674
C           32.00846893821869       34.74161894933248       14.21155972489614
H           31.45927313191611       35.65215283483384       14.04099873497658
H           32.95053511652434       34.84447009560536       14.72440784891758
C           33.46078450007108       29.78251775977170       10.41471488602010
H           33.68173153131764       28.83533215704819       10.91263152761602
H           33.68799980744977       30.59213453094672       11.10294199841518
H           34.12639300905501       29.86974412395981        9.55557190007267
C           32.22409139571776       28.10915136155635        8.15352246932616
H           33.09007013662385       27.69195259991186        8.66429371698505
C           31.97286938137832       27.70698097837513        6.90736894113022
H           31.16927948727625       28.11464471838876        6.31672151469760
H           32.57732716256546       26.95755722672125        6.42416234872227
C           27.29416100474442       27.74216277275429        5.87406581215557
H           27.57384772933415       26.82426941065180        6.39156062949366
H           28.13582424331024       28.05889447792327        5.25874885959230
H           26.45485856723540       27.52878925875596        5.21628911380848
C           24.51145457106420       29.32474766699970        6.19063567765601
H           24.50323795208430       28.36610059638923        5.67623117956279
H           24.42961455637469       30.11520279746457        5.44380647030140
H           23.64025299604394       29.37519353568144        6.84043732086841
O           28.36971901631429       32.75113014013736        8.96282819654656
O           29.48324304426396       32.76660449940424        8.33721173919806
C           27.15462541881321       26.44730122802729       12.95275573662030
H           26.21414129087847       25.92554222254194       12.77206678661242
H           27.35340319588863       26.42918759315611       14.02480671100732
H           27.95212822089331       25.91627023864041       12.44147911044372
N           26.17713841969758       28.75086504678323       12.94185074877163
H           25.49282106574169       28.57039393770918       13.65823172923439