77
 energy: -118.995277199580 gnorm: 0.000177392851 xtb: 6.7.1 (edcfbbe)
Fe          28.06240564529747       31.46131975529415        9.95425952780339
N           26.27568645811863       32.35286112782524       10.26658736367859
N           28.83559586483425       32.44499412193063       11.54932653509499
N           29.79320791425804       30.43704878447187        9.77338674934687
N           27.21017453266152       30.31020955527402        8.53842244758040
C           25.13453743081509       32.16775162365160        9.55436933486262
C           24.10450061225106       33.07451736833535       10.01166906635261
C           24.65934718961678       33.81498440439472       11.00979174319709
C           26.01993076466376       33.34592263880126       11.15740521891832
C           28.20704930384348       33.39660733043178       12.28814131067439
C           29.08555664497510       33.90138937756377       13.31325472563522
C           30.27083466077522       33.22830062519195       13.17182190850595
C           30.08850416501786       32.32068067336785       12.05591411119783
C           30.93337293840127       30.62643373217211       10.48683154232651
C           31.99509914319275       29.80610251535573        9.95967472750948
C           31.47499924006018       29.14474404515894        8.88026863526924
C           30.08274383055864       29.54253026026456        8.79764953921798
C           27.83995701625978       29.35891498838512        7.80334261665030
C           26.92211334506148       28.77120564019686        6.85031676441108
C           25.73136015605367       29.40558573947456        7.02351208735043
C           25.93439275874863       30.37276876851190        8.08169472106614
C           24.95912072453498       31.23801942579250        8.54404183972450
H           23.98917595777836       31.19316898089147        8.07235328511355
C           26.90482856457832       33.83173867511736       12.10131850621961
H           26.55199209331116       34.62438207746674       12.74374489576152
C           31.07460256878666       31.48395182902214       11.56488118693405
H           32.04131429003545       31.51715428545365       12.04438943663154
C           29.16938697364046       28.99666568283616        7.91308442204846
H           29.53144148936103       28.22979161652770        7.24572594257702
C           24.05262340315124       34.90329232414064       11.82709398615802
H           24.05938090863982       34.64147413487561       12.88561649698270
H           23.02407335374556       35.08464448290630       11.52626910603962
H           24.61446463946006       35.82870425546655       11.70371228924562
C           22.72960550348951       33.13755833462455        9.44179936008128
H           22.22849480827852       32.17452120652064        9.54079580667349
H           22.76944236291994       33.39106878726007        8.38277762339123
H           22.13277965841155       33.88933084402044        9.95183453927548
C           28.70957484442303       34.90526412830022       14.34645560469313
H           27.68381198412698       34.75356111930023       14.67923776791933
H           28.78805547930633       35.91734711641278       13.94751603217364
H           29.37152934891897       34.82249814579767       15.20600134577993
C           31.48366129262366       33.33637636654427       13.95441757706722
H           32.04238862984599       32.41616996737763       14.07958858557001
C           31.94764002504168       34.45405005545403       14.50275407100860
H           31.46051269172932       35.40343405285625       14.36631606633889
H           32.85504683914892       34.46132625968322       15.08328369260126
C           33.38928411927063       29.77465806167289       10.48057515903206
H           33.39884184743648       29.52859690289747       11.54269145146165
H           33.86285501158979       30.74843954033208       10.35526775050882
H           33.98079268143876       29.03702729132331        9.94443069013279
C           32.17447445574284       28.24146539878360        7.98714371693202
H           32.88616921701075       27.57427278547474        8.46180485417336
C           32.03390117628577       28.21555503174618        6.66737977433542
H           31.38409002487091       28.90323356757964        6.15376533810620
H           32.59189707939130       27.52758179900344        6.05394155611180
C           27.28930533974969       27.69549673067631        5.88782198743039
H           27.67974032243291       26.82430140279328        6.41384982122291
H           28.05863713566560       28.04902407960551        5.20184725449628
H           26.42567664181266       27.38697959324562        5.30421295416223
C           24.44298868836136       29.21117658244048        6.30177729635769
H           24.52431973685565       28.40725888685989        5.57477832778668
H           24.16264381141233       30.12294501042549        5.77471446345815
H           23.64416281242316       28.96466136359850        7.00132341409217
O           28.53033832027986       32.68539190697314        8.91221953420155
O           29.07220023281727       32.36166932620480        7.79767225285196
C           27.00210912766813       26.48391684835492       12.92673036770623
H           25.96675237926417       26.17229674495982       13.06464145591882
H           27.53216543744149       26.32953891763971       13.86649874509662
H           27.45531917586926       25.85779012112118       12.16452496608189
N           26.58404079299438       28.92784160812829       13.28370534909131
H           26.14304083099659       28.82240103309231       14.18314760244219
C           27.07330702265885       27.90635996121376       12.50933402021809
C           26.80464343113914       30.08344457326475       12.62170233326979
H           26.52664204540297       31.05057490007353       12.98776388685775
N           27.39993992288150       29.85988739239424       11.48062189841841
C           27.57583993724497       28.51255993006904       11.39276925656180
H           28.04856319083218       28.07528547735615       10.53769237883570
