78
 energy: -115.945403193568 gnorm: 0.274787962317 xtb: 6.7.1 (edcfbbe)
Fe           4.57500000000000       18.29600000000000       17.45200000000000
N            5.33500000000000       18.94800000000000       15.63700000000000
N            4.94900000000000       16.33600000000000       16.85700000000000
N            4.33300000000000       17.64000000000000       19.37200000000000
N            4.80500000000000       20.27600000000000       18.13400000000000
C            5.50000000000000       20.26100000000000       15.23600000000000
C            6.03500000000000       20.25100000000000       13.89100000000000
C            6.15100000000000       18.98000000000000       13.50900000000000
C            5.71700000000000       18.13200000000000       14.58800000000000
C            5.31200000000000       15.93100000000000       15.58500000000000
C            5.22700000000000       14.48900000000000       15.52500000000000
C            4.82400000000000       14.04100000000000       16.71900000000000
C            4.66200000000000       15.19800000000000       17.59300000000000
C            4.25900000000000       16.31400000000000       19.75000000000000
C            4.12900000000000       16.27200000000000       21.18300000000000
C            4.15500000000000       17.52400000000000       21.64900000000000
C            4.28100000000000       18.41900000000000       20.50300000000000
C            4.40100000000000       20.63500000000000       19.42400000000000
C            4.11900000000000       22.04600000000000       19.45400000000000
C            4.41900000000000       22.56400000000000       18.05200000000000
C            4.84400000000000       21.39600000000000       17.30300000000000
C            5.21900000000000       21.38000000000000       15.98200000000000
H            5.30100000000000       22.34400000000000       15.47900000000000
C            5.69700000000000       16.75700000000000       14.55600000000000
H            6.01600000000000       16.27900000000000       13.63000000000000
C            4.27900000000000       15.21500000000000       18.91800000000000
H            3.96100000000000       14.26600000000000       19.35000000000000
C            4.29200000000000       19.80099999999999       20.50700000000000
H            4.20400000000000       20.28200000000000       21.48100000000000
C            6.68500000000000       18.47400000000000       12.15600000000000
H            7.13500000000000       19.32100000000000       11.59500000000000
H            5.85000000000000       18.04900000000000       11.55800000000000
H            7.46300000000000       17.70000000000000       12.32600000000000
C            6.38700000000000       21.49500000000000       13.04100000000000
H            7.48300000000000       21.67400000000000       13.08200000000000
H            5.86100000000000       22.38600000000000       13.44400000000000
H            6.08900000000000       21.32400000000000       11.98400000000000
C            5.54100000000000       13.62900000000000       14.28300000000000
H            6.56200000000000       13.20100000000000       14.37700000000000
H            5.49700000000000       14.25900000000000       13.36900000000000
H            4.80800000000000       12.79800000000000       14.20700000000000
C            4.62200000000000       12.54200000000000       17.02700000000000
H            5.10500000000000       11.78700000000000       16.39000000000000
C            3.87700000000000       12.10500000000000       18.04600000000000
H            3.24200000000000       12.80200000000000       18.61300000000000
H            3.88900000000000       11.04300000000000       18.33100000000000
C            4.00900000000000       14.98500000000000       22.02400000000000
H            4.39200000000000       14.12200000000000       21.43800000000000
H            2.94400000000000       14.80200000000000       22.28100000000000
H            4.61100000000000       15.08600000000000       22.95200000000000
C            4.01800000000000       17.86400000000000       23.15300000000000
H            3.67400000000000       17.08700000000000       23.85200000000000
C            4.29700000000000       19.06500000000000       23.66100000000000
H            4.03100000000000       19.30700000000000       24.70000000000000
H            4.79700000000000       19.82900000000000       23.04700000000000
C            3.62700000000000       22.85900000000000       20.66200000000000
H            4.44300000000000       22.93900000000000       21.41200000000000
H            2.75700000000000       22.34900000000000       21.12900000000000
H            3.33700000000000       23.88000000000000       20.33400000000000
C            4.26600000000000       24.01700000000000       17.55100000000000
H            4.43300000000000       24.72000000000000       18.39500000000000
H            3.24100000000000       24.17000000000000       17.15200000000000
H            5.01700000000000       24.22200000000000       16.75800000000000
O            7.11200000000000       18.30600000000000       17.89100000000000
H            7.50800000000000       18.74900000000000       17.14100000000000
H            7.54400000000000       17.97000000000000       18.59200000000000
C           -1.00500000000000       19.41200000000000       17.10100000000000
H           -1.71700000000000       18.58200000000000       17.29900000000000
H           -1.34400000000000       19.97100000000000       16.20300000000000
H           -0.98400000000000       20.08700000000000       17.98300000000000
N            0.64500000000000       17.97200000000000       15.84000000000000
H           -0.02500000000000       17.62500000000000       15.18300000000000
C            0.35900000000000       18.85200000000000       16.86200000000000
C            1.93400000000000       17.67000000000000       15.87600000000000
H            2.43200000000000       16.99900000000000       15.17700000000000
N            2.48100000000000       18.31500000000000       16.88600000000000
C            1.52200000000000       19.05900000000000       17.52100000000000
H            1.75800000000000       19.66800000000000       18.38500000000000
78
 energy: -116.011641123866 gnorm: 0.116506209971 xtb: 6.7.1 (edcfbbe)
Fe           4.67737225076160       18.28272420478308       17.46638881841985
N            5.31952278094631       18.94878164655054       15.63085763418397
N            4.92868714985297       16.32226949739159       16.84902039737804
N            4.33747540627402       17.64193947674074       19.37190901859082
N            4.75730710684926       20.26686946505124       18.12389193383126
C            5.49870503732871       20.25417604233007       15.23636418860907
C            6.03017754657996       20.26706075773613       13.88312948509696
C            6.15920215017811       18.97809719681660       13.49492780345474
C            5.71257712044554       18.14535797236125       14.58900871646836
C            5.30236933067204       15.92102534048825       15.59256229909364
C            5.22946503567128       14.47812181378877       15.51226800073753
C            4.80787788069162       14.01866821101870       16.72145654352164
C            4.63730911162856       15.19432774221795       17.57472520383791
C            4.24729533439966       16.32744286993482       19.75296291568677
C            4.12443007484861       16.26202319213741       21.19232778350960
C            4.15996780554223       17.53467630291419       21.67170809240079
C            4.28279222101528       18.41455258614678       20.50396723308639
C            4.39043537504128       20.65373727992515       19.39293387177738
C            4.13477559425470       22.07093615670427       19.41751167221625
C            4.41113369943106       22.55341664834571       18.09670138587642
C            4.81328176663798       21.39235816864104       17.33331550466896
C            5.21070773056137       21.37593581465385       15.99759191265994
H            5.30080690643429       22.33592473063367       15.49574586299975
C            5.69198684098993       16.76159516586700       14.56212442131012
H            6.01239013509429       16.28843487794045       13.63893021779911
C            4.27396273868117       15.22238022705237       18.91231883389144
H            3.99464456001108       14.27720969252637       19.36037131684930
C            4.28560465100377       19.80374794324342       20.49287005838970
H            4.18036742207574       20.28818958699635       21.45561674583146
C            6.68268628818560       18.47677651447651       12.16685090726612
H            7.12823140435960       19.30392239011664       11.60475483044051
H            5.86610658290561       18.05139375597330       11.57008091739002
H            7.44892539240041       17.70965147125689       12.32178238928431
C            6.38234510772341       21.48717836481923       13.05436344955442
H            7.46402397752757       21.67131406696880       13.08512690648175
H            5.86835044729449       22.37384312750998       13.43500507786830
H            6.09172387540126       21.32947654953743       12.00913607032572
C            5.54067407861803       13.63880084558004       14.29144514722251
H            6.54683856505859       13.20924072375586       14.37546478628828
H            5.49638761249185       14.24533103665711       13.38188086788063
H            4.82130991644693       12.81685855037385       14.20610782730376
C            4.62258003576773       12.56972717610344       17.04367621878701
H            5.12246574818954       11.83721677515481       16.40625881891931
C            3.87536361737746       12.10938912527428       18.04285337145951
H            3.24701310792804       12.77468756712586       18.61924561824784
H            3.87010318044254       11.05650964000120       18.30987089265795
C            4.01211849348690       14.99317921562903       22.01239019339968
H            4.38694860133659       14.13368221667992       21.44797967704867
H            2.96370895793698       14.80648635948964       22.27724956639351
H            4.59802720436850       15.08350670283159       22.93356011596506
C            4.02188612064377       17.87770331375603       23.12357785002484
H            3.66047184139323       17.09641772059824       23.79651335359636
C            4.30178655458738       19.06275268445795       23.65743278555410
H            4.05623357198226       19.29325925831910       24.69004120119036
H            4.78716039008446       19.83376550537361       23.07584822013372
C            3.64323152677215       22.84895288194793       20.62631208162666
H            4.43130788306684       22.93433947111026       21.38904230471099
H            2.78203540268977       22.35727223834265       21.10296850726811
H            3.34287373617511       23.86108455969118       20.33574123976476
C            4.27025911580487       23.97884893761059       17.57649279067556
H            4.43078682801949       24.70200406811297       18.38492190198340
H            3.26543302117978       24.15537163433903       17.16477778256839
H            4.99860846701239       24.20026363458426       16.78368059336658
O            7.07259844700016       18.30784122476158       17.87300628667824
H            7.50590405955408       18.74834060669335       17.14517227562106
H            7.55115388124002       17.96478729654274       18.60565631697703
C           -1.00313166256790       19.40605007389513       17.09838543331484
H           -1.71580844667957       18.59595757420385       17.29622135068108
H           -1.34602584196586       19.96528160972213       16.21936462663719
H           -0.98454066568754       20.07499939258276       17.96379567203580
N            0.64096460815910       17.97860293067189       15.84424337880001
H           -0.03118017851531       17.62771994491212       15.18260543481039
C            0.35974342504887       18.85232307065633       16.86361792870119
C            1.95007094220439       17.68012667566590       15.89303100543039
H            2.43679970225301       17.01373934116054       15.19871940524370
N            2.52441023497412       18.31697239249721       16.89474651450175
C            1.54245724902724       19.04978065845050       17.51325260093262
H            1.76694682739360       19.65728851308688       18.37123963480868
78
 energy: -116.033594592080 gnorm: 0.041057179561 xtb: 6.7.1 (edcfbbe)
Fe           4.74819897732251       18.28163197352319       17.47377837218072
N            5.32481394681301       18.94591034403112       15.63935221470241
N            4.91241151852628       16.32355591961607       16.84602777138272
N            4.36410850981534       17.64515535418407       19.36667528760533
N            4.71449304985914       20.25019969805872       18.11334052007417
C            5.49232949040376       20.24344591962615       15.24267127979975
C            6.02230491670469       20.27570644079875       13.88669074832074
C            6.16184804763429       18.97702064167104       13.49285207120051
C            5.70923664829161       18.15543049531580       14.59716593884452
C            5.28849200170416       15.92061701438685       15.60191727970162
C            5.22640823939832       14.47930331694856       15.50743666584235
C            4.78858330468835       14.01437180446222       16.72598396268249
C            4.61284347699760       15.20412616978335       17.56109049936210
C            4.24899606233865       16.34352138116256       19.75138269102576
C            4.12115341608604       16.26161203149406       21.19072151266471
C            4.16302392014992       17.54863332132816       21.67627834378553
C            4.29230130615768       18.41291839830170       20.49504300396282
C            4.36904773623301       20.65233065127726       19.36329705444426
C            4.14604170189087       22.08389144130939       19.38256755854101
C            4.40391588163442       22.53551408171275       18.13342200060890
C            4.77934184591196       21.37437747166207       17.34804103671328
C            5.19296787211464       21.36468993358802       16.01070015191199
H            5.29898770188630       22.32387010328045       15.51744209971177
C            5.68252049150945       16.76790444972849       14.57038003115554
H            6.00585690659992       16.29879969882533       13.65017027228622
C            4.27735018699093       15.23413269788577       18.90858274539190
H            4.04318475727691       14.28904099182007       19.37463597711449
C            4.26963322297971       19.80356373693608       20.47371740734653
H            4.14086985096035       20.29685189678751       21.42435794741204
C            6.67781324936420       18.47960901814734       12.18245021089306
H            7.12186266453423       19.29377001836845       11.61625964861781
H            5.87317629044085       18.05037372080572       11.58499444081635
H            7.43729158992568       17.71396253524644       12.32641824364682
C            6.37300401921660       21.47918253754812       13.07334792592783
H            7.44789207039359       21.66598797113492       13.09753630916841
H            5.86819306883877       22.36743045979260       13.43824518894895
H            6.08889491724322       21.33010406265225       12.03268858678744
C            5.53903245902289       13.65158832941162       14.30377870458288
H            6.53799393927380       13.21995022461252       14.37949927924579
H            5.49589293752515       14.24253993534156       13.39393874376144
H            4.82907371883078       12.83207930374617       14.20985350510048
C            4.61792703881397       12.61228876178969       17.05748056155985
H            5.15134006697576       11.90469227215656       16.42539563432368
C            3.86877873274119       12.11704697432130       18.03987467851833
H            3.24107886325959       12.74875701812617       18.63758036423509
H            3.84925195516293       11.06483321796298       18.27524759868729
C            4.01326225199408       15.00747616944009       21.99805655559935
H            4.38455437219763       14.14790291632161       21.44822566431499
H            2.97428038190572       14.81356992723413       22.26924464576127
H            4.58892306469198       15.09024945020262       22.91768060333963
C            4.02231023360339       17.89440807461568       23.07769080271853
H            3.63855144411009       17.10524509838713       23.72144602841575
C            4.31079202973152       19.06190930877682       23.65022831496654
H            4.09082258668582       19.26553989661828       24.68631497851192
H            4.78300243413704       19.85339652798011       23.10293053784044
C            3.66240706343332       22.84103725965439       20.58830759364593
H            4.43845348487699       22.92120693171852       21.35415502783234
H            2.80738829115782       22.34844077354184       21.05809814938713
H            3.35504776979887       23.84889961412420       20.31957209560341
C            4.27568033287817       23.93913490002377       17.60436433178918
H            4.43164526340167       24.67323234005730       18.39367512635384
H            3.28138739666367       24.11831536115564       17.18376676929892
H            4.99526042696176       24.15324623144154       16.81273823544560
O            7.02372178920558       18.29493712762520       17.86048687854169
H            7.50816189334734       18.74364529952993       17.16480565988755
H            7.54063258603941       17.97322164560755       18.60125624828780
C           -0.99549440577216       19.40171748517536       17.09940604234694
H           -1.70822572949456       18.60159771389496       17.29422205960546
H           -1.34044089336248       19.95913727667452       16.22932255096165
H           -0.98100073207568       20.06825613517529       17.95470783427324
N            0.64651422238745       17.98248320217690       15.84838411428530
H           -0.02379568280219       17.62831819942485       15.18333359551108
C            0.36722083842857       18.85331162326712       16.86772229277467
C            1.96611631540347       17.68895557550053       15.90711040227932
H            2.44828679109838       17.02594696114446       15.21764448143374
N            2.54918123773388       18.31746045703846       16.90166718396056
C            1.56075486630065       19.04497050488936       17.50866967064480
H            1.77583550488963       19.65250627091161       18.36345345378342
78
 energy: -116.040315738173 gnorm: 0.023213745973 xtb: 6.7.1 (edcfbbe)
Fe           4.76742587158765       18.28369108202018       17.47237413231727
N            5.31843948949596       18.94200426749289       15.64342896769056
N            4.89437949827316       16.33748336242607       16.84083293436651
N            4.38441021668068       17.65022818324895       19.35576280844766
N            4.67610548351477       20.23273616704442       18.10003306471140
C            5.48230929703332       20.23572947631004       15.24536279795863
C            6.01186165060476       20.27400240264997       13.89374708249579
C            6.15613497853557       18.97653813555004       13.49852615431223
C            5.70488818468357       18.15644860121123       14.60170835595193
C            5.27244632097432       15.92945483501467       15.60128408766966
C            5.21243983444098       14.49208374642173       15.50932022026884
C            4.77019679816587       14.03314546738416       16.72997033452656
C            4.59598332988451       15.22240203400668       17.55709350500369
C            4.26434399959627       16.35359930448646       19.74504621877220
C            4.12429431322925       16.27153196418529       21.17871803526360
C            4.16204428589780       17.56163184501208       21.65857317162850
C            4.29758172717191       18.41598349060619       20.47957993038037
C            4.34255130319895       20.63500509111725       19.35075089330067
C            4.13868482984151       22.07045292566170       19.37924500670715
C            4.39685299332096       22.52055686688149       18.12097994355972
C            4.75465611428826       21.35350531036477       17.33502429883518
C            5.17716867789788       21.35432237914800       16.00915129097238
H            5.29249979788696       22.31597299721478       15.52670648056304
C            5.67435485406790       16.77192463484904       14.57130973118379
H            5.99895598568941       16.30406449229132       13.65269618493650
C            4.29120626591047       15.24374578016262       18.90916398188816
H            4.10503358754635       14.29362968258067       19.39092848278830
C            4.24536311276306       19.80139443993082       20.46127146705253
H            4.07860265121339       20.30151467212870       21.40308097449850
C            6.67400009535020       18.47628809412526       12.19305046965322
H            7.11829986535152       19.28891158312526       11.62440837317321
H            5.87020507960888       18.04256385868178       11.59710635163988
H            7.43292507712335       17.70995283574262       12.34003190611234
C            6.36235761681958       21.48095874515852       13.09040859024459
H            7.43779555813443       21.66543618824273       13.11930470965303
H            5.85759359895740       22.36973873057566       13.45565659094015
H            6.08026700853338       21.33449244729377       12.04882016245110
C            5.53566189027107       13.66317450749030       14.31157145657772
H            6.53642905488026       13.23545554819034       14.39246801838118
H            5.49481751973632       14.25075789469737       13.39871411939217
H            4.82918809714437       12.84058525735946       14.21580250688047
C            4.61740922810765       12.64001855691519       17.07471734854422
H            5.18467747358502       11.95475730829610       16.44762301052480
C            3.85736824449209       12.11620568161765       18.03672034080548
H            3.21275531628986       12.72080868278906       18.64876158723723
H            3.82555826050107       11.05427114156995       18.22799264399932
C            4.01270008313584       15.02072988646195       21.98589957317257
H            4.38684840446811       14.15942038363785       21.43967139538645
H            2.97313490675650       14.82507687705092       22.25495186576223
H            4.58464600950720       15.10574560826871       22.90792361659330
C            4.01325659077026       17.91336405183748       23.04863448845570
H            3.60255288060980       17.11752983857088       23.66631948056716
C            4.32106984262769       19.06305717212280       23.65153480608738
H            4.13361309298159       19.22638372035590       24.70285233893320
H            4.79471011319935       19.87530212595163       23.13099313858145
C            3.67386842649075       22.83427305904975       20.57607128795441
H            4.45874345027960       22.90497599758483       21.33056353636071
H            2.81815779937625       22.33755927610124       21.03387842663010
H            3.37271569658022       23.84153399371267       20.30072827332854
C            4.28309457651110       23.91886378502240       17.60694340847151
H            4.43919981047787       24.64184456435335       18.40471217896257
H            3.28868545399620       24.08901263395575       17.18840367049324
H            5.01088926540028       24.11532367184966       16.82247300349534
O            7.00073776899869       18.26384467415649       17.85052864850180
H            7.51344498830217       18.74677108957855       17.19275508219201
H            7.52083943884316       17.98596836653294       18.61026822706988
C           -0.97901639211557       19.39788123469058       17.10202253509313
H           -1.69219309008560       18.59722569992944       17.29498225934196
H           -1.32589450722955       19.95447078573170       16.23182529940862
H           -0.96946566654640       20.06566405647960       17.95645923785681
N            0.66798282751343       17.98393857413010       15.85377454587964
H            0.00012856576503       17.62802999266139       15.18759838609958
C            0.38627969083946       18.85460387871512       16.87380534154841
C            1.98871321117816       17.69408726868556       15.91637381156146
H            2.47508786280081       17.03144640236034       15.23074254924222
N            2.56678690984999       18.32354938850063       16.90838409904699
C            1.57964512294212       19.04829671125792       17.51398048852127
H            1.79151242749332       19.65706453142808       18.36811627513820
78
 energy: -116.044143286614 gnorm: 0.029748815868 xtb: 6.7.1 (edcfbbe)
Fe           4.75953966293114       18.28667457832667       17.46542291193026
N            5.30847502715611       18.93628267541321       15.65060558742581
N            4.87887674181884       16.36064659196310       16.83722059862658
N            4.40135699703150       17.65403872344220       19.33982673523809
N            4.65217242310292       20.20181604881199       18.08749278005229
C            5.46990034957741       20.22670566635835       15.24920854020005
C            5.99821516400365       20.27108468393695       13.90226867596713
C            6.14751094911463       18.97635969545329       13.50577215785516
C            5.69717898541529       18.15656752356711       14.60619696733592
C            5.25343821565876       15.94284868670533       15.59983387374772
C            5.19857562946716       14.50907102144528       15.51353790828278
C            4.76090942969260       14.05761052385054       16.73742268548552
C            4.59134953838740       15.24570362100273       17.55598069416302
C            4.28634236512118       16.36027887879858       19.73779101125193
C            4.12650317795055       16.28220337174872       21.16508111609749
C            4.14902026183712       17.57531681383898       21.63566526184222
C            4.29295031940107       18.41747407247132       20.45982964748463
C            4.31643045022362       20.60955952485460       19.33591688513381
C            4.12819461467358       22.04533192498583       19.36757069881543
C            4.39321314904397       22.49368987167423       18.10885416540410
C            4.73512949022338       21.32299621645041       17.32421638416593
C            5.15943090681807       21.34204132510592       16.00865830322411
H            5.27576013572882       22.30760811275243       15.53820114085531
C            5.66149591653038       16.77628874000214       14.56901379290167
H            5.98858453075017       16.30854592148834       13.65244485189251
C            4.32018808718908       15.24911859467874       18.91109764892667
H            4.17124593439441       14.29502262270134       19.39356444217571
C            4.20712208661524       19.79730100199302       20.44870286966287
H            4.00364384765542       20.29960521410794       21.38251240596641
C            6.66840145582499       18.47092200500041       12.20409443667375
H            7.11281691931302       19.28166367580828       11.63185132445382
H            5.86537944382574       18.03139977667279       11.60998287894395
H            7.42800006426398       17.70542077864610       12.35833046625660
C            6.34810599761426       21.48523343756798       13.10973692426577
H            7.42382619667210       21.66989703637208       13.14685262579405
H            5.84035946108840       22.37059219658839       13.48108275655352
H            6.06965219030236       21.34604195482476       12.06573103105719
C            5.52877619630006       13.67718774620941       14.32006892765574
H            6.53318450638601       13.25748804993751       14.40839050063753
H            5.48899912543071       14.26239902244388       13.40459788948293
H            4.82765222488599       12.84923200851221       14.22448305322255
C            4.60688814331759       12.66685149453120       17.08626085615087
H            5.20667089530486       11.99918303458429       16.47173420241277
C            3.82957559071054       12.12209032622579       18.02140068348494
H            3.17254760900168       12.70266028065615       18.64686253964387
H            3.81941239624149       11.05968894740425       18.19454252665447
C            4.01198138470442       15.03524831658745       21.97525517336947
H            4.39211568855349       14.17288346279175       21.43323500279564
H            2.97002519077076       14.83853905224909       22.23635738601259
H            4.57827830693111       15.12605598858801       22.90098193405587
C            4.00456289478159       17.93238505106146       23.02419109752094
H            3.56783742412259       17.13735495877186       23.62250281735447
C            4.34595969942465       19.05943886335848       23.64997512184435
H            4.16138929464341       19.19383176395455       24.70311995009372
H            4.82526168627313       19.88623768179172       23.15466836819445
C            3.68511734371190       22.82038402271113       20.55955127762713
H            4.47848230913795       22.88396659117932       21.30437901427241
H            2.82700055788926       22.33442828135757       21.02081058622868
H            3.39605745683334       23.83033015722264       20.28038078092640
C            4.29460950558522       23.89112375752025       17.60419737346539
H            4.44945918434161       24.60558924323172       18.40951097449187
H            3.30398505957776       24.06698373764224       17.18086307834161
H            5.03168645462047       24.08196948248869       16.82949695364006
O            6.99209303588538       18.19509519171853       17.82704429509932
H            7.52294551770680       18.76476182281177       17.23951012423416
H            7.50894452372409       18.02938181383076       18.63824378576390
C           -0.95838212688261       19.39436141629192       17.10567192873500