78
 energy: -115.900423515380 gnorm: 0.278059699242 xtb: 6.7.1 (edcfbbe)
Fe          -5.54600000000000       57.15500000000000       20.85800000000000
N           -6.30700000000000       56.33800000000000       22.45100000000000
N           -6.49900000000000       58.80200000000000       21.48700000000000
N           -4.98100000000000       58.13000000000000       19.28300000000000
N           -4.50900000000000       55.42800000000000       20.59900000000000
C           -5.98800000000000       55.04799999999999       22.86600000000000
C           -6.67700000000000       54.77900000000000       24.09600000000000
C           -7.31000000000000       55.90100000000000       24.46800000000000
C           -6.93700000000000       56.92600000000000       23.53700000000000
C           -7.20300000000000       59.03800000000000       22.64100000000000
C           -7.78400000000000       60.36299999999999       22.58100000000000
C           -7.33100000000000       60.93000000000000       21.47600000000000
C           -6.66600000000000       59.91700000000000       20.69100000000000
C           -5.11300000000000       59.45700000000000       18.91100000000000
C           -4.24700000000000       59.70600000000000       17.76600000000000
C           -3.45700000000000       58.64800000000000       17.64400000000000
C           -4.04600000000000       57.58799999999999       18.43800000000000
C           -3.98800000000000       55.29300000000000       19.33600000000000
C           -3.65400000000000       53.88999999999999       19.12800000000000
C           -4.21700000000000       53.20600000000000       20.13200000000000
C           -4.93200000000000       54.16999999999999       20.95300000000000
C           -5.57000000000000       53.94800000000000       22.13600000000000
H           -5.74600000000000       52.93700000000000       22.49600000000000
C           -7.36100000000000       58.21800000000000       23.72500000000000
H           -7.78900000000000       58.56300000000000       24.66100000000000
C           -5.85200000000000       60.34399999999999       19.65800000000000
H           -5.79500000000000       61.40799999999999       19.43100000000000
C           -3.52900000000000       56.31000000000000       18.54400000000000
H           -2.65800000000000       56.08800000000000       17.92800000000000
C           -8.07900000000000       56.20300000000000       25.76300000000000
H           -7.50700000000000       56.93600000000000       26.37200000000000
H           -8.20600000000000       55.26899999999999       26.35000000000000
H           -9.07200000000000       56.63600000000000       25.51700000000000
C           -6.65900000000000       53.37299999999999       24.72300000000000
H           -5.61200000000000       53.00500000000000       24.77800000000000
H           -7.25400000000000       52.67500000000000       24.09600000000000
H           -7.08100000000000       53.41500000000000       25.75000000000000
C           -8.74100000000000       60.95000000000000       23.63700000000000
H           -8.63400000000000       60.38600000000000       24.58800000000000
H           -9.79000000000000       60.86299999999999       23.28300000000000
H           -8.49000000000000       62.01700000000000       23.82000000000000
C           -7.76000000000000       62.26100000000000       20.86700000000000
H           -7.14000000000000       62.77499999999999       20.11800000000000
C           -8.90400000000000       62.80800000000000       21.24900000000000
H           -9.15700000000000       63.83700000000000       20.95300000000000
H           -9.61500000000000       62.24099999999999       21.86700000000000
C           -4.00500000000000       61.03800000000000       17.03300000000000
H           -4.60800000000000       61.83900000000000       17.51100000000000
H           -4.31200000000000       60.94199999999999       15.97000000000000
H           -2.93000000000000       61.31100000000000       17.09500000000000
C           -2.42800000000000       58.39100000000000       16.53400000000000
H           -1.65300000000000       57.62500000000000       16.68400000000000
C           -2.41900000000000       59.05400000000000       15.37900000000000
H           -1.57200000000000       58.95400000000000       14.68400000000000
H           -3.25900000000000       59.71000000000000       15.10500000000000
C           -2.90600000000000       53.31099999999999       17.93200000000000
H           -1.81500000000000       53.31300000000000       18.14100000000000
H           -3.10100000000000       53.93100000000000       17.03100000000000
H           -3.23700000000000       52.26600000000000       17.75200000000000
C           -4.20400000000000       51.68500000000000       20.33000000000000
H           -3.20400000000000       51.28400000000000       20.05800000000000
H           -4.97000000000000       51.21500000000000       19.67700000000000
H           -4.41200000000000       51.44300000000000       21.39400000000000
O           -4.32400000000000       57.81500000000000       22.12300000000000
H           -4.50800000000000       57.34600000000000       22.93700000000000
H           -3.69800000000000       58.43500000000000       22.00300000000000
C           -9.01300000000000       55.17499999999999       16.89100000000000
H           -9.30900000000000       55.91700000000000       16.11900000000000
H           -9.91600000000000       54.61900000000000       17.22200000000000
H           -8.27400000000000       54.47200000000000       16.45000000000000
N           -9.09700000000000       56.81799999999999       18.77700000000000
H          -10.03900000000000       57.10900000000000       18.61200000000000
C           -8.40600000000000       55.88000000000000       18.04900000000000
C           -8.27800000000000       57.25000000000000       19.72300000000000
H           -8.54900000000000       58.00700000000000       20.45799999999999
N           -7.09700000000000       56.62300000000000       19.63200000000000
C           -7.15700000000000       55.75900000000000       18.58000000000000
H           -6.31400000000000       55.13900000000000       18.30399999999999
78
 energy: -115.985863342618 gnorm: 0.123717025522 xtb: 6.7.1 (edcfbbe)
Fe          -5.60880324777053       57.17141624651067       20.86967529255806
N           -6.29294768718660       56.32160181653073       22.47751024557514
N           -6.53542937956833       58.81862799308001       21.46836312388326
N           -4.94424858996069       58.12963698662475       19.29028948936516
N           -4.59033694655436       55.44035465181004       20.53244318389714
C           -6.04734669392378       55.02324685337978       22.86573763660603
C           -6.68601602519648       54.75338453232468       24.12313466263221
C           -7.29194033351870       55.89582349812569       24.51537508165174
C           -6.95598999242687       56.89664412170330       23.53850448504597
C           -7.21203458172517       59.06430048216086       22.62783426568794
C           -7.79881530741045       60.38319916322821       22.59368560629007
C           -7.37728007794715       60.95481350817291       21.44166933172497
C           -6.62417592227458       59.95699931587576       20.71769770134173
C           -5.09068743734554       59.44325610646570       18.90578518029904
C           -4.22249185040758       59.72637619485269       17.77485359778846
C           -3.46756177087972       58.61502394963183       17.58088840515333
C           -3.99583226298295       57.59487095495925       18.46949935362551
C           -3.94258803137326       55.28323984168443       19.34159612809432
C           -3.64853495652162       53.88031280614901       19.11211815324002
C           -4.22732333600444       53.18889303197855       20.12078098925581
C           -4.88359546430833       54.16725170280196       20.96388698114644
C           -5.56138693366859       53.95100169298941       22.13300900235097
H           -5.73373741723860       52.94609022336842       22.48970991198211
C           -7.35822098059952       58.20731847206071       23.69848370789160
H           -7.78721751931693       58.54664314230680       24.63245852585728
C           -5.84255599517073       60.33531816873997       19.63969143495357
H           -5.80057255312691       61.39115844656775       19.40495809113870
C           -3.49713593681035       56.31177177199611       18.54145356050548
H           -2.66352378830426       56.08114090945396       17.89382532510152
C           -8.07475732710111       56.19871217060731       25.76578171128204
H           -7.51730957912522       56.92486729000524       26.37038415676459
H           -8.21004960416655       55.28222668501090       26.34675838919718
H           -9.05636715691831       56.62501913295109       25.52214430378174
C           -6.66327752640049       53.37679466595749       24.73360190862484
H           -5.63021336690265       53.01043638799312       24.78202631156606
H           -7.25088551921578       52.68570557076378       24.11497157068875
H           -7.07870949396878       53.40813554440993       25.74385954571440
C           -8.72818635862247       60.94483684013148       23.64360765755169
H           -8.63436306754203       60.39580111958829       24.58434279511497
H           -9.76858510176345       60.85712299247218       23.30074351499420
H           -8.49616316370669       62.00177508855557       23.81898454090188
C           -7.77040350058939       62.26226216558794       20.87623584379143
H           -7.13380300532550       62.76325933127335       20.14754042422855
C           -8.91208680950067       62.82167991238119       21.24492638230316
H           -9.17154065472535       63.82804563189696       20.93873199143726
H           -9.61468320543567       62.27632016962510       21.85860317339200
C           -4.01818924998042       61.04161372652965       17.05419255853183
H           -4.60485622633629       61.84024265022636       17.51385932759469
H           -4.32184434851618       60.95758082845458       16.00322722777671
H           -2.95299779513855       61.30648416835197       17.08908964310602
C           -2.43865000712663       58.39021393555318       16.53035492360519
H           -1.66273890888734       57.64481432605363       16.70847328603899
C           -2.41454152679985       59.05119103797601       15.37928659864242
H           -1.59038932390132       58.94027391694087       14.68197956860139
H           -3.22846483507739       59.70402862812109       15.09454237056151
C           -2.90544105178263       53.31464389969992       17.93455197832956
H           -1.82627643248087       53.31162686608494       18.13491260324277
H           -3.09549679282561       53.92007765579314       17.04131330288855
H           -3.23010680965387       52.28389221153986       17.75055298429849
C           -4.20678817079131       51.69410920833170       20.32969916224133
H           -3.22172042078823       51.29150815519073       20.06200739865794
H           -4.96152274208915       51.21777012293666       19.69079206843706
H           -4.41135844725002       51.44514996613446       21.37659055667108
O           -4.29186006057034       57.79388321469253       22.12530526632220
H           -4.48108705975470       57.35896861365062       22.96038169952979
H           -3.64667704909980       58.46619841413033       22.01605107159592
C           -9.01868628324718       55.17257414175911       16.88191555639803
H           -9.31188568811465       55.90223939133038       16.11733184407586
H           -9.90857609313802       54.61917924923442       17.20619456124402
H           -8.28989987203244       54.47863892469163       16.45282650878027
N           -9.09483273265779       56.80845628687228       18.76762139390022
H          -10.04058816293105       57.10521679152099       18.60328063923514
C           -8.41145122463035       55.87264329357831       18.03717539848625
C           -8.27239577226536       57.24163110554916       19.72893488686513
H           -8.53876013159220       57.99239981546420       20.45322912838429
N           -7.10989026210122       56.62241982413052       19.65185834155608
C           -7.16967472743312       55.76871900656981       18.59142117009571
H           -6.32963633047297       55.15389333816201       18.31488429832707
78
 energy: -116.020482340481 gnorm: 0.049271552662 xtb: 6.7.1 (edcfbbe)
Fe          -5.64530966137220       57.17198186845340       20.87809555184342
N           -6.30107477307283       56.29799688172576       22.49204051614333
N           -6.54829955253813       58.83544493319971       21.44832872099135
N           -4.89740070469867       58.12880300981131       19.30258209071220
N           -4.64581002550700       55.44424361635296       20.46795344997599
C           -6.11243473701906       54.99911723652517       22.85630833585152
C           -6.70941077415742       54.72851349651674       24.13599481004898
C           -7.27838083238567       55.89133169333039       24.55257918590912
C           -6.97417266520386       56.86832927709765       23.53610744378718
C           -7.22020763133697       59.08304797320485       22.60681536617730
C           -7.80502181810363       60.39697825980529       22.59878888213548
C           -7.40845149621704       60.97543007612560       21.41772606983846
C           -6.58606379056511       59.99346088319437       20.74007043971766
C           -5.05465681008210       59.43007987670947       18.91402577655506
C           -4.20042599028181       59.73572622891852       17.78737764640502
C           -3.47464130706153       58.59210316896527       17.53599570518700
C           -3.94931532715077       57.60212400120130       18.49318722583892
C           -3.91448672694017       55.27563040637709       19.33661268660976
C           -3.63583242726352       53.87815103466508       19.10476933912036
C           -4.22796484318525       53.18712854844811       20.11816038748298
C           -4.86149059624007       54.17736183546997       20.95274737598956
C           -5.56006838867796       53.96254820299556       22.11598210770615
H           -5.70310692067098       52.95827914717584       22.48008047479956
C           -7.35788510504066       58.19110903721597       23.65812041268780
H           -7.79349768210498       58.52519964250605       24.58859340177913
C           -5.83829291811071       60.32442799097168       19.61991611766678
H           -5.81995124856679       61.37164687403112       19.35943982592329
C           -3.47511652468483       56.30760539496936       18.52542365748544
H           -2.67468599757189       56.06562573666268       17.84473744714576
C           -8.06390017898458       56.19295510931281       25.77639673964928
H           -7.52813946478980       56.91941693877575       26.38611884298723
H           -8.21521360643681       55.28855079734536       26.35570532444244
H           -9.03751901966264       56.61280012070249       25.52363323057839
C           -6.67341057196842       53.37845887504280       24.75079476107187
H           -5.64789361416666       53.01310800937468       24.79430693126353
H           -7.25406009448902       52.68487883133562       24.14237145949752
H           -7.08308045722294       53.39833680364783       25.75301394411711
C           -8.71539777033999       60.94057458532163       23.64427344231077
H           -8.62315157052426       60.40116425397529       24.58034898528969
H           -9.75502471242461       60.85139241761379       23.31969056042969
H           -8.50147328213546       61.99329524927963       23.81968433259540
C           -7.78272441810543       62.25967762395010       20.89007068604472
H           -7.12457244146058       62.74878315240385       20.18161832558878
C           -8.92463253450292       62.84278387834647       21.23928262427414
H           -9.18804360511973       63.83103339989059       20.91344367237360
H           -9.62867086952258       62.32182734223530       21.85372074129139
C           -4.03226216027550       61.03998353705708       17.07848746741050
H           -4.60608249313261       61.83681023907439       17.53505616806309
H           -4.34304844393636       60.96839144771974       16.03643088134448
H           -2.97375647982849       61.30898730639960       17.08451586925914
C           -2.45635549174503       58.38924613564185       16.53182679176233
H           -1.67769638326294       57.66270942041814       16.74151453882095
C           -2.41144637867342       59.04354279892650       15.37515335434984
H           -1.59979404673534       58.92147516996452       14.67952394945224
H           -3.19871849474014       59.70613942843926       15.07759573866779
C           -2.90180510567824       53.31809929070113       17.93721979382314
H           -1.82863961577909       53.31238187271270       18.12800304119181
H           -3.08929447775157       53.91172288876495       17.04603271899736
H           -3.22149812321904       52.29542855987741       17.75002921474645
C           -4.21017025559549       51.70897495556755       20.33011169804105
H           -3.23508858802886       51.30088678606181       20.06620327848544
H           -4.95708601672454       51.22158299845281       19.70147309220656
H           -4.41549569407090       51.45407959157534       21.36573486914622
O           -4.21429750174587       57.75562732755517       22.11988210827273
H           -4.43490766340659       57.40129721363433       22.99463749171683
H           -3.60781090184051       58.49896034530360       22.04722338371142
C           -9.02059549177114       55.17030909095540       16.87358930381958
H           -9.31494743073475       55.88920016102917       16.11139036624158
H           -9.90357513870387       54.61735658059498       17.18992229517730
H           -8.30026208099549       54.48011166324903       16.45087699486369
N           -9.09885306334869       56.80142225860249       18.75890157738387
H          -10.04527078929891       57.10209505702377       18.59176758924408
C           -8.41393137559164       55.86871023546899       18.03026517790957
C           -8.27965919007153       57.23350738835234       19.73885185071230
H           -8.54604929550450       57.97997455814834       20.45392838685465
N           -7.12325252334669       56.62944729424208       19.67722758607161
C           -7.18104470713750       55.77893905056022       18.61205492628113
H           -6.34393910965670       55.16913562674515       18.33353344065087
78
 energy: -116.035238150131 gnorm: 0.055380645417 xtb: 6.7.1 (edcfbbe)
Fe          -5.64512445023632       57.16974543985471       20.88588764938032
N           -6.31730838363275       56.27554884174561       22.49491620061838
N           -6.53850814237900       58.85273254473899       21.43851683432354
N           -4.84886742537537       58.12805228271217       19.32014186613622
N           -4.68004547931913       55.44352263006629       20.41706452280758
C           -6.15696330952291       54.97511941181516       22.84495852174452
C           -6.73155662208409       54.70931989278568       24.13934291978329
C           -7.27060323299050       55.88400678323259       24.57058796322170
C           -6.98737046714307       56.84889767213188       23.53333350729105
C           -7.23024926254335       59.08547443627869       22.58893724682379
C           -7.81496918127113       60.39505664938711       22.59191136768946
C           -7.42258337292858       60.98405869738681       21.40867274964195
C           -6.56563026474378       60.01696330550074       20.74638905255681
C           -5.02218407786457       59.42290351194751       18.93052936280376
C           -4.19174441278775       59.73416741745576       17.79555234721545
C           -3.47218724539716       58.58891834691508       17.52309144370103
C           -3.91154862443199       57.60565852293282       18.50138474764380
C           -3.90343833821690       55.27477966434097       19.31847163372590
C           -3.62594237264036       53.87881069171365       19.09618021724223
C           -4.22800972718627       53.19441047560944       20.11148192957316
C           -4.86895440549349       54.19016138285424       20.92990772597093
C           -5.56578040698932       53.96764720462059       22.09567668240078
H           -5.66398079371183       52.95950884362150       22.46887921854286
C           -7.36978117541571       58.17340777611852       23.62394742068732
H           -7.82232451659933       58.50290794798556       24.54616034368861
C           -5.83478865397404       60.31838185752211       19.60729138370657
H           -5.85325054332886       61.35413836268948       19.29366012603002
C           -3.45616014491450       56.30168592150712       18.50264645643840
H           -2.69025400990858       56.04446514875495       17.78227279000506
C           -8.05441721706621       56.18703686948358       25.79333896366555
H           -7.53442306184595       56.91701508266993       26.41249450610956
H           -8.21721105776318       55.28664187775028       26.37597306752107
H           -9.02581867088959       56.60317002780220       25.52825822309688
C           -6.68929812102212       53.36928279721105       24.77250043667267
H           -5.66262532727358       53.00919703263060       24.81671967947375
H           -7.26676877840038       52.66448324071366       24.17487586654558
H           -7.09474724957014       53.39090538645507       25.77673244270284
C           -8.70821763597111       60.93537870234590       23.64944245652763
H           -8.59782266255136       60.40077750305178       24.58683367860738
H           -9.75286013264285       60.83934715435613       23.34580876954709
H           -8.50326406544953       61.99081764500959       23.81960086445411
C           -7.79219705625118       62.27318359778180       20.90264617293701
H           -7.11350654299456       62.75353815360837       20.20904768997135
C           -8.93542867194844       62.87600619543043       21.22764243526434
H           -9.20020567704878       63.85211405587784       20.86713938707615
H           -9.65511502052518       62.37900414576341       21.84534124159453
C           -4.05041809675231       61.04458062136387       17.10209427143212
H           -4.61332042169144       61.83602361272321       17.58225540188949
H           -4.39066956146374       60.98608893159925       16.06921700559031
H           -2.99314675488601       61.32022439369583       17.07758715820892
C           -2.45424164519930       58.39363938491893       16.53046113901466
H           -1.67994183542977       57.67200470719803       16.76507317598030
C           -2.39336848588569       59.03438725431365       15.36471737937905
H           -1.58975575753647       58.88398587044799       14.66691092169397
H           -3.16711954328980       59.70407526494000       15.04744090485711
C           -2.88944498793080       53.31665000283292       17.93419641072425
H           -1.81613301069352       53.31200730264416       18.12045495413777
H           -3.07867541532605       53.90589370740198       17.04120299000683
H           -3.20877875827645       52.29491813061679       17.74773811122784
C           -4.21364999988391       51.72069688582000       20.33131042826099
H           -3.24041324442382       51.30920924581802       20.06989663812590
H           -4.96029783119436       51.22798167847026       19.70702282182478
H           -4.42240635381159       51.46862106571864       21.36606579615159
O           -4.10532604770840       57.70248849790420       22.11294769319175
H           -4.38830826349430       57.46410217142488       23.03105097563843
H           -3.57782394775291       58.53396921012826       22.08520922399084
C           -9.01713650688630       55.16872951925097       16.87014477593510
H           -9.31393876389122       55.88174206611197       16.10392553352548
H           -9.90067456973096       54.61237903723698       17.17782741843735
H           -8.29895508182489       54.47740582007367       16.44749840594653
N           -9.11151809511450       56.79820639842956       18.75571719495535
H          -10.05611539150125       57.09906998646380       18.57980709272555
C           -8.41591502404679       55.86872097064812       18.03242163477280
C           -8.30332223379988       57.23049232608432       19.75010336604547
H           -8.57753248306491       57.97442368665831       20.46297318108505
N           -7.14097069686899       56.63646891557352       19.70326341750678
C           -7.19080576897190       55.78663763144488       18.63480009232298
H           -6.35283942942279       55.18082456987592       18.35847437225225
78
 energy: -116.044062320960 gnorm: 0.035520223049 xtb: 6.7.1 (edcfbbe)
Fe          -5.63278081937792       57.16876773041797       20.89291905387024
N           -6.33366982384216       56.25615016422358       22.49634567619632
N           -6.51917506230981       58.87185517483024       21.43833257648665
N           -4.80381603405372       58.12778054889917       19.33975091609982
N           -4.70539396639662       55.44670254861301       20.37431915445384
C           -6.18692692266192       54.95290357092533       22.83764204159496
C           -6.75385387941388       54.69247548315503       24.13947417513942
C           -7.26952041354996       55.87386341646516       24.57868750248819
C           -6.99822301663301       56.83490152138302       23.53363288581433
C           -7.24042760459043       59.08306408325306       22.57718114428249
C           -7.82730372463406       60.38997322095271       22.58248569609194
C           -7.42974916640181       60.99083986586404       21.40840568549668
C           -6.55651503098265       60.03628634340188       20.74799385999010
C           -4.99683885983430       59.41907343457135       18.94933497991439
C           -4.18440460811542       59.73309243895054       17.80508335632803
C           -3.46412841653085       58.59571687352898       17.52334358038896
C           -3.88025903906377       57.60887766027783       18.50142784479137
C           -3.90430164493201       55.27833461757906       19.29453430270209
C           -3.61674002243131       53.88109247687156       19.08835905003212
C           -4.22588181237790       53.20593863550856       20.10429522352995
C           -4.88430747258698       54.20677429266117       20.90663254904327
C           -5.57149993506669       53.97125886390830       22.07833420077560
H           -5.62405393495880       52.95847341068218       22.45567871571586
C           -7.39000674940572       58.15640864041845       23.59727085496369
H           -7.87193216027049       58.47975023369464       24.50676320570805
C           -5.83671887905113       60.31351896562031       19.59750392251311
H           -5.89314677348025       61.33262083889317       19.22319572405580
C           -3.44574887377200       56.29552471354540       18.47503715394301
H           -2.70968386307115       56.02661707920831       17.72590594257685
C           -8.04673128180923       56.17955092435155       25.81000515624842
H           -7.53331937360123       56.91164340910427       26.43408608503139
H           -8.21318300818903       55.28048527608969       26.39668149758787
H           -9.01853948401889       56.59378507457520       25.53930438433285
C           -6.70783831306981       53.35750386824098       24.79407018541573
H           -5.67840329647352       53.00305635955671       24.84551959825248
H           -7.28297630755868       52.63732971398301       24.21066760974464
H           -7.11166467845041       53.39146059240802       25.80121531586294
C           -8.70638788929198       60.93227058789883       23.65386499836177
H           -8.56525421259980       60.40408237419676       24.59408927110956
H           -9.75768875017303       60.82540143187919       23.37504574185003
H           -8.50498201566991       61.99106096364790       23.81353358196476
C           -7.80228524825264       62.28818670513235       20.90846461645139
H           -7.10263946704560       62.76429227312288       20.23146272532379
C           -8.94543100349486       62.90635037948408       21.20703091690793
H           -9.19856288412844       63.87794936536667       20.82084566992447
H           -9.68368331236333       62.43840094633201       21.83304931441975
C           -4.06813444994202       61.05160935952883       17.12152639015346
H           -4.61774529195846       61.83407399541089       17.63841799022362
H           -4.44794034142314       61.00295292372474       16.09974663249611
H           -3.01315763723356       61.33522686832180       17.06499977158481
C           -2.44748147226205       58.39623146294572       16.52421679565050
H           -1.67586035746919       57.67887757268382       16.78091304306269
C           -2.37694390377135       59.01955428281915       15.34984567832171
H           -1.57257575979210       58.84550568917263       14.65643872422775
H           -3.13331655376037       59.70959012343659       15.02213623108617
C           -2.87198084359867       53.31311277759342       17.93134974162403
H           -1.79749343614997       53.31294100084992       18.11594085918265
H           -3.06305392837346       53.89732787343370       17.03359149160069
H           -3.18870062871158       52.28907504463007       17.74802433140340
C           -4.21686283279224       51.73237723821231       20.33312669330464
H           -3.24408233146546       51.31679385658906       20.07438104498467
H           -4.96668498108056       51.23776663322193       19.71242978026193
H           -4.42820856561951       51.48802838058965       21.37040629136451
O           -4.02622516368969       57.68758369143073       22.12614982785047
H           -4.29100447923894       57.47126452084130       23.02923618922330
H           -3.53801866413236       58.53444008749840       22.11651748320621
C           -9.01087784418647       55.16695845862348       16.86988610425869