87
 energy: -124.719933087566 gnorm: 0.000051006139 xtb: 6.7.1 (edcfbbe)
Fe          83.64336755155195       17.62573151536802       30.54590680260430
N           83.11786154486116       16.22180205588215       31.87849283153609
N           82.38001255238989       16.83083726821674       29.21840983715908
N           84.10808950260378       19.06795158272643       29.24734706642981
N           84.90742972801179       18.41478369062416       31.88466755175702
C           83.61865461115964       16.05103192831874       33.13173609304734
C           82.95617849498058       14.95452496862435       33.80226658072288
C           82.02798477976357       14.48006791275810       32.92863845000768
C           82.14894730314893       15.28160179808675       31.73156248811334
C           81.54122563429135       15.78035632172998       29.41003487423501
C           80.81081141827941       15.48240613775500       28.19733684062642
C           81.23658391958206       16.37726501786287       27.26669336332683
C           82.20653855666951       17.22156298847834       27.92993210170023
C           83.66023081815902       19.19515315152274       27.97514294964115
C           84.18598196542528       20.40200433614492       27.36482068048753
C           84.94217844439098       21.01251296831519       28.32964230702688
C           84.88999705772154       20.15469679776314       29.48613272418133
C           85.66073203404642       19.53353522904623       31.73120481468987
C           86.48936075981166       19.75521970851438       32.89883857705110
C           86.17862673068397       18.75240671808205       33.77734241152076
C           85.19443487498869       17.93108654272008       33.12434767699737
C           84.60616343769368       16.82291548277303       33.71167786342371
H           84.92304587958304       16.56298235357053       34.71047777285703
C           81.40384143010880       15.06872604337977       30.58640370562866
H           80.67695839121853       14.27113719542221       30.60595942578373
C           82.81169820440857       18.31118089659781       27.33390012691440
H           82.57189413464981       18.50667991693968       26.30004955455890
C           85.60806130562453       20.38650644342842       30.64511375198942
H           86.19481718273086       21.29005141729528       30.70055166805544
C           83.27598357082917       14.49651507616651       35.18431525304688
H           83.10135377729840       15.29577161821273       35.90557890388615
H           84.32249962880366       14.19926818295317       35.25824234554626
H           82.65910132121138       13.64528936129767       35.46175855156527
C           81.05927162471707       13.36020128775907       33.09675084973333
H           81.25319928205609       12.57243889781596       32.36801246337039
H           80.03806245317251       13.71204433261557       32.94940712165145
H           81.13314388028961       12.92999556915696       34.09265528807675
C           86.75247633719887       18.49254389876118       35.12771653493747
H           87.27155880666865       17.53345900292783       35.14798567373757
H           85.96590999176838       18.46418802651517       35.88293128092591
H           87.46392579277448       19.26951170660514       35.39578250127128
C           87.46736462786816       20.80686033013808       33.09086212761383
H           87.51463380918725       21.21847600450731       34.09378255018473
C           88.31172354081133       21.25562326519253       32.16936933146447
H           88.34483066472714       20.84441303350563       31.17471931594882
H           89.01952638752348       22.03831432691795       32.38735881164517
C           85.65032483656658       22.32042164571689       28.26587496582207
H           86.70849112790744       22.17971399410146       28.03877872950104
H           85.57727410447545       22.84486965329112       29.21747483390847
H           85.21334479930606       22.94387555856444       27.48826297867698
C           83.89656739695576       20.83839534239516       26.01716958886246
H           82.92029701797216       20.56317956990502       25.63483978373744
C           84.72202626767958       21.52458799518223       25.23322119926825
H           85.72052664024449       21.78320034282725       25.53885592140651
H           84.43338050706313       21.82802904028540       24.24043313982574
C           80.82685174803257       16.52682037087556       25.84188707177661
H           81.69604100302777       16.46781699988745       25.18700505664336
H           80.34590503854753       17.49209117831977       25.67923956432426
H           80.12772059019123       15.74473052071205       25.55587625020478
C           79.80923349134734       14.38640551294911       28.06705060071000
H           80.27046684462438       13.41827594040522       28.26498562964260
H           79.38702396035622       14.36561851412626       27.06541695005732
H           78.99548669497682       14.52451625332478       28.77945849412245
C           79.26736911312621       21.02550332798959       31.08321566856523
H           79.43999153830872       22.02065560055219       31.49298329048359
H           78.35963727348103       20.62405812234694       31.53376086972076
H           79.11545990527614       21.11209981731241       30.01195685572302
N           80.85463209396401       19.84460770263370       32.61879274789786
H           80.44502005567067       20.18850934324656       33.47176677889819
C           80.42664332599345       20.13702113471607       31.35006856316568
C           81.91955885007565       19.01872383650515       32.51117497504551
H           82.46068191114273       18.62457055486890       33.34635055716925
N           82.19084229049753       18.77103268268170       31.25360879687361
C           81.27130765587629       19.45894391716104       30.51886845249154
H           81.27955362275681       19.41977576466607       29.44962567493934
C           87.74289909413295       17.52335197601249       29.83246011473074
H           88.67978107023455       17.63875713580305       30.37409517402137
H           87.17981112351602       18.44971745155003       29.90668498374256
H           87.96094548259143       17.33396734191937       28.78411427016239
C           86.93878561159704       16.37989577252787       30.41902433531340
H           86.73862715930402       16.54006342087873       31.47755269427138
H           87.45376838536573       15.42901791692556       30.27961769145552
S           85.32384254558434       16.24208392035675       29.55123047064547
C           84.93349915580656       14.52972141095138       30.02150780435918
H           84.94659990595362       14.43078735452844       31.10222893913398
H           85.65634065477708       13.86124245156640       29.56087335361813
H           83.93716636023278       14.32171130049016       29.64674638247931
