78
 energy: -115.929457568422 gnorm: 0.365211105608 xtb: 6.7.1 (edcfbbe)
Fe          28.18700000000000       93.94799999999999       52.99499999999999
N           29.25500000000000       95.61300000000000       52.37600000000000
N           29.29600000000000       93.89000000000000       54.74200000000000
N           27.14000000000000       92.29799999999999       53.65699999999999
N           27.07400000000000       93.98799999999999       51.25200000000000
C           28.97100000000000       96.36000000000000       51.30499999999999
C           29.70600000000000       97.53199999999998       51.30399999999999
C           30.41800000000000       97.51100000000000       52.49000000000000
C           30.06200000000000       96.34199999999998       53.12100000000000
C           30.17800000000000       94.80899999999998       55.12499999999999
C           30.80000000000000       94.47499999999999       56.30700000000000
C           30.28900000000000       93.19799999999999       56.62400000000000
C           29.33600000000000       92.90800000000000       55.64800000000000
C           27.45000000000000       91.51899999999999       54.71300000000000
C           26.56100000000000       90.45600000000000       54.83100000000000
C           25.65300000000000       90.62800000000000       53.74999999999999
C           26.13500000000000       91.70199999999998       53.01199999999999
C           26.12300000000000       93.10899999999999       50.90100000000000
C           25.71200000000000       93.31699999999999       49.59200000000000
C           26.39500000000000       94.45600000000000       49.17399999999999
C           27.18200000000000       94.85400000000000       50.25699999999999
C           28.02300000000000       95.98300000000000       50.32200000000000
H           27.93000000000000       96.67400000000001       49.48599999999999
C           30.48800000000000       95.95500000000000       54.39200000000000
H           31.16400000000000       96.65199999999999       54.88600000000000
C           28.50100000000000       91.78500000000000       55.60500000000000
H           28.69100000000000       91.02100000000000       56.35900000000000
C           25.66900000000000       92.09500000000000       51.75500000000000
H           24.82100000000000       91.52400000000000       51.38000000000000
C           31.37800000000000       98.55200000000001       53.00200000000000
H           30.93000000000000       99.07199999999999       53.87499999999999
H           31.58299999999999       99.29800000000000       52.20500000000000
H           32.32500000000000       98.06499999999998       53.32000000000000
C           29.71200000000000       98.61700000000000       50.23200000000000
H           28.72000000000000       98.65200000000000       49.73400000000000
H           30.48900000000000       98.38900000000000       49.47099999999999
H           29.91600000000000       99.60399999999998       50.69900000000000
C           31.87300000000000       95.34699999999999       56.95500000000000
H           31.51100000000000       96.39500000000000       57.01800000000000
H           32.79800000000000       95.32200000000000       56.34100000000000
H           32.08800000000000       94.97799999999999       57.97999999999999
C           30.62500000000000       92.30199999999999       57.64500000000000
H           30.00200000000000       91.40300000000001       57.74600000000000
C           31.71200000000000       92.41000000000000       58.60599999999999
H           32.39100000000000       93.27500000000001       58.58600000000000
H           31.86700000000000       91.62800000000000       59.36400000000000
C           26.53500000000000       89.49200000000000       56.03100000000000
H           26.51500000000000       90.07599999999998       56.97599999999999
H           27.44500000000000       88.85499999999999       56.02099999999999
H           25.62600000000000       88.85599999999998       55.98200000000000
C           24.49400000000000       89.92800000000000       53.35699999999999
H           23.86000000000000       90.40300000000001       52.59600000000000
C           24.01500000000000       88.63199999999999       53.83600000000000
H           24.57900000000000       88.07599999999999       54.59900000000000
H           23.08500000000000       88.19900000000000       53.43900000000000
C           24.75300000000000       92.46400000000000       48.76300000000000
H           23.70500000000000       92.70699999999998       49.04100000000000
H           24.93900000000000       91.38699999999999       48.96400000000000
H           24.89800000000000       92.67899999999999       47.68299999999999
C           26.30300000000000       95.10599999999999       47.80500000000000
H           25.29300000000000       94.92799999999998       47.37700000000000
H           27.06400000000000       94.66300000000000       47.12700000000000
H           26.46800000000000       96.20099999999999       47.89700000000000
O           26.92000000000000       95.14799999999998       53.87000000000000
H           26.18000000000000       94.60200000000000       54.13500000000000
H           27.00200000000000       96.02399999999999       54.00200000000000
C           30.77700000000000       90.22899999999998       49.75100000000000
H           31.11500000000000       89.26399999999998       50.18600000000000
H           31.58100000000000       90.63100000000000       49.09800000000000
H           29.85600000000000       90.05200000000001       49.15500000000000
N           31.19700000000000       91.58499999999999       51.92300000000000
H           32.09300000000000       91.20699999999998       52.15199999999999
C           30.48300000000000       91.21700000000000       50.87200000000000
C           30.56200000000000       92.50200000000000       52.60200000000000
H           30.94100000000000       92.98099999999999       53.50400000000000
N           29.42100000000000       92.72600000000000       52.00899999999999
C           29.33100000000000       91.96299999999999       50.95500000000000
H           28.45400000000000       91.98999999999998       50.32000000000000
78
 energy: -116.011120293043 gnorm: 0.151564085251 xtb: 6.7.1 (edcfbbe)
Fe          28.19623279490617       93.93775796165211       52.97900728702724
N           29.21417054599157       95.60353826145986       52.38448909322268
N           29.27646018647089       93.89309274465424       54.72411026299103
N           27.16353921239417       92.30679359379791       53.64214456372847
N           27.06931203634850       93.99839796744732       51.28291531903817
C           28.95176819681845       96.34540948868168       51.28625013391446
C           29.70839802738508       97.54659077286065       51.29767212731837
C           30.42213879244072       97.52978606531839       52.47586388762224
C           30.06370365595449       96.33069917013697       53.13058633912748
C           30.17346592668837       94.82235100709703       55.11442655643867
C           30.81506194376261       94.46602082999090       56.31679845718664
C           30.31177930092000       93.20131684904941       56.64390133942216
C           29.32718181709564       92.90395374602461       55.64309420228248
C           27.45649494101617       91.53090951035527       54.71843877101561
C           26.54365158225567       90.45293241206203       54.83749165316008
C           25.64830863462247       90.59555693491835       53.76268463179056
C           26.12643917304156       91.71612152738979       53.01276160052053
C           26.12974173509965       93.09563437784860       50.91581097629513
C           25.70957358357211       93.32345487691754       49.57812615060961
C           26.38301983358140       94.45516475231587       49.16271086703227
C           27.20151691463578       94.85867090942544       50.25802115943105
C           28.02773694295203       95.98227731498990       50.30335065715029
H           27.93247771486959       96.67314482427985       49.47606137446473
C           30.49625407157099       95.96519443627062       54.39497677170665
H           31.17051711420618       96.65574959006686       54.88358824085115
C           28.50293849628241       91.78403385357622       55.60789395230567
H           28.68169649062715       91.02450927551570       56.35902416825679
C           25.65835959284563       92.09265865801456       51.75663240930901
H           24.82579871725623       91.51956334794897       51.36959323193357
C           31.37609173980343       98.55582774480555       52.99798403233029
H           30.94074305083844       99.06999324143234       53.86539255025945
H           31.58839709249968       99.29343465309006       52.21875320480217
H           32.31316981880612       98.07894200857825       53.31327964217883
C           29.71113274081896       98.61384251826789       50.23768745755902
H           28.73578945163712       98.65556278787460       49.73984844685820
H           30.47762150870295       98.39633121280558       49.48207390275952
H           29.91536932994741       99.59165823144129       50.68742491707076
C           31.86464535728837       95.33604756470805       56.95806326459581
H           31.51497864329149       96.37522094934906       57.01783971520074
H           32.78406346919786       95.31938064410754       56.35660513948922
H           32.08725135586251       94.99281970645841       57.96948059029447
C           30.65593648028476       92.30413351903232       57.68710030863907
H           30.03054417375601       91.41369728819328       57.76398667469016
C           31.68583987925556       92.40512352727266       58.58673289401306
H           32.37280173698014       93.24357728616600       58.58035128583857
H           31.85086028073746       91.64037690400097       59.33857925214674
C           26.53049892856457       89.50175453175191       56.01588580029392
H           26.51585387748036       90.06882736273343       56.95671181440323
H           27.42680126786174       88.86615881562172       56.01610864767544
H           25.64250661599461       88.86636242261666       55.98795784952775
C           24.47781146284492       89.87930079714761       53.37783653728990
H           23.86134183752677       90.36958078487004       52.62056962278702
C           24.02659460773321       88.66367338629331       53.82713891129382
H           24.57018530188913       88.09205558946169       54.57085074467759
H           23.10988218985692       88.22609243429368       53.44266888573999
C           24.75916117840577       92.47417566983447       48.77011385727592
H           23.71838153538668       92.70240801949474       49.03728796101416
H           24.93659190986162       91.40753568109332       48.95959518536088
H           24.89476773484202       92.67269829893401       47.70129150952695
C           26.29888481731502       95.10351975336370       47.81059677012864
H           25.30649473852856       94.93407096695687       47.37801922632322
H           27.05245115657838       94.67471349748934       47.13569308820037
H           26.46708327074536       96.18367300982649       47.89070207412611
O           26.90546446150843       95.13637506618446       53.87762155146116
H           26.15261764407332       94.61572948872629       54.15214786617638
H           26.98298173893770       96.06099069005765       54.01987593499027
C           30.78552396674196       90.22457641192146       49.75776515491368
H           31.11698065206183       89.26835855894291       50.17758854709492
H           31.57225707999915       90.62019617903883       49.10374280900415
H           29.87776984293297       90.05785404842926       49.16847027769171
N           31.22003725283535       91.56615265048775       51.90773494010496
H           32.11854840070935       91.18679658258961       52.13942209747527
C           30.47152205783481       91.20390809534703       50.84741651757631
C           30.57380789593437       92.49934666696186       52.60469648839592
H           30.94856248721538       92.97211912940143       53.49302304528551
N           29.42060378906128       92.73725375284026       52.02915369005522
C           29.32711015275488       91.96172398568643       50.94986274827661
H           28.45794606066350       91.98876282395098       50.32084038197399
78
 energy: -116.032384762677 gnorm: 0.051873750200 xtb: 6.7.1 (edcfbbe)
Fe          28.19948987238936       93.93232380476361       52.96568358006231
N           29.16977787632026       95.59999290646485       52.39581082829222
N           29.26642242274345       93.89502112150028       54.70439151559394
N           27.18638203631145       92.31233198109423       53.62287620787376
N           27.07483287438959       94.00191339200775       51.30605839278119
C           28.92914815895273       96.33400594807692       51.27712918143691
C           29.70600069131158       97.55156384594423       51.29534101321490
C           30.41642970280559       97.53672255553622       52.46100437118711
C           30.05192578666109       96.32159130622793       53.13768542157291
C           30.16905829339670       94.83125400514410       55.10050666947617
C           30.82188689162741       94.45322208112849       56.31739609612403
C           30.32642189094615       93.20571620327289       56.64625007401486
C           29.32234053107419       92.90308661886083       55.63198364803728
C           27.46522117428877       91.54617697200496       54.71676712494373
C           26.52881546539306       90.46225201746610       54.83850975400179
C           25.65221429387270       90.58413892153241       53.77462520558878
C           26.12675048503342       91.72680767279090       53.00936765797189
C           26.13821354904118       93.08841297225725       50.93312507664253
C           25.71149865953173       93.33160566767205       49.57581641058577
C           26.37598191951705       94.45149995338130       49.16225813469175
C           27.21881217318203       94.85921329498925       50.26337720442550
C           28.03108129420885       95.98143522112500       50.28484647675349
H           27.94434229203879       96.66343036995615       49.45232796475457
C           30.50053070205261       95.97547737719046       54.39481196935510
H           31.18347589769492       96.65913342518132       54.87369761328137
C           28.50458342512770       91.78652362262306       55.60934536981991
H           28.66616798001432       91.03429511723446       56.36751077390134
C           25.65053211930381       92.08766551079384       51.75648350323575
H           24.83170824302375       91.50788208977404       51.35706881493371
C           31.36995199683941       98.55407167919802       52.98997237944373
H           30.94610362013949       99.06637310822745       53.85550075921721
H           31.59417067739286       99.29309969394816       52.22722771699834
H           32.30190251231146       98.08518441979771       53.30398604118629
C           29.70876237726782       98.60732772787401       50.24209855324158
H           28.74417621666966       98.65857686509307       49.74293605502687
H           30.46946532053872       98.39856354193134       49.48850666015828
H           29.91771637702101       99.58108789771146       50.67912726899139
C           31.85305561321244       95.32109865459681       56.96108337776859
H           31.50810102890156       96.35457076529880       57.01379839857899
H           32.77339131814971       95.31096710157240       56.37262037561005
H           32.08124384479454       94.99914726701638       57.96827273784209
C           30.67533228934337       92.30381535097543       57.71086497396846
H           30.04009543014632       91.42565292745699       57.77577723631497
C           31.66737729356173       92.39985960051739       58.57225729321041
H           32.36655325368071       93.21656288052267       58.57839615569711
H           31.83674142797982       91.64628274100480       59.32309502695156
C           26.52471884007822       89.51690253800021       55.99801861858121
H           26.51958054635731       90.07269093712809       56.93748096292648
H           27.41281577465639       88.88159669442749       55.99758241310008
H           25.64941456548910       88.87869095872664       55.98668825838703
C           24.47055394371176       89.84952234292059       53.39463586823604
H           23.86717974699314       90.35212120498934       52.64201247449569
C           24.04254812587249       88.68268670527884       53.82173261645404
H           24.56905031644404       88.09263466349401       54.55098502064504
H           23.12843671831488       88.24717391324381       53.45048220709487
C           24.76661303592088       92.48589335524795       48.78283947765880
H           23.72940001142979       92.70396747195646       49.04304965216414
H           24.94091668534180       91.42610509128562       48.96573025981611
H           24.89435404192692       92.67192359316250       47.71877624026421
C           26.29653728003039       95.10136422075095       47.82100908001605
H           25.31581385707217       94.93883718197723       47.37994680225211
H           27.04643550467732       94.68370753238663       47.14635531357956
H           26.46732627307327       96.17273818842494       47.89165659581175
O           26.87747468952414       95.13718008159236       53.89851906354474
H           26.10042044005051       94.65720596061888       54.18669967896904
H           26.94322107277909       96.07937251680647       54.04364827217630
C           30.79119225407800       90.22107458003714       49.76291391288526
H           31.12325899557423       89.27191818403539       50.17632563723492
H           31.57186922561551       90.60906136007067       49.10982216064186
H           29.89694383149637       90.05337158500603       49.17073352878215
N           31.24615403723943       91.54528221339548       51.88510263866250
H           32.14671823158194       91.16061434601549       52.11221530451169
C           30.45721785360900       91.19725009920775       50.82740049715549
C           30.59927535793257       92.48743423034271       52.60082549064726
H           30.97929570518542       92.95263000298823       53.48054459008161
N           29.43319108605856       92.74714359412238       52.05672962767466
C           29.32752590551769       91.96496030010709       50.95704501258152
H           28.46035874616266       91.99400615351458       50.33291565820705
78
 energy: -116.038929607935 gnorm: 0.025120197224 xtb: 6.7.1 (edcfbbe)
Fe          28.19465593355891       93.93685263103507       52.96775183969412
N           29.13761820762200       95.60845733288345       52.40419102321793
N           29.26628077008774       93.89846000555420       54.69348780491627
N           27.19726510322934       92.31566107829505       53.60777532840795
N           27.08317133550965       94.00358848421274       51.31397248849849
C           28.91224536091610       96.33499250145321       51.27559965719242
C           29.69805727662392       97.55413220903098       51.29223204211460
C           30.40556240411709       97.54037522052103       52.45382509649504
C           30.03316229693574       96.32471872573569       53.14095852226986
C           30.17032007341923       94.83421152486677       55.09066448026223
C           30.82423017180616       94.44571806029201       56.31229027079326
C           30.32668394559234       93.20680565926152       56.64047866328396
C           29.32070938120613       92.90585617962346       55.62158636745372
C           27.46846749513945       91.55934408185453       54.70997555295561
C           26.52228552969988       90.47763263104126       54.83639096592621
C           25.65597420123360       90.59037107194325       53.77544910379174
C           26.13236179978067       91.73142543319088       53.00107037157248
C           26.14645795386057       93.08932951116837       50.94092954806739
C           25.71476865220330       93.33725163815551       49.58058346963715
C           26.37687624976928       94.45081786557094       49.16490997715143
C           27.22765724032847       94.85783879253066       50.26521793741728
C           28.03554885691085       95.97948952201114       50.26867123472035
H           27.96812662551873       96.64334187736053       49.41871306465649
C           30.50089408862167       95.98205850825852       54.39127714168270
H           31.19974139195584       96.65896651602453       54.85782332296885
C           28.50052804203180       91.79413487492742       55.60799238210003
H           28.64269418849818       91.05180552669911       56.38011696277647
C           25.65211752153181       92.08423353569216       51.75075615574030
H           24.84416087260777       91.49634699908168       51.34034876160376
C           31.36458964738772       98.55291069084554       52.98152136553077
H           30.94617361231897       99.06517124155586       53.84864708598731
H           31.59624533173200       99.29521184984489       52.22426767062232
H           32.29486395760004       98.08126851084117       53.29213319152144
C           29.70538766130963       98.60494525912046       50.23719475979517
H           28.74228589716225       98.66340990093789       49.73832325407445
H           30.46489857447624       98.39315620459476       49.48460779628228
H           29.92242498131209       99.57778783632396       50.67103948567559
C           31.84457327344546       95.31311511139747       56.96638107062115
H           31.49476496312168       96.34395010645932       57.00618717417203
H           32.77275707362639       95.29963717137474       56.39219008076885
H           32.06204251012895       95.00353779986325       57.97956360127894
C           30.66693886200690       92.30220924857220       57.71424704336317
H           30.02327816389603       91.43307983817417       57.78230052178541
C           31.67428833651607       92.38602390241206       58.57666720767064
H           32.39270744424309       93.18448805144878       58.57948252953182
H           31.82938740449820       91.63437871458852       59.33082071237124
C           26.52231185230379       89.53370744282937       55.98977294531445
H           26.52986996431715       90.08773977483150       56.92863685051652
H           27.40703801667280       88.89621621546544       55.97358471891938
H           25.64612066816131       88.89797924409012       55.98771674420549
C           24.47086716890812       89.85020276484967       53.40054253586985
H           23.86150659935010       90.35625836271265       52.65992426142886
C           24.04576283204949       88.66674794311250       53.82837878098869
H           24.57987314111367       88.05874898889282       54.53576284834313
H           23.12743023822363       88.24068390114591       53.46115021629938
C           24.76768757059773       92.49295748282633       48.79693434420881
H           23.73225744870107       92.70975969710726       49.06055960235382
H           24.94614865353085       91.43572392738827       48.98113538826915
H           24.89129237794459       92.67539859327471       47.73263721421510
C           26.29687928304622       95.10399540191999       47.82756824794497
H           25.31852679987664       94.94350103771831       47.38201296462639
H           27.04845167947146       94.69055022254096       47.15378928731414
H           26.46782483848611       96.17397292661887       47.89927462902235
O           26.83487626464399       95.14333820499431       53.93178427728922
H           26.03560249782962       94.69730821276072       54.22413964468834
H           26.88799006577942       96.09168575835363       54.07099608312284
C           30.79358880160050       90.21413226818140       49.75937049459078
H           31.12985661178794       89.27004560088555       50.18051257439123
H           31.57869873249845       90.59796841064535       49.10996737469431
H           29.90795519012143       90.03692201247323       49.15925769493346
N           31.27228444290667       91.52912573613791       51.86107736308563
H           32.17495704813245       91.13537117817938       52.07119818323646
C           30.45331403599232       91.19466584616927       50.81557974840945
C           30.63895266544458       92.47348166713756       52.59427108927366
H           31.03956913010540       92.92937627924734       53.47016784661572
N           29.46105812944659       92.75249397064940       52.07991604920969
C           29.33493518998939       91.97046197048441       50.97184746660250
H           28.46028139586831       92.00497951974518       50.35791844159532
78
 energy: -116.043652849532 gnorm: 0.023236471462 xtb: 6.7.1 (edcfbbe)
Fe          28.19360666411160       93.93857472555916       52.97557781603790
N           29.10684524320560       95.62058108154042       52.41488326779372
N           29.27269384407427       93.90032348902153       54.68342006681485
N           27.20394901996841       92.31754521821826       53.59281318055125
N           27.09618375318150       94.00154577727457       51.31910255314786
C           28.89566923443071       96.33888915294892       51.27907555398089
C           29.68823984136719       97.55607004296478       51.28975727085413
C           30.39139113358977       97.54432852705683       52.45053240766033
C           30.01008316606496       96.33149232282098       53.14628926836100
C           30.17760520038903       94.83375852966707       55.08000232621696
C           30.82949150279005       94.43791172511425       56.30500508809392
C           30.32874912760821       93.20418202755651       56.63136993261822
C           29.32151354386057       92.90865827298356       55.61114541274824
C           27.46827528612509       91.57438343763566       54.70314514742564
C           26.51744863728646       90.49451837954891       54.83521326552717
C           25.66024104740215       90.59566536211705       53.77173949647622
C           26.14006688589134       91.73073447615263       52.98902193231141
C           26.15682838532428       93.09110615581463       50.94689256832542
C           25.71834588663709       93.34238351629254       49.58768936410910
C           26.38143726832716       94.45082042957611       49.16915261079315
C           27.23677932128944       94.85449763314593       50.26811167568941
C           28.04423158645672       95.97441905187311       50.25340531484811
H           28.00303470022860       96.61410767052077       49.38201860962505
C           30.50303653605059       95.98658819634790       54.38652235619632
H           31.21913524614098       96.65641661033568       54.83804646799279
C           28.49211476709528       91.80526113278400       55.60859801594273
H           28.61363758460021       91.07390172830841       56.39440637147881
C           25.65806535651905       92.07616878690395       51.74018856649771
H           24.85881383016189       91.48389597856661       51.32060127415598
C           31.35863311293701       98.55124241872269       52.97410214609157
H           30.94574186942139       99.06385061611735       53.84449495331487
H           31.59233856203077       99.29528858634221       52.21689221893920
H           32.28864452430303       98.07194525049164       53.27720270300095
C           29.70052714850594       98.60132436157100       50.22762557212748
H           28.73574687068097       98.66736291971409       49.73114728851480
H           30.45779303677085       98.38000156870952       49.47403281394237
H           29.92886848651369       99.57464851139268       50.65853189023937
C           31.83775523355392       95.30549799056308       56.97587246130798
H           31.48438156580291       96.33629604726875       56.99900747193553
H           32.78050919253117       95.28498397823577       56.42411421098006
H           32.02775757473496       94.99661045482226       57.99745044660193
C           30.65854029706320       92.29926484031145       57.71076586312434
H           29.99602938912092       91.44826476454702       57.80201075429367
C           31.67692131789905       92.37028882319842       58.56962932574240
H           32.41453004877704       93.15173647164082       58.56182953374192
H           31.80928519832936       91.61851422514175       59.33001441918780
C           26.52019005095458       89.55121217182580       55.98673810859592
H           26.54627156847983       90.10372792597816       56.92665398053125
H           27.39956083183666       88.90581654783352       55.95006726126893
H           25.63469576386712       88.92601111652007       55.98811253818850
C           24.47442516926600       89.85125144207703       53.40585144305010
H           23.84227550946687       90.36131361170477       52.69046001020636
C           24.06401281511748       88.65478793597318       53.82708599929044
H           24.60924671649150       88.03939709570326       54.51835195378706
H           23.13342805709678       88.24375618154066       53.47121629684264
C           24.76410639168988       92.49805294282456       48.81463080214974
H           23.73103450131078       92.71634136683404       49.08804534427713
H           24.94732607013181       91.44133386689346       49.00072221798480
H           24.87993635466595       92.67995191616558       47.74832288383967
C           26.30000507669444       95.11027551626384       47.83492125912311
H           25.32200531238955       94.94807312072983       47.38660935034551
H           27.05537363802226       94.70137983136932       47.16111589488572
H           26.46610689147324       96.18153305851155       47.91261692997473
O           26.77886837796505       95.14808594680987       53.98441699864907
H           25.94419448812566       94.75361488358070       54.26441767359900
H           26.80512096831906       96.10292889758310       54.09841836918465
C           30.79571297234330       90.20494413323755       49.75283121556458