87
 energy: -128.303147112114 gnorm: 0.419120519055 xtb: 6.7.1 (edcfbbe)
Fe           2.58300000000000       -4.95800000000000       35.38600000000000
N            0.85100000000000       -5.95700000000000       35.71399999999999
N            3.56300000000000       -6.49300000000000       36.43900000000000
N            4.42400000000000       -4.26800000000000       34.85800000000000
N            1.63300000000000       -3.45000000000000       34.40700000000000
C           -0.42200000000000       -5.37200000000000       35.36000000000000
C           -1.44000000000000       -6.44600000000000       35.53200000000000
C           -0.82200000000000       -7.48200000000000       36.12199999999999
C            0.59300000000000       -7.11900000000000       36.32599999999999
C            2.93700000000000       -7.56000000000000       36.99900000000000
C            3.84100000000000       -8.37200000000000       37.61800000000000
C            5.14200000000000       -7.67300000000000       37.54500000000000
C            4.87900000000000       -6.48200000000000       36.71400000000000
C            5.64900000000000       -4.63000000000000       35.30500000000000
C            6.60600000000000       -3.80900000000000       34.88100000000000
C            5.93100000000000       -2.92800000000000       33.92700000000000
C            4.62000000000000       -3.13300000000000       34.12600000000000
C            2.27400000000000       -2.41800000000000       33.81500000000000
C            1.24300000000000       -1.52400000000000       33.24100000000000
C            0.05800000000000       -1.96400000000000       33.66700000000000
C            0.31300000000000       -3.21900000000000       34.43800000000000
C           -0.69100000000000       -3.98800000000000       34.84700000000000
H           -1.71200000000000       -3.61200000000000       34.81000000000000
C            1.50700000000000       -7.90500000000000       36.88900000000000
H            1.17900000000000       -8.86200000000000       37.29400000000000
C            5.88100000000000       -5.75800000000000       36.21200000000000
H            6.90500000000000       -6.01300000000000       36.48500000000000
C            3.57100000000000       -2.24300000000000       33.59700000000000
H            3.87900000000000       -1.39100000000000       32.99100000000000
C           -1.44500000000000       -8.81800000000000       36.52799999999999
H           -2.52300000000000       -8.82100000000000       36.26000000000000
H           -1.34600000000000       -8.96000000000000       37.62499999999999
H           -0.93800000000000       -9.64700000000000       35.99100000000000
C           -2.88300000000000       -6.30700000000000       35.09500000000000
H           -2.96600000000000       -5.49400000000000       34.34200000000000
H           -3.51800000000000       -6.05200000000000       35.97100000000000
H           -3.23000000000000       -7.25800000000000       34.63800000000000
C            3.59400000000000       -9.65400000000000       38.40999999999999
H            2.94700000000000      -10.33700000000000       37.81800000000000
H            3.08300000000000       -9.41200000000000       39.36599999999999
H            4.56100000000000      -10.16100000000000       38.61399999999999
C            6.36000000000000       -8.09500000000000       37.91100000000000
H            7.13500000000000       -8.25700000000000       37.14700000000000
C            6.72300000000000       -8.36300000000000       39.34999999999999
H            5.98200000000000       -8.21600000000000       40.14899999999999
H            7.73300000000000       -8.70900000000000       39.61599999999999
C            8.11600000000000       -4.00600000000000       35.02200000000000
H            8.53100000000000       -4.38800000000000       34.06500000000000
H            8.32500000000000       -4.74500000000000       35.82500000000000
H            8.60000000000000       -3.03600000000000       35.26300000000000
C            6.58000000000000       -1.76300000000000       33.26000000000000
H            5.95700000000000       -0.92500000000000       32.91600000000000
C            7.88300000000000       -1.67400000000000       33.05300000000000
H            8.53600000000000       -2.54300000000000       33.22300000000000
H            8.33000000000000       -0.73000000000000       32.70800000000000
C            1.50600000000000       -0.26400000000000       32.43500000000000
H            2.08700000000000       -0.52100000000000       31.52400000000000
H            2.09200000000000        0.45600000000000       33.04500000000000
H            0.54100000000000        0.19400000000000       32.12900000000000
C           -1.32300000000000       -1.45100000000000       33.30200000000000
H           -1.69900000000000       -1.99900000000000       32.41100000000000
H           -1.27000000000000       -0.36700000000000       33.06300000000000
H           -2.02200000000000       -1.61900000000000       34.14899999999999
C            1.35100000000000       -1.19200000000000       39.38900000000000
H            2.11200000000000       -0.44600000000000       39.70100000000000
H            0.87200000000000       -1.61900000000000       40.29600000000000
H            0.58800000000000       -0.68600000000000       38.75900000000000
N            3.00900000000000       -3.07200000000000       39.13300000000000
H            3.38200000000000       -2.96900000000000       40.05499999999999
C            2.01400000000000       -2.28500000000000       38.60300000000000
C            3.38400000000000       -3.97300000000000       38.23599999999999
H            4.16400000000000       -4.71700000000000       38.39500000000000
N            2.65500000000000       -3.80200000000000       37.14700000000000
C            1.77800000000000       -2.76100000000000       37.35100000000000
H            1.07100000000000       -2.45800000000000       36.58900000000000
C            3.63500000000000       -8.18400000000000       30.83800000000000
H            3.64400000000000       -7.61300000000000       29.88500000000000
H            3.05100000000000       -9.11800000000000       30.69300000000000
H            4.68100000000000       -8.43000000000000       31.12000000000000
N            1.70600000000000       -6.89800000000000       31.81600000000000
H            1.08900000000000       -7.10200000000000       31.05700000000000
C            3.00300000000000       -7.35400000000000       31.91200000000000
C            1.41800000000000       -6.15800000000000       32.87700000000000
H            0.45500000000000       -5.68100000000000       33.05400000000000
N            2.48500000000000       -6.10900000000000       33.65400000000000
C            3.49900000000000       -6.84200000000000       33.07000000000000
H            4.47400000000000       -6.92900000000000       33.53300000000000
87
 energy: -128.412878827301 gnorm: 0.211528907710 xtb: 6.7.1 (edcfbbe)
Fe           2.58309199875343       -4.97692064421547       35.38781691547430
N            0.80972547225934       -5.88958678166713       35.74448542463230
N            3.52574643561328       -6.48176237257551       36.42832615761273
N            4.39968273631349       -4.24764476315964       34.87871591074743
N            1.64186201066040       -3.45436064852990       34.42772567007633
C           -0.43243137178044       -5.37288330577716       35.35698989992963
C           -1.44133520809127       -6.42555912599658       35.53718630431231
C           -0.82779731901667       -7.47958730175704       36.12643582206618
C            0.58326474150420       -7.11001557116341       36.29464487435371
C            2.92433302879571       -7.56232264724959       36.98678021408072
C            3.86105123754710       -8.36383378081085       37.65267081753226
C            5.11409691089898       -7.69741977746277       37.55115240915453
C            4.85324625351971       -6.52355109676507       36.69989135265185
C            5.63359478453869       -4.63829319306479       35.31698739384056
C            6.63135593255593       -3.81309814393773       34.83290346047804
C            5.96826363473129       -2.89694505347770       33.95196264968466
C            4.60747171668434       -3.13405433362511       34.11534248004013
C            2.26211864277740       -2.42719906196268       33.79464130838561
C            1.24194963417070       -1.51004994179061       33.25061174989284
C            0.04827236416594       -1.96921985473626       33.66731295824427
C            0.31554829829428       -3.22528910642843       34.41801561238023
C           -0.68558567965022       -4.03943464240754       34.85729380143921
H           -1.70144503063867       -3.65761914240191       34.81471800526614
C            1.52857949641729       -7.90009920043477       36.87749701323413
H            1.20233455812370       -8.84870911177950       37.29560807590895
C            5.86008544008656       -5.74742190636670       36.20359930658551
H            6.88306164540338       -5.99694674356339       36.47782148559152
C            3.58728873934174       -2.26538511314505       33.58860910312037
H            3.89486511493198       -1.40606318505935       33.00325340046066
C           -1.43970499890130       -8.80479655163710       36.52417618864975
H           -2.50608222583270       -8.82026588437933       36.26546211723534
H           -1.34514098117213       -8.95989671651676       37.60751432576563
H           -0.94356970069432       -9.63456382815348       36.00174383758446
C           -2.87400961709898       -6.30265176481810       35.09722514877529
H           -2.96888930880217       -5.50471919925526       34.35139444415550
H           -3.51329025703498       -6.05675888622165       35.95676601595921
H           -3.22595830573936       -7.24199876840809       34.64843256927382
C            3.60106424268929       -9.64431184578037       38.40571153820162
H            2.95894968826402      -10.32389266181364       37.82583638862828
H            3.09245234090556       -9.41888852550544       39.35343215640885
H            4.54974457210459      -10.15174059656876       38.61603200972887
C            6.38177789000005       -8.11928847856187       37.97149757200290
H            7.14694547843895       -8.25075247048844       37.19637677727642
C            6.71570184623797       -8.36567159751093       39.30199972191572
H            5.99495678708447       -8.21633125862094       40.10588612136051
H            7.70960111907954       -8.70006836068812       39.59164992615855
C            8.11318613395338       -4.00479684930507       35.01819521921484
H            8.53479921052628       -4.38972818465080       34.08082178538407
H            8.32252134654879       -4.72954244680508       35.81460159706140
H            8.59615467936988       -3.05060406738200       35.26397971194060
C            6.58721432540645       -1.76420614375090       33.26752479838576
H            5.95422319502805       -0.93829987467681       32.93667710525106
C            7.89184418753031       -1.66964943374628       33.04560284303660
H            8.54341789857362       -2.51441211472027       33.21849254603441
H            8.33193028326981       -0.74296750501604       32.69363746659351
C            1.50887043110899       -0.27188411389383       32.43891150746087
H            2.08157321718142       -0.51652872705662       31.53477865420004
H            2.08499654602573        0.44873186821542       33.03426277780190
H            0.56104178271118        0.18919085951870       32.13357792556550
C           -1.31818047962190       -1.45528504021779       33.30764276570860
H           -1.69677330819975       -1.99050598714932       32.42440228873111
H           -1.27581509142365       -0.38449774868947       33.07026100841297
H           -2.01757637896153       -1.61156607863997       34.13711510379394
C            1.35449033895412       -1.19235999041288       39.38975113760419
H            2.10090220021989       -0.45023851784772       39.70125536256109
H            0.87496952671348       -1.60766555615655       40.28616057262627
H            0.59944008398202       -0.69518614336599       38.77042915809663
N            3.00607895084180       -3.06202002693560       39.13932783825738
H            3.38488914604738       -2.96223732082551       40.06390218580691
C            2.00859088385487       -2.28351323030565       38.61132639611124
C            3.37298236658782       -3.96997115622692       38.22335716671468
H            4.14796529224493       -4.70587089544191       38.38239604287829
N            2.64588371378820       -3.81612878821292       37.13553063027087
C            1.78763482055502       -2.76926674232962       37.35696417293159
H            1.08437782626778       -2.46211311843981       36.60304303260114
C            3.63323771689739       -8.18321190352622       30.83747174723402
H            3.64615436475705       -7.62438749985787       29.89205911050808
H            3.06276931483973       -9.10993580181839       30.69081074615424
H            4.66393117732431       -8.42856154805981       31.11553514691079
N            1.71070555872142       -6.90695850369698       31.80604124036489
H            1.08673290409200       -7.11002415049763       31.04661030403313
C            3.00559128140993       -7.35369409188319       31.90389412404413
C            1.43358722345443       -6.15662616145425       32.87978710929596
H            0.47688821007657       -5.68697625126762       33.05735631910156
N            2.49283071933193       -6.09580269111684       33.65823898347421
C            3.48689565556185       -6.83582608404900       33.07011964717670
H            4.45619795600894       -6.92599929206504       33.53001028440685
87
 energy: -128.448955179482 gnorm: 0.077122668509 xtb: 6.7.1 (edcfbbe)
Fe           2.58356357176493       -4.98992026269338       35.39188412433865
N            0.77890957083509       -5.84277436503034       35.75918640142055
N            3.49825356437638       -6.47714845736873       36.40225603714137
N            4.37708821592735       -4.22859728086154       34.89664133143755
N            1.64959620913068       -3.46195305163016       34.43885315580310
C           -0.43136368439430       -5.36935340213984       35.37107467211380
C           -1.43668507800626       -6.40273833086100       35.54389571581708
C           -0.82085182881419       -7.47437285096747       36.12318481765401
C            0.57904904111988       -7.09730901790700       36.27248354922615
C            2.90901130120510       -7.56178628628401       36.96919328940673
C            3.88308730139862       -8.35270478978764       37.67262514400528
C            5.08261783038778       -7.71845289316317       37.53633144807077
C            4.83069283438381       -6.55798727135433       36.68497117626318
C            5.61073978629919       -4.64644164439240       35.33088571377393
C            6.63711679678063       -3.81930412439804       34.79044266751439
C            5.99867984311770       -2.88260355833839       33.98051690595025
C            4.59330412758295       -3.13574758841243       34.11311046090150
C            2.25160170679500       -2.43613013132601       33.77969041272139
C            1.24506470977845       -1.51131910301228       33.25793832699515
C            0.04154133517542       -1.98977961381697       33.66431300108996
C            0.31637054764530       -3.23103538518466       34.39971941022056
C           -0.66883207855896       -4.08857240793876       34.87238065984463
H           -1.68498532562378       -3.71245099110456       34.80642263242709
C            1.55120794360332       -7.88300076596336       36.86988137369794
H            1.22402263221345       -8.82686839244607       37.29159610324302
C            5.82896030828593       -5.72912989036477       36.19405851575985
H            6.84976964151286       -5.97415784207904       36.47106439054643
C            3.60596196541417       -2.29133170497573       33.59348386027548
H            3.91367865331580       -1.42988826769303       33.01655204708320
C           -1.42944614823209       -8.78612957780712       36.51828723117995
H           -2.48896162726818       -8.81100474952217       36.26697175091284
H           -1.33836480357034       -8.95214484095252       37.59302519495380
H           -0.94093543351084       -9.61838585897257       36.00816724569549
C           -2.86427950189597       -6.29534899403576       35.10361442447300
H           -2.97137991466713       -5.50989815938855       34.35989389945587
H           -3.51165098073956       -6.05889545174930       35.94953929182578
H           -3.21461254302273       -7.22943670089192       34.66149857741284
C            3.60785855970711       -9.62861008378124       38.40290640884315
H            2.97077636462366      -10.30181184888661       37.82608615163510
H            3.09891873317072       -9.42297946219786       39.34701252061713
H            4.54229619645468      -10.14210280724713       38.61856672228546
C            6.39168273950877       -8.12505700913979       38.02227981787009
H            7.13981732763268       -8.24853981299994       37.23472320582250
C            6.70330307194227       -8.35561705335073       39.25480732140569
H            5.99917296147342       -8.22435490245943       40.06770372536644
H            7.68482030111992       -8.69007036606119       39.56540413254913
C            8.10030688493886       -4.00641860736848       35.01196607241948
H            8.54854666705297       -4.39408672889430       34.09551640706851
H            8.30848454720920       -4.71716786969557       35.80861660098977
H            8.58477770221734       -3.06250063421863       35.26276494114103
C            6.59426043069707       -1.77295723261028       33.28424302072150
H            5.94921196208678       -0.95749908572265       32.96953359970660
C            7.90075701028343       -1.66332047213588       33.04029970576212
H            8.56246593305774       -2.48389308498095       33.21468060103924
H            8.32895654064071       -0.75336785194396       32.65936972265081
C            1.51332526946654       -0.28410957361885       32.44803819075055
H            2.08043117995621       -0.52042453642768       31.54807939833448
H            2.08367029050843        0.44184800464440       33.02846165712815
H            0.57804562780317        0.18144714645454       32.14080784584915
C           -1.31297942119209       -1.46407954965472       33.31649097307400
H           -1.69778686061837       -1.98685772158781       32.43757383701333
H           -1.27409298323328       -0.40154022417896       33.08028083077726
H           -2.01524201059512       -1.60844667460111       34.13356295450874
C            1.35752958660120       -1.19244778284654       39.38944348832425
H            2.09431811585165       -0.45303119724680       39.70109073125459
H            0.87699709098495       -1.59747194021002       40.28004437343849
H            0.60744414522529       -0.70226824150410       38.77712711140485
N            3.00610086357390       -3.05559093319474       39.14371772809552
H            3.39232581423569       -2.95930360375032       40.06830369621354
C            2.00401386066609       -2.28415006645048       38.61791081757989
C            3.35998996659014       -3.96973310984069       38.21259915798126
H            4.13215514442912       -4.69766008386362       38.36919022509551
N            2.63383922547594       -3.82888345481823       37.12919059388116
C            1.79145776894024       -2.77982047093694       37.36452221416344
H            1.09146642252439       -2.46367027111222       36.61881556030828
C            3.63328854928245       -8.18252580139220       30.83869912391123
H            3.64832227965234       -7.63413603982753       29.89663585509447
H            3.07162259001381       -9.10443031828262       30.69063571246935
H            4.65327725446790       -8.42854532240354       31.11412138142759
N            1.71464169729961       -6.91326205682702       31.79924388977438
H            1.08435087353418       -7.11507246978782       31.04093023296316
C            3.00865869134425       -7.35129990665530       31.89911811187846
C            1.44794864171034       -6.15416490071645       32.88292182265990
H            0.49737250593887       -5.69002061182848       33.05877873757823
N            2.49804664248377       -6.08572274241136       33.66611227481076
C            3.47694129440558       -6.82626690022363       33.07100540340165
H            4.44256545911010       -6.92289972638952       33.52643043030790
87
 energy: -128.456348033311 gnorm: 0.027399051653 xtb: 6.7.1 (edcfbbe)
Fe           2.58108812124036       -4.98877402664797       35.39146713750603
N            0.77722895843707       -5.82086701220615       35.79378040463006
N            3.48284101729544       -6.48280010023320       36.37783175667052
N            4.36616392278316       -4.21440789774005       34.90686944069260
N            1.65109901297770       -3.47154852971642       34.43376041093623
C           -0.43087552617021       -5.36819909071692       35.38225861167066
C           -1.44076116149920       -6.38805371284040       35.56273795426372
C           -0.81675006872656       -7.45952338497422       36.12955601797509
C            0.57642846075627       -7.08446738979135       36.27897098348981
C            2.89487240170168       -7.56007603322391       36.95949477699536
C            3.87312379707584       -8.34808722027739       37.67430301596933
C            5.07217621175643       -7.72470600412498       37.50208279019171
C            4.81225884972317       -6.56861054318211       36.66103256119140
C            5.59455404208642       -4.65060839104389       35.32664965050078
C            6.63578424782074       -3.83405579121182       34.77537104077297
C            6.01068311045981       -2.87596708675620       33.99850694857043
C            4.59297397982492       -3.12770150681720       34.12517532804976
C            2.25018726355026       -2.44864462741025       33.76897524132189
C            1.24852923029563       -1.52446762871605       33.26011713542827
C            0.04197197166856       -2.00865404398954       33.65951693421876
C            0.31437732587909       -3.24434761176824       34.38099652337898
C           -0.66599414881862       -4.10883083604774       34.85203857418283
H           -1.68874715683688       -3.76526393453303       34.75797381920219
C            1.54898842323727       -7.87545782736649       36.86676355295420
H            1.22630553178950       -8.81593181620519       37.29171079337543
C            5.80241262049191       -5.72941383526286       36.17631089884726
H            6.81894093952896       -5.95952413579721       36.46747224142593
C            3.61134274922033       -2.30341078599289       33.59232057395516
H            3.92844803288540       -1.44604131910901       33.01762148676328
C           -1.41625359764316       -8.77107260249572       36.51581734372223
H           -2.47454545952380       -8.79548645752048       36.26506017325848
H           -1.32182362888309       -8.93834138577110       37.58878955760745
H           -0.92314827439044       -9.59855277894212       36.00517466573154
C           -2.86405940792897       -6.28535459884344       35.11795548171601
H           -2.97665749254967       -5.50581278261171       34.36908371434814
H           -3.51922277687940       -6.05252130506650       35.95764960763191
H           -3.20135860790076       -7.22443085850668       34.68049296718365
C            3.60604186174844       -9.61775254638780       38.40855090643562
H            2.97460733903866      -10.28351877916247       37.82140973108777
H            3.09605012085125       -9.41949784782356       39.35208225687902
H            4.54166054050682      -10.12860952298110       38.62489813737835
C            6.38819540609552       -8.12657265179713       37.99285992866079
H            7.14547212804339       -8.23221803384548       37.21787385648810
C            6.69928228450899       -8.36828082629006       39.26829817988928
H            5.98725555266835       -8.24226449846638       40.07013302847443
H            7.68587584921485       -8.68132085049564       39.57641954769606
C            8.09497706050605       -4.02165792097722       35.01342655349658
H            8.57245935841037       -4.41625020916891       34.11301700018982
H            8.28524881788262       -4.72093699569095       35.82273503504727
H            8.56958178203627       -3.07387064653773       35.26697325507860
C            6.60783937524101       -1.76667141749592       33.30467481454197
H            5.94433595303594       -0.95780519210935       33.01782217133696
C            7.90819331906171       -1.64176384621117       33.02238378164945
H            8.60060648907179       -2.43780063306540       33.20374368878248
H            8.31064391204935       -0.74546065688076       32.57382576774788
C            1.52342019613016       -0.29705222129620       32.45737316692173
H            2.09118140817343       -0.53554270707696       31.55916359566569
H            2.09530772576716        0.42864809703890       33.03543541321407
H            0.59230004869835        0.17324211936119       32.14912918979589
C           -1.31220948409563       -1.47553203514148       33.32764455893332
H           -1.70964227111803       -1.98936881192752       32.44970476103343
H           -1.26711880256663       -0.41325604976175       33.09809604844293
H           -2.01243905257998       -1.61457539420670       34.14708685075656
C            1.36133636386213       -1.19121364604250       39.39363502554041
H            2.09698170562877       -0.44988780391236       39.70172532351325
H            0.87758487493682       -1.58569157030692       40.28659684731776
H            0.61145796014345       -0.70479478731664       38.77947989843608
N            3.00819764029647       -3.05826233091738       39.14424020077877
H            3.40719856984179       -2.95871214334531       40.06386081538258
C            2.00060767989304       -2.28872864383461       38.62552453722619
C            3.34626833900828       -3.97696364193173       38.20932774159770
H            4.11993699372157       -4.70231867600571       38.35461725758297
N            2.61048052836076       -3.84100983876073       37.13396495810520
C            1.77708412391427       -2.78849732189933       37.37636010987289
H            1.07747763797952       -2.46342305467694       36.63684664472949
C            3.63742506593872       -8.18433124412249       30.84001437267342
H            3.65537241303700       -7.64458567332582       29.89337922288305
H            3.07744231672911       -9.10692358823645       30.69429446480380
H            4.65542293036608       -8.43205389206371       31.11774056308279
N            1.72001069256532       -6.91167248625869       31.79529520275180
H            1.08640219070574       -7.11912980304912       31.04039015651867
C            3.01463435659094       -7.34647355351163       31.89572463782270
C            1.45820500828246       -6.14699750567046       32.87780403426533
H            0.51026669944016       -5.68436310578319       33.05600623837683
N            2.50703694054920       -6.07234327988944       33.66027829498832
C            3.48139503744196       -6.81663216882940       33.06605601908286
H            4.44406409765122       -6.91828526845153       33.52238609071281
87
 energy: -128.459267754251 gnorm: 0.014908566491 xtb: 6.7.1 (edcfbbe)
Fe           2.57817609821820       -4.98734308895428       35.39057135051298
N            0.78293176427554       -5.82167412581158       35.79638744113349
N            3.47654837288034       -6.48513700039030       36.36414119007821
N            4.36078165877483       -4.20506501360003       34.91313278392493
N            1.65447681064193       -3.47843809205174       34.43095858732740
C           -0.42726123263181       -5.36592680978269       35.38884251594062
C           -1.44244754220212       -6.37679183870822       35.57731805479107
C           -0.81313280763906       -7.44616354832592       36.13828097520092
C            0.57474074994634       -7.07409195824098       36.28658984399975
C            2.88578765033950       -7.55468551555147       36.95956453937692
C            3.86391314212936       -8.34318790975763       37.67703478738659
C            5.06784536215109       -7.72400691554593       37.48725353575092
C            4.80406733370547       -6.57910853256618       36.63998086121381
C            5.58383932479096       -4.65600983958742       35.32021158231699
C            6.63491112492644       -3.84462166383044       34.77043313312585
C            6.02033735312875       -2.86996904867382       34.01550988949608
C            4.59461099851400       -3.11558449493448       34.14251052312888
C            2.25074120280015       -2.45544164027024       33.76610170095284
C            1.25367792539175       -1.53826091356116       33.25686817722020
C            0.04474472451841       -2.02573358605961       33.64931529036440
C            0.31497502840979       -3.25295494889292       34.36615013700069
C           -0.66381817743937       -4.11775923367294       34.82849044213712
H           -1.69393592511699       -3.80817244368998       34.69116157209546
C            1.54186886450147       -7.86844179413526       36.87394376969705
H            1.21914108083181       -8.80564565847101       37.30367858488255
C            5.78850595703625       -5.73797349570364       36.15852967522972
H            6.80200364671279       -5.95956998461173       36.45992942783938
C            3.61474844901625       -2.30349133928723       33.59729163162321
H            3.93620377868743       -1.45331750587203       33.01509134414670
C           -1.40369079972139       -8.75970668690538       36.52059888687195
H           -2.46143336863766       -8.78644542708032       36.26780308450563