78
 energy: -115.930016963926 gnorm: 0.296772524131 xtb: 6.7.1 (edcfbbe)
Fe          -5.87100000000000       56.87300000000000       20.77500000000000
N           -6.37700000000000       56.08700000000000       22.47300000000000
N           -6.63600000000000       58.62299999999999       21.50100000000000
N           -5.04000000000000       57.81000000000000       19.25500000000000
N           -4.60000000000000       55.31100000000000       20.35100000000000
C           -6.12900000000000       54.75900000000000       22.87800000000000
C           -6.73600000000000       54.51499999999999       24.17500000000000
C           -7.33400000000000       55.65000000000000       24.56500000000000
C           -7.14900000000000       56.62500000000000       23.53200000000000
C           -7.42700000000000       58.79299999999999       22.60100000000000
C           -7.99600000000000       60.15899999999999       22.56100000000000
C           -7.56100000000000       60.73799999999999       21.45900000000000
C           -6.70300000000000       59.76599999999999       20.75100000000000
C           -5.12300000000000       59.20000000000000       18.95200000000000
C           -4.33700000000000       59.53300000000000       17.80000000000000
C           -3.64500000000000       58.41999999999999       17.50400000000000
C           -4.04100000000000       57.37100000000000       18.40000000000000
C           -3.94000000000000       55.13000000000000       19.18100000000000
C           -3.65300000000000       53.68900000000000       19.01200000000000
C           -4.20400000000000       53.06800000000000       20.06800000000000
C           -4.75700000000000       54.06900000000000       20.95000000000000
C           -5.39100000000000       53.86900000000000       22.16200000000000
H           -5.28700000000000       52.87600000000000       22.59700000000000
C           -7.65300000000000       57.91300000000000       23.63100000000000
H           -8.21700000000000       58.22100000000000       24.50900000000000
C           -6.04700000000000       60.01100000000000       19.57500000000000
H           -6.28100000000000       60.95100000000000       19.07600000000000
C           -3.54600000000000       56.08700000000000       18.28200000000000
H           -2.85000000000000       55.83700000000000       17.48300000000000
C           -8.16900000000000       55.90700000000000       25.86700000000000
H           -8.21100000000000       54.97500000000000       26.47100000000000
H           -9.20400000000000       56.20699999999999       25.59600000000000
H           -7.68700000000000       56.70600000000000       26.47000000000000
C           -6.65000000000000       53.12600000000000       24.88900000000000
H           -5.59400000000000       52.78100000000000       24.90200000000000
H           -7.26500000000000       52.38200000000000       24.33900000000000
H           -7.01200000000000       53.21900000000000       25.93500000000000
C           -8.97500000000000       60.65200000000000       23.66400000000000
H           -8.63200000000000       60.28600000000000       24.65500000000000
H           -9.99400000000000       60.25500000000000       23.46700000000000
H           -8.99700000000000       61.76300000000000       23.67800000000000
C           -7.89600000000000       62.11299999999999       20.85300000000000
H           -7.37600000000000       62.46200000000000       19.94900000000000
C           -8.81000000000000       62.90500000000000       21.39700000000000
H           -8.92300000000000       63.94400000000000       21.05500000000000
H           -9.46600000000000       62.53300000000000       22.19700000000000
C           -4.11100000000000       60.92499999999999       17.10000000000000
H           -4.52700000000000       61.73300000000000       17.73900000000000
H           -4.62900000000000       60.93999999999999       16.11700000000000
H           -3.02300000000000       61.10200000000000       16.95800000000000
C           -2.53500000000000       58.26100000000000       16.39900000000000
H           -1.66800000000000       57.59600000000000       16.45500000000000
C           -2.79600000000000       59.07200000000000       15.34400000000000
H           -2.04600000000000       59.21699999999999       14.55200000000000
H           -3.76100000000000       59.59499999999999       15.26700000000000
C           -2.97000000000000       53.15700000000000       17.78000000000000
H           -1.90800000000000       53.48199999999999       17.77600000000000
H           -3.47200000000000       53.55400000000000       16.87200000000000
H           -3.00700000000000       52.04700000000000       17.78000000000000
C           -4.21400000000000       51.55499999999999       20.41500000000000
H           -3.43200000000000       51.34400000000000       21.17500000000000
H           -3.99900000000000       50.95900000000000       19.50200000000000
H           -5.20500000000000       51.27099999999999       20.82900000000000
O           -4.22200000000000       57.73500000000000       22.57100000000000
H           -4.49500000000000       57.33200000000000       23.39500000000000
H           -3.53800000000000       58.29099999999999       22.45900000000000
C           -9.24400000000000       54.73000000000000       16.61700000000000
H           -9.74800000000000       55.42699999999999       15.91300000000000
H           -9.97700000000000       53.96599999999999       16.95300000000000
H           -8.39600000000000       54.23900000000000       16.09300000000000
N           -9.35800000000000       56.38500000000000       18.60200000000000
H          -10.29200000000000       56.70799999999999       18.45100000000000
C           -8.73300000000000       55.49600000000000       17.79900000000000
C           -8.57900000000000       56.75699999999999       19.59100000000000
H           -8.86900000000000       57.42799999999999       20.39800000000000
N           -7.41100000000000       56.17100000000000       19.41300000000000
C           -7.49400000000000       55.35900000000000       18.32800000000000
H           -6.65400000000000       54.74700000000000       18.02300000000000
78
 energy: -116.003343891608 gnorm: 0.135313526082 xtb: 6.7.1 (edcfbbe)
Fe          -5.78418368987935       56.90583338134154       20.82227949790835
N           -6.41497492794438       56.06640528498394       22.48283389625892
N           -6.68105917188548       58.62422449761204       21.47283714655605
N           -4.98689320725349       57.84052496225670       19.26636797053983
N           -4.63311325033737       55.29312889363499       20.33841732493215
C           -6.13385606602417       54.76557824166503       22.88557191384258
C           -6.73295343820715       54.49644146248882       24.18101019239132
C           -7.34723261822986       55.63850516732465       24.57711232194788
C           -7.14931725099091       56.61284975735470       23.53349892111222
C           -7.43338086593083       58.81646101637595       22.59035234781842
C           -8.01384076471317       60.16247712656308       22.56802707507985
C           -7.58422114316842       60.75358992260013       21.42794448354549
C           -6.72153435271931       59.77733263138786       20.74844593669421
C           -5.14888668932880       59.18871191565358       18.92306112016675
C           -4.31674221863574       59.54165057556190       17.79758968714329
C           -3.61455972499597       58.41336163108906       17.48794852381344
C           -4.03632218780501       57.37462388760259       18.38933947710996
C           -3.94389567389321       55.10533902124011       19.18863404752931
C           -3.65356128337066       53.68277298621344       19.01110132578193
C           -4.19069825570781       53.05091156255472       20.08355116003965
C           -4.76972840361391       54.06621372493170       20.93586489137272
C           -5.39217340062034       53.86364401915958       22.15845302230299
H           -5.29070270096863       52.87307190031437       22.58921642863735
C           -7.64070731803565       57.90781266233314       23.61250559626943
H           -8.20659091423857       58.20760623691405       24.48703024785641
C           -6.05660377681661       60.01645410718709       19.56469941645516
H           -6.26336029157909       60.96445238704746       19.08294951421903
C           -3.55657365348514       56.08116470997726       18.29248035595478
H           -2.86649540869830       55.83564568053987       17.49434598200862
C           -8.15515951982301       55.89993053408462       25.84870503675567
H           -8.20749540790249       54.99045053854543       26.45675792925161
H           -9.17947398343725       56.20160650640418       25.59605427485422
H           -7.69361242921163       56.69170211954713       26.45242826666426
C           -6.64802626979572       53.14473909546665       24.88100168331205
H           -5.61058982070491       52.79110623397608       24.90150636951557
H           -7.25452034079832       52.40169865104447       24.34766301706191
H           -7.00748890789633       53.21979866552728       25.91296901832319
C           -8.95841884809847       60.64410084756597       23.65870404110894
H           -8.63321850760999       60.28709405538415       24.64088591667944
H           -9.97157519648866       60.26318434146698       23.46940185247956
H           -8.98876540682515       61.73638216592286       23.69419638123660
C           -7.89590179103317       62.10016153671815       20.86836915322208
H           -7.35831243807135       62.44013124223355       19.98310805670561
C           -8.81203221090861       62.90658877886246       21.39191980604951
H           -8.93642439698325       63.92665766195741       21.04285166065827
H           -9.46368808005397       62.56541795936597       22.18216464168387
C           -4.12801246316608       60.91339551926591       17.13364923133267
H           -4.52751980856166       61.72379128258801       17.74830954719404
H           -4.63322724845090       60.95262645152399       16.15918308771692
H           -3.05600700878092       61.09116341627584       16.96701237854146
C           -2.57527927304208       58.28389972800837       16.40067011393264
H           -1.70740609962532       57.63045870382782       16.48501294747858
C           -2.78498641420377       59.05638350976342       15.33356203696337
H           -2.04936241053189       59.19186686635942       14.54807608089357
H           -3.72344163707610       59.57948885937500       15.23694419527321
C           -2.97210818078449       53.15404919016883       17.78769024186048
H           -1.92221169212732       53.47441107124848       17.77303298711746
H           -3.46210398030692       53.54058110647643       16.88478885290673
H           -3.00296878351356       52.05968766111516       17.77781729137774
C           -4.20996301640612       51.56863069559987       20.41244246343982
H           -3.44273885638367       51.34687844598520       21.16414395170838
H           -4.00312915716069       50.97079957035318       19.51780112764323
H           -5.18655326817129       51.27849671951630       20.81756682537784
O           -4.23601783209550       57.70891061302585       22.54712106041228
H           -4.49166766739177       57.33678338105761       23.38941646314546
H           -3.51709518213627       58.30684211880910       22.46072303243139
C           -9.25026865919336       54.74138880911580       16.62009394057883
H           -9.74870244376206       55.41682819957764       15.91479943287853
H           -9.96901727487472       53.97658042686051       16.94155976118803
H           -8.41652486145579       54.25041683712632       16.10698723367692
N           -9.37440783035868       56.37568743657351       18.59270304362303
H          -10.31287074890982       56.70123635315890       18.43958350283639
C           -8.71981552660781       55.48838279445898       17.79860469443531
C           -8.56801453858824       56.75857628743729       19.58918063898682
H           -8.85889576629471       57.42583888479611       20.38301103165268
N           -7.39286092255661       56.17223664203176       19.45901995322609
C           -7.47566948100995       55.37300779667386       18.35445544587875
H           -6.64728576175231       54.76413433386266       18.04188047344086
78
 energy: -116.030434908192 gnorm: 0.035810232789 xtb: 6.7.1 (edcfbbe)
Fe          -5.72753092236198       56.93257669769479       20.85875088105147
N           -6.42130610541271       56.05124545469662       22.50620058863987
N           -6.70632388520716       58.62666164696181       21.44641536116735
N           -4.94623211219306       57.87167019749826       19.27160926591383
N           -4.67154522869702       55.28615394306956       20.33239712054544
C           -6.14225518134282       54.76938876041602       22.88742749605454
C           -6.72845897159424       54.48373082487653       24.18422829855164
C           -7.35617235981006       55.62795489107545       24.58434993458941
C           -7.15041779991386       56.59701564779066       23.52735475718605
C           -7.44359256202397       58.83080401225971       22.56950244192281
C           -8.02151307445058       60.15875292986749       22.56995008885385
C           -7.60307980868208       60.76047988418022       21.40244592726508
C           -6.74759716027180       59.78086470278927       20.73503240993798
C           -5.15348076797976       59.18212413686417       18.91786648430165
C           -4.31321026780759       59.54756211851222       17.79627198736691
C           -3.60020830692697       58.41422094598007       17.47156014258080
C           -4.02265119214044       57.38889829222634       18.39457707062773
C           -3.95873453804801       55.08948838471427       19.19629584479793
C           -3.65936130702714       53.68419672987255       19.01617304589910
C           -4.18479586378080       53.04233134433913       20.09860567400893
C           -4.79172720837959       54.06962865920983       20.92446922622089
C           -5.40530302520125       53.85477651564428       22.15102491662638
H           -5.30053731576327       52.86754501393741       22.57939198702734
C           -7.63577737849368       57.89427965744878       23.57940983326806
H           -8.19462585179446       58.19055310089135       24.45618487494001
C           -6.05809347642536       60.02188940367360       19.55657002841522
H           -6.23463279236009       60.97885046588831       19.08724327051173
C           -3.56989055158566       56.08299001226053       18.31249053287466
H           -2.89149226202083       55.83487759843856       17.50915981037193
C           -8.14160028874388       55.88956447732540       25.82895214350169
H           -8.20040851206802       54.99560756885321       26.44361350568635
H           -9.15916984740760       56.19639025090306       25.58737261545830
H           -7.69038341727367       56.68053205414801       26.42867391155853
C           -6.64596333556531       53.16369534488263       24.87315110654948
H           -5.61950508630730       52.80292461112859       24.89926077499629
H           -7.24745139768743       52.41972880896615       24.34987315882267
H           -7.00639337926708       53.22924237067377       25.89635115896820
C           -8.93765583412281       60.63581171536367       23.64953669856487
H           -8.62395523838422       60.27367182701411       24.62475552651111
H           -9.95180858365150       60.27153306994175       23.46884324676884
H           -8.96994691588313       61.71790451152460       23.70607629894334
C           -7.89887996290558       62.07763239046385       20.88765438742930
H           -7.33079348228319       62.41302546047661       20.02652294562915
C           -8.81776800570146       62.90632779751427       21.38304809843501
H           -8.94673273036466       63.90971091533968       21.01615608458119
H           -9.47245770412458       62.60348879930574       22.17240046627196
C           -4.14838849957814       60.89785902064640       17.16733017935385
H           -4.53196390650690       61.70224366388019       17.78345710722035
H           -4.65595958064002       60.95938897142366       16.20290738096500
H           -3.08684800018165       61.07918175297461       16.97834090396604
C           -2.61528274928502       58.31404273373516       16.41676556948065
H           -1.75013802842810       57.66593179858589       16.53406116845385
C           -2.77130750144154       59.04599690167894       15.31748458684388
H           -2.04510560487680       59.14004631922140       14.53054563138237
H           -3.68805099607643       59.58322658774716       15.18887341469852
C           -2.97376992055343       53.15045558471039       17.80277174683823
H           -1.93126505775877       53.46801558235116       17.77780735621071
H           -3.45556077960138       53.52886293372214       16.90128305544896
H           -3.00078161903982       52.06526086848802       17.77796662174351
C           -4.20372222163833       51.58433414928111       20.41268239164114
H           -3.44744186945231       51.34735255481964       21.16067539005608
H           -4.00141924500002       50.98793454266345       19.52671945213491
H           -5.17328157749408       51.28862285628107       20.80859032398914
O           -4.21885231670758       57.65868702540933       22.49577747714895
H           -4.48380183053397       57.36120207628505       23.37193579035699
H           -3.51873238946040       58.32006647494660       22.46849739291502
C           -9.24911612015494       54.75201548728095       16.62698307095849
H           -9.74630086090264       55.41942818097304       15.92721955161494
H           -9.96375790193690       53.99075562529609       16.93982394294096
H           -8.43006834385354       54.25768032361999       16.11399138210588
N           -9.38691801914997       56.36490019522828       18.58792277361771
H          -10.32749082641559       56.69047025167423       18.43239047886521
C           -8.69938749036685       55.47913632130880       17.80328796301497
C           -8.56402373940813       56.75854236564098       19.58692345762188
H           -8.85391785207624       57.42882870362486       20.36848765575079
N           -7.38665311521890       56.18610335318159       19.48725560445384
C           -7.45921278444297       55.38478945497619       18.38178905599011
H           -6.63505825238088       54.78133339144074       18.06325069202226
78
 energy: -116.038991465929 gnorm: 0.047483974247 xtb: 6.7.1 (edcfbbe)
Fe          -5.71477774885429       56.93892936967569       20.86830038998450
N           -6.42800753971767       56.03305372910655       22.50341861736561
N           -6.71954536316110       58.62269046363438       21.42201718937163
N           -4.91636059293603       57.89379135490790       19.29528168778943
N           -4.69725749985051       55.28398833616173       20.33220447957500
C           -6.14727261481771       54.75947477360406       22.88332622747461
C           -6.73017607969728       54.47679713200623       24.17921150384993
C           -7.35999053414738       55.61903911542639       24.57642373422827
C           -7.15217259852397       56.58427738966686       23.51604845713322
C           -7.45529676808400       58.82209418817011       22.54784185134452
C           -8.03390103836732       60.14077279352927       22.55961541844626
C           -7.62189628194564       60.75217204140741       21.39150972997199
C           -6.76766065027575       59.78093749728905       20.71872860110106
C           -5.15137021346088       59.18869288945204       18.93054390871202
C           -4.32687112443163       59.55510444025516       17.80389894783665
C           -3.60822147051830       58.42730913569432       17.47137665966599
C           -4.01065125625904       57.40430260919960       18.40982383712845
C           -3.97685950659861       55.08966776683173       19.19850425312734
C           -3.66657883125805       53.68895781370320       19.02201505187208
C           -4.18844852606048       53.04398403877467       20.10355568855146
C           -4.81129889001148       54.06792972744205       20.92118974393112
C           -5.41928681060674       53.83954171442202       22.14558967307332
H           -5.31912140780196       52.85022367071058       22.56723037368491
C           -7.63555795635332       57.87965920087598       23.55407460115861
H           -8.19591562151270       58.17373557404496       24.42864128432194
C           -6.06029180462126       60.03228745140703       19.55348653212303
H           -6.20883308157093       60.99990555792844       19.09359754663464
C           -3.58231625227590       56.08998565515476       18.32590026992331
H           -2.91566128064158       55.83413835041906       17.51593103037020
C           -8.13650571213935       55.88367689670330       25.81934707457255
H           -8.19430863877406       54.99200153397162       26.43794041957531
H           -9.15315698806877       56.19338456562092       25.57745535265836
H           -7.67967704236002       56.67811508943336       26.41054711066632
C           -6.64428277713034       53.16472936238441       24.87298540908888
H           -5.61657182703614       52.80683313353705       24.90157366320691
H           -7.24482279986723       52.42019867635821       24.34911539554465
H           -7.00933157738714       53.23706919375994       25.89406641425470
C           -8.92303835702990       60.62500724734869       23.65323998868441
H           -8.60572987468228       60.23987569663660       24.61977498318099
H           -9.94615068488435       60.28350213355655       23.47481321831472
H           -8.93244216167104       61.70771408118789       23.72479781296012
C           -7.90001228606897       62.07508452482981       20.89964893090051
H           -7.29788562256796       62.40595192236130       20.05927565330978
C           -8.82458083404607       62.91739202296039       21.36591008705460
H           -8.95314971242856       63.90811516332542       20.96490976618980
H           -9.50117899034132       62.64246571422530       22.15092507778265
C           -4.17726651058925       60.90955915883722       17.20106093370163
H           -4.54061349218793       61.69666938706558       17.85379582026900
H           -4.71622449808522       60.99496238356043       16.25490525788401
H           -3.11897890415918       61.08418156995876       16.98626594301958
C           -2.63039548375362       58.32661439010484       16.41740270153318
H           -1.76776075086905       57.68471377893547       16.57573380634981
C           -2.74645040975064       59.02540951806584       15.28464057689491
H           -2.00790411377673       59.05688948955281       14.50121513127868
H           -3.65176435915412       59.57527273321889       15.09925356439240
C           -2.97341071865845       53.14790150296099       17.81674747491831
H           -1.93105531958774       53.46522671331195       17.79241083510683
H           -3.45325993581726       53.51939882375123       16.91106223716547
H           -2.99934998241587       52.06218585597298       17.79723279167039
C           -4.19852524652043       51.58901930062276       20.41602123745132
H           -3.44490311667295       51.34711625598127       21.16617911246783
H           -3.99130086279564       50.99954123212284       19.52638524932840
H           -5.16997656376506       51.29000932805996       20.80541738325068
O           -4.13568904818121       57.57351916130582       22.43468417701410
H           -4.48457539159484       57.41239195150308       23.34530509529747
H           -3.52597640065848       58.35196718881287       22.46409256958083
C           -9.23922062369350       54.75942223927098       16.63867640677794
H           -9.73744487846299       55.43635283353375       15.94773987209190
H           -9.96083797642621       54.00321973429986       16.94845304370904
H           -8.42992286804971       54.26066887679050       16.11475549402268
N           -9.38935526933013       56.35802248893918       18.59216113357096
H          -10.33197314376150       56.67483706570734       18.42957497937713
C           -8.68139617126470       55.47523054858855       17.81694634081919
C           -8.57054374044479       56.76601380503184       19.59088127395435
H           -8.86392838904742       57.44779972338057       20.36109425861502
N           -7.39167738138250       56.20374055157778       19.50571987728513
C           -7.44605928977106       55.39625039483611       18.40579760839528
H           -6.61283392852664       54.80233127523625       18.09177416511016
78
 energy: -116.042908798931 gnorm: 0.036835794493 xtb: 6.7.1 (edcfbbe)
Fe          -5.70766685913580       56.94322391253409       20.87288647531481
N           -6.42870739070585       56.01474771306795       22.49585944013899
N           -6.72469536948671       58.61885980125169       21.39845482645205
N           -4.89198268218186       57.91415063956258       19.32030446895406
N           -4.72828693763017       55.28262139856910       20.33173741345675
C           -6.15273598117157       54.74493646949428       22.87662720294952
C           -6.73298662252602       54.46986438127531       24.17201299227800
C           -7.36272481972472       55.60925636782500       24.56419733860640
C           -7.15521323053394       56.56978220394603       23.50115625448823
C           -7.46851060423888       58.80702648771477       22.52315890010050
C           -8.04706046882997       60.11879182834068       22.54621018726598
C           -7.64078193602572       60.74138986599032       21.38431886314026
C           -6.78488610884477       59.78266731204285       20.70266252515950
C           -5.14696722122897       59.19829450647588       18.94925958711701
C           -4.34359679764771       59.56323223748645       17.81435276537919
C           -3.62017218245321       58.44513054064140       17.47547012962939
C           -4.00016351814184       57.42134835337560       18.42664965024150
C           -3.99854090740729       55.09451092295133       19.20063492749385
C           -3.67454920457816       53.69606455821922       19.02907070568324
C           -4.19367537634813       53.04883038947376       20.10733680717817
C           -4.83425200835994       54.06500818635576       20.91862902407973
C           -5.43774962525571       53.81943592437228       22.13828290633175
H           -5.34344918899357       52.82678848931803       22.55139909842309
C           -7.64058982508520       57.86101440911731       23.52474434082444
H           -8.20623638036032       58.15232612200145       24.39527599089363
C           -6.05995846789950       60.04670926708644       19.55334060827902
H           -6.18333637554903       61.02147558983751       19.09982825827502
C           -3.59656245992312       56.09961293277373       18.34009920751075
H           -2.94238903596504       55.83362980167778       17.52310063382693
C           -8.13310138689410       55.87903602946948       25.80944216146865
H           -8.18779741333091       54.98855095985358       26.43193151333713
H           -9.14992136372463       56.19025960325301       25.56694726057649
H           -7.66777954670922       56.67727233909893       26.39070547932506
C           -6.64245517100201       53.16196689771664       24.87468474659383
H           -5.61142368928760       52.81092684466145       24.90683152052759
H           -7.24037055326648       52.41451622005718       24.35026897234531
H           -7.01258340832069       53.24383872613837       25.89420516778340
C           -8.91015689157831       60.61390460333975       23.65582852258703
H           -8.58768455739428       60.20086992222681       24.61204141025988
H           -9.94564003744192       60.30287024460316       23.48315200850223
H           -8.88443819777432       61.69833642041706       23.73914755932564
C           -7.90672101574087       62.07325386604593       20.90813640692211
H           -7.26461502884750       62.40162327647086       20.09410005499201
C           -8.84061527198070       62.92464989265519       21.33931866541340
H           -8.95460631196804       63.90647608668313       20.90903901423169
H           -9.54184774384005       62.67989916599711       22.11985291307054
C           -4.20928708942706       60.92278312502047       17.22954799348627
H           -4.54837827106462       61.69012242003431       17.92627589116920
H           -4.78575035434561       61.02627733113486       16.30559493736725
H           -3.15695369456474       61.09606437321725       16.98603980554259
C           -2.64453456874616       58.33718182907687       16.41533847948829
H           -1.78631284949995       57.70202433457652       16.61394793864335
C           -2.72760413422433       58.99917512038212       15.25439147990042
H           -1.97016546483218       58.96070116408299       14.48069602619597
H           -3.60702690331356       59.58883464628865       15.02319120153945
C           -2.97012633047318       53.14628270325267       17.83422201146477
H           -1.92710810681725       53.46391928610934       17.81393261867674
H           -3.44680779366294       53.50777213574402       16.92141525425563
H           -2.99468189567430       52.05866630783730       17.82587064905293
C           -4.19076900879352       51.59306775903297       20.42044063162773
H           -3.43917169542946       51.35159195069674       21.17453338155061
H           -3.97404190182956       51.01058484532844       19.52686206480633
H           -5.16452634230424       51.28811912867668       20.80265639369519
O           -4.15993266987014       57.63852319858456       22.40593001823331
H           -4.41735527510986       57.38402001105678       23.27717630815017
H           -3.48727784565696       58.30408004475193       22.42845752524046
C           -9.22285272966728       54.76654339796760       16.65571999425121