78
 energy: -116.058078016190 gnorm: 0.000030994489 xtb: 6.7.1 (edcfbbe)
Fe          -5.69648046836746       56.93898135754416       20.82770309182752
N           -6.42969945917925       55.98975299210436       22.44499978505389
N           -6.61492624302027       58.63251154453467       21.42344786588241
N           -4.92609306793788       57.90333636282435       19.26249131947549
N           -4.74955343662293       55.27303957346430       20.28589146475565
C           -6.26122427858345       54.67971629362138       22.76778620418985
C           -6.98053734604983       54.35461808475852       23.97816888873579
C           -7.59328430422215       55.50117898770220       24.38002496729876
C           -7.24261812345988       56.51065835050368       23.40686558328435
C           -7.40175339549193       58.79924870984922       22.52481443113039
C           -7.92533546725992       60.13813112472902       22.58237482669013
C           -7.44888888322035       60.78637669296916       21.47212400009413
C           -6.62533943726560       59.82374041275573       20.76896624687697
C           -5.15163453757522       59.19731635177644       18.90702076659353
C           -4.44061458812399       59.52907358078809       17.69732463541605
C           -3.77333849843677       58.39446456292388       17.32146351675679
C           -4.09226455132491       57.39415029279262       18.32301800920720
C           -3.94474556776488       55.11128015215225       19.20464344166311
C           -3.45060504995401       53.75244601363559       19.13074658884314
C           -3.98160197800377       53.09670325797070       20.19575361293714
C           -4.79112046286478       54.06483651069671       20.90532696603738
C           -5.49712981024487       53.77368834178883       22.05631367653987
H           -5.44602664720137       52.76326019819689       22.43187084881269
C           -7.69053403652357       57.81656518493028       23.45834441098125
H           -8.33802777262132       58.08536259669688       24.27898906339622
C           -5.95508659262123       60.09142941058873       19.59129287210574
H           -6.06849940476550       61.07801555068329       19.16903031518530
C           -3.63241601166825       56.09097936593874       18.28221755842086
H           -2.98404944806567       55.81428369375114       17.46481092814634
C           -8.46170082500688       55.74252675272938       25.56732056923521
H           -8.57532777562863       54.83418985350930       26.15373535369426
H           -9.45263415821200       56.07688811613461       25.25838149342565
H           -8.03111174895547       56.51223249640039       26.20853848905567
C           -6.99831156826264       53.00429951556030       24.60815909134842
H           -5.98911015307906       52.69622373074781       24.88254832689325
H           -7.40022681218015       52.26430017741099       23.91584440645336
H           -7.61221402425559       53.00310119527636       25.50556335405568
C           -8.75720881290899       60.68735533136224       23.68888688254780
H           -8.43483278385570       60.28793791495977       24.64945880960570
H           -9.80921231406009       60.43011868465543       23.55282622450216
H           -8.67099384829266       61.77172015355784       23.71652218736066
C           -7.65733421975049       62.15478992330124       21.05438857196102
H           -6.82596764400690       62.61726900335717       20.53514807946308
C           -8.76614484909103       62.86153799694685       21.24861675708627
H           -8.84595393474767       63.88476997461835       20.92092009343492
H           -9.64041420516602       62.44150453802596       21.71451690842537
C           -4.40601120764180       60.87632523389997       17.06454251236537
H           -4.36508140952639       61.65713960223832       17.82256146683687
H           -5.29582757210217       61.04375728648730       16.45523073881239
H           -3.52972656687472       60.96589395626887       16.42584731614256
C           -2.89394129673028       58.18021832997935       16.19348304079998
H           -2.06985416896172       57.49775647900913       16.36625172042668
C           -3.02663522396565       58.73938033171351       14.99503409311782
H           -2.32347697808682       58.54597045358873       14.20186146740899
H           -3.85132307049774       59.38704015224413       14.75323377150636
C           -2.53736753128864       53.24685837590427       18.06729808100558
H           -1.60158616434488       53.80600221694271       18.07047302970050
H           -2.99410947021884       53.35782838814549       17.08344939230962
H           -2.30802329808662       52.19534493350525       18.22166271279167
C           -3.80870536550171       51.67685864265493       20.61426558571670
H           -3.36565952352968       51.62190451907345       21.60889877330894
H           -3.16047286054025       51.14579484783096       19.92162420054908
H           -4.77132844635314       51.16572760421845       20.64411323785940
O           -3.94864509644834       57.57949655633508       22.16864938718573
H           -4.14164066556537       57.04384984250017       22.94586273693447
H           -4.21980786631290       58.48133837536982       22.37189586780958
C           -9.18875795681882       55.22352364372802       16.83619142692543
H           -9.85402748371118       55.96451771345197       16.39315372306791
H           -9.76045220591888       54.31154591566283       17.00787329588250
H           -8.39111710960217       55.00735930792752       16.13250909100747
N           -9.38021975556247       56.08479783946392       19.17992708995626
H          -10.38532579713252       56.04440457438382       19.22104996736609
C           -8.60763329219134       55.72910455341260       18.10552099330000
C           -8.54937755736878       56.49970616701428       20.16241046539805
H           -8.87817540951406       56.83864729203347       21.12292098667829
N           -7.29889595365418       56.42811259275276       19.77592654543339
C           -7.31871066736143       55.94999507843136       18.49846083166832
H           -6.41095448268696       55.79888828262168       17.95161496583824
