87
 energy: -124.478582945487 gnorm: 0.274302827657 xtb: 6.7.1 (edcfbbe)
Fe         -14.66900000000000        5.80300000000000       27.78100000000000
N          -16.12500000000000        4.46000000000000       27.49200000000000
N          -15.87500000000000        7.25500000000000       27.43000000000000
N          -13.02900000000000        7.14100000000000       27.98600000000000
N          -13.26800000000000        4.26800000000000       28.03800000000000
C          -16.06600000000000        3.10800000000000       27.71800000000000
C          -17.33800000000000        2.53000000000000       27.42800000000000
C          -18.17700000000000        3.56000000000000       27.03600000000000
C          -17.42000000000000        4.76900000000000       27.08599999999999
C          -17.15700000000000        7.17500000000000       27.01300000000000
C          -17.73500000000000        8.52300000000000       26.89000000000000
C          -16.77700000000000        9.38400000000000       27.24700000000000
C          -15.60700000000000        8.57100000000000       27.58400000000000
C          -13.20300000000000        8.50000000000000       28.08500000000000
C          -11.94800000000000        9.14900000000000       28.30700000000000
C          -11.00400000000000        8.11600000000000       28.32600000000000
C          -11.69900000000000        6.88400000000000       28.13800000000000
C          -11.93500000000000        4.42700000000000       28.14900000000000
C          -11.37300000000000        3.09200000000000       28.38100000000000
C          -12.45000000000000        2.23000000000000       28.34800000000000
C          -13.62400000000000        2.99300000000000       28.17100000000000
C          -14.91600000000000        2.42700000000000       28.10400000000000
H          -15.02000000000000        1.37600000000000       28.37500000000000
C          -17.89699999999999        6.02600000000000       26.77600000000000
H          -18.88700000000000        6.11900000000000       26.33100000000000
C          -14.39800000000000        9.17400000000000       27.97300000000000
H          -14.40800000000000       10.24000000000000       28.20000000000000
C          -11.16000000000000        5.59200000000000       28.12200000000000
H          -10.07600000000000        5.48800000000000       28.08700000000000
C          -17.67100000000000        1.04500000000000       27.55400000000000
H          -17.35100000000000        0.94100000000000       28.61300000000000
H          -16.85400000000000        0.68300000000000       26.89400000000000
H          -18.58700000000000        0.43700000000000       27.39300000000000
C          -19.65800000000000        3.43600000000000       26.67300000000000
H          -19.55400000000000        3.95200000000000       25.69500000000000
H          -20.04100000000000        4.16000000000000       27.42400000000000
H          -20.37200000000000        2.59200000000000       26.56100000000000
C          -12.44800000000000        0.72400000000000       28.52100000000000
H          -11.67400000000000        0.62900000000000       27.73000000000000
H          -13.09500000000000       -0.17900000000000       28.50200000000000
H          -11.94600000000000        0.81100000000000       29.50800000000000
C           -9.92200000000000        2.82000000000000       28.36300000000000
H           -9.39500000000000        2.89600000000000       29.31700000000000
C           -9.44300000000000        1.80500000000000       27.61000000000000
H           -9.87000000000000        1.59600000000000       26.61800000000000
H           -8.62000000000000        1.17500000000000       27.98000000000000
C           -9.51000000000000        8.27500000000000       28.53800000000000
H           -9.21700000000000        7.74400000000000       27.60700000000000
H           -9.44400000000000        7.56800000000000       29.39300000000000
H           -8.81800000000000        9.13000000000000       28.69800000000000
C          -11.78600000000000       10.64800000000000       28.40200000000000
H          -12.77100000000000       11.05300000000000       28.61900000000000
C          -10.68700000000000       11.33500000000000       28.11000000000000
H           -9.74000000000000       10.81300000000000       27.90700000000000
H          -10.71000000000000       12.43400000000000       28.06800000000000
C          -16.89300000000000       10.89600000000000       27.28000000000000
H          -17.22200000000000       10.97100000000000       26.22100000000000
H          -16.31300000000000       11.80600000000000       27.54300000000000
H          -17.79000000000000       10.81600000000000       27.93100000000000
C          -19.12100000000000        8.93600000000000       26.43400000000000
H          -18.71400000000000        9.66600000000000       25.70200000000000
H          -19.39100000000000        9.47400000000000       27.36799999999999
H          -20.02300000000000        8.45500000000000       25.99900000000000
C          -14.05600000000000        5.61500000000000       33.41100000000000
H          -14.63800000000000        4.81900000000000       33.92300000000000
H          -14.20000000000000        6.57300000000000       33.95500000000000
H          -12.98100000000000        5.33400000000000       33.41400000000000
N          -15.84400000000000        6.09100000000000       31.70400000000000
H          -16.55000000000000        6.29200000000000       32.38300000000000
C          -14.53500000000000        5.75600000000000       32.00700000000000
C          -16.00300000000000        6.10100000000000       30.39000000000000
H          -16.94200000000000        6.31900000000000       29.88300000000000
N          -14.82300000000000        5.80000000000000       29.81800000000000
C          -13.91000000000000        5.56000000000000       30.82200000000000
H          -12.89200000000000        5.27000000000000       30.59400000000000
C          -14.75500000000000        8.18100000000000       24.36900000000000
H          -14.39400000000000        8.91300000000000       23.61499999999999
H          -14.94600000000000        8.71900000000000       25.32200000000000
H          -15.70000000000000        7.72800000000000       23.99900000000000
C          -13.70400000000000        7.08900000000000       24.58800000000000
H          -12.84300000000000        7.54700000000000       25.11800000000000
H          -13.35900000000000        6.74400000000000       23.59100000000000
S          -14.27600000000000        5.66200000000000       25.53200000000000
C          -12.98200000000000        4.47600000000000       25.15400000000000
H          -12.02200000000000        4.75800000000000       25.63800000000000
H          -12.81300000000000        4.43000000000000       24.05700000000000
H          -13.26800000000000        3.46700000000000       25.52000000000000
87
 energy: -124.593338914273 gnorm: 0.153945199655 xtb: 6.7.1 (edcfbbe)
Fe         -14.63258992956077        5.80077610354564       27.76114216951947
N          -16.13112687249243        4.46908936368099       27.50415306437105
N          -15.87422554578045        7.25288321235250       27.44802487949437
N          -13.03804672001333        7.14993874092917       27.99058805193580
N          -13.29091813789806        4.30483217910093       28.04429547028142
C          -16.07176798117010        3.11928123766696       27.71629827138448
C          -17.35539187314091        2.52707433216695       27.43103184872857
C          -18.18042282269309        3.53370180163691       27.04014355933127
C          -17.41300146704592        4.75100472881916       27.08502451633772
C          -17.15731849463279        7.17007721283281       27.01413263110169
C          -17.72585865582921        8.50052299411297       26.88336449670770
C          -16.75444815401351        9.37078582008523       27.25645507522714
C          -15.60072947014253        8.57095135953196       27.59922508953970
C          -13.20331782812538        8.49907844418283       28.09814507931799
C          -11.93999918595568        9.15632986405552       28.30910727954204
C          -11.00551009145351        8.14424588781319       28.32382826389363
C          -11.70710375035293        6.89679004062420       28.13597530480967
C          -11.94672450365728        4.43115099486609       28.15258771323217
C          -11.38637011265851        3.09646119517125       28.34508290997715
C          -12.46387884953054        2.23669830598698       28.34252817733450
C          -13.64065527110230        3.01236525214803       28.17615186386061
C          -14.92013948556045        2.44516625521103       28.10327818007622
H          -15.01177011574198        1.39150141184520       28.35849201848796
C          -17.88687446416369        6.01688100399341       26.77787593081542
H          -18.87858765372118        6.11723858451344       26.34749286261000
C          -14.40434777275054        9.16482790628726       27.97889156302931
H          -14.41819158118104       10.22953732687833       28.18185661242482
C          -11.17534583303142        5.59810505111085       28.12452815766605
H          -10.09304839713165        5.48594070144423       28.10230692914972
C          -17.62695407160935        1.04746832257227       27.56862513312550
H          -17.34462959164085        0.89175054806875       28.61697198138317
H          -16.85340139251969        0.63734673754642       26.90796318749633
H          -18.57231765699849        0.51033269048588       27.38362973360961
C          -19.64611963257122        3.48165716839641       26.66441141541067
H          -19.60434988121435        3.96727733423874       25.68257688757710
H          -20.07969883869372        4.16791195260467       27.40337863210884
H          -20.29797509059425        2.59548012106238       26.58287533050834
C          -12.38760602206231        0.73689276601355       28.52621466212551
H          -11.63864629966341        0.56068228845646       27.74663104543808
H          -13.11505728884275       -0.09442973624697       28.49393294147716
H          -11.91378780091082        0.74813512938701       29.51533920347724
C           -9.95625783913009        2.75124153515948       28.39769120954149
H           -9.40231837486885        2.91883554047987       29.32461798354235
C           -9.44381460032661        1.79589425645933       27.61062457117371
H           -9.86955397906331        1.58468948631053       26.63321822986437
H           -8.59669495506594        1.20247360033035       27.94414731985463
C           -9.51368507186700        8.22547638820003       28.53094097227147
H           -9.16618947311849        7.72872232827478       27.61639273957957
H           -9.39435857174183        7.55595401821271       29.39184531153904
H           -8.88919109693861        9.11895682319037       28.69384502201912
C          -11.78974464617690       10.62534201549801       28.38822695037504
H          -12.75216872645263       11.06932184673074       28.61982001007836
C          -10.69458895765937       11.32493349613717       28.11193253243619
H           -9.75503412196049       10.82722821758924       27.90017872694337
H          -10.70799497253563       12.41365531606751       28.08039272725030
C          -16.93553352459389       10.87273492593948       27.26865562164269
H          -17.24676764820905       11.02083668878511       26.22428405057981
H          -16.28971619126520       11.72335995945498       27.54610133198033
H          -17.81934639985098       10.88196805848099       27.92144419868536
C          -19.09440474040592        8.96685031748422       26.44210676653141
H          -18.76728373238771        9.69916359228537       25.69113284171827
H          -19.42705613441650        9.49842626377704       27.34596455357075
H          -19.95639481703641        8.42143361120509       26.02519559566685
C          -14.05886426761637        5.61466867745321       33.41049015208281
H          -14.62863532535052        4.82860652488659       33.92409875834225
H          -14.19432029018512        6.55895364311923       33.95436251733107
H          -12.99806760703344        5.34067947277899       33.41517495100193
N          -15.84079211875498        6.08899449257846       31.71507685243212
H          -16.55204105780058        6.29179451157890       32.39456220287824
C          -14.53981233114378        5.75323910632664       32.00975848442094
C          -15.98991734363437        6.10044180210711       30.38498842368115
H          -16.92044776579069        6.31645921952893       29.88246904133531
N          -14.83783277581666        5.79746407047684       29.80226205273908
C          -13.92828541835968        5.56718465513164       30.80701023620506
H          -12.91310937565958        5.27971420026155       30.58662323754270
C          -14.75469290294428        8.17570763092366       24.37123844507298
H          -14.39832001914641        8.90114053646533       23.62751985811761
H          -14.94896693812737        8.71025111604885       25.30704228131087
H          -15.68973074677771        7.73387419595874       24.00595081910885
C          -13.69200132611598        7.09976122329508       24.58354100680750
H          -12.83897404500356        7.54110585894532       25.11616053956818
H          -13.35630377713335        6.73992146706085       23.60063057279389
S          -14.30181376932763        5.64892390329107       25.49853349455786
C          -12.97127726108558        4.47841330780803       25.14515046185989
H          -12.03076818358200        4.76037527077549       25.63431708857468
H          -12.81605167608144        4.42906180092441       24.06139668684920
H          -13.27062051460508        3.48902239104301       25.51332444461610
87
 energy: -124.658142567434 gnorm: 0.066228859075 xtb: 6.7.1 (edcfbbe)
Fe         -14.59968720205228        5.79605024060209       27.75727109539755
N          -16.13614861120692        4.47384465446629       27.50665347156716
N          -15.87554852300526        7.25508039628016       27.45917078120074
N          -13.04935512182828        7.15331381424753       27.99436063895958
N          -13.31201745445388        4.33693667211033       28.04780133391528
C          -16.07528917020484        3.13057923254392       27.71817508021233
C          -17.36857160196351        2.52070757972840       27.43517259831575
C          -18.18682094023004        3.51439596048700       27.04105561710370
C          -17.40458445117443        4.73920160325201       27.08683539151507
C          -17.16173311259971        7.17264445476727       27.01347732121896
C          -17.72354014441316        8.48846184174413       26.87603002300509
C          -16.74452783979878        9.36743023802223       27.26558141661096
C          -15.60291968902556        8.57792954152714       27.61235079401284
C          -13.20431385005149        8.49413212898715       28.10943491640781
C          -11.92886139860515        9.15695128697641       28.30986845126767
C          -11.00049764698488        8.15684089971575       28.31936143002969
C          -11.71768175081181        6.90081951377040       28.13417921569711
C          -11.95558396129285        4.43289287658386       28.15111308401544
C          -11.39651319431904        3.10405889304224       28.31107184402679
C          -12.47134623227171        2.24018435504450       28.33950223074358
C          -13.65198325302680        3.02673924184290       28.17965765787811
C          -14.92332738290102        2.46228680237410       28.10285147339394
H          -15.00323828990375        1.40621316056449       28.33759885279420
C          -17.87685893980064        6.00878011812676       26.78401196428280
H          -18.87026150207879        6.11372347547866       26.36689191037272
C          -14.40818730883310        9.15767330354827       27.98550345388224
H          -14.42205100373785       10.22346355435953       28.16188167483822
C          -11.19264641464716        5.60304361247638       28.12616925201272
H          -10.11265034736331        5.48535701946637       28.12200183329168
C          -17.58339901731270        1.04976537428316       27.58418115222336
H          -17.33477167967434        0.84057341683558       28.62308075982823
H          -16.84947537369695        0.59219606442063       26.92261610528467
H          -18.56299515458678        0.59407973986986       27.37252886108900
C          -19.63337050361577        3.52564420595644       26.65698219623866
H          -19.65117594093864        3.98398618318293       25.67078388494475
H          -20.11615698214945        4.17953102165449       27.38310107243751
H          -20.21439450454798        2.59170672069797       26.60634173659355
C          -12.32889330630952        0.75662030726742       28.53172080536994
H          -11.60399513927511        0.49689225301107       27.76570544294083
H          -13.14557076579511        0.00977271034681       28.48118997528321
H          -11.88074845130894        0.68942950740898       29.52242177622916
C           -9.98969560465039        2.69495669032238       28.42424553810977
H           -9.43167981813876        2.93705967743232       29.33206326636382
C           -9.44529287453732        1.79386656054966       27.61169532726329
H           -9.87876704059249        1.56384644589021       26.65173488697263
H           -8.56615339131389        1.24066963795696       27.90793326136874
C           -9.51844475507516        8.17450048866715       28.52290446069830
H           -9.11672869797439        7.70854179224951       27.62490351945285
H           -9.34923066495278        7.53786348859275       29.38921002018455
H           -8.97130056425592        9.11389609038193       28.68846088302686
C          -11.79329121651747       10.59875584939143       28.38105264646421
H          -12.73298539458660       11.08997026833371       28.61597081387165
C          -10.70272920670418       11.31425973925665       28.11629766154800
H           -9.76546122388930       10.83979003788845       27.88791846919927
H          -10.71061815880327       12.39464041988222       28.09658793308175
C          -16.97903671493058       10.84989539844963       27.25794461627703
H          -17.27040436478275       11.06476445547292       26.22739865203726
H          -16.25200759723009       11.62606849672440       27.55470380318921
H          -17.84810313727943       10.94350152001305       27.91217175199921
C          -19.06914814632490        8.99560176376986       26.44931475631164
H          -18.81603859373276        9.72891284296266       25.68118698985666
H          -19.45841812542722        9.51909590291458       27.32670276119829
H          -19.88059999692258        8.36889778678076       26.05083596982804
C          -14.05961113474614        5.61398905113112       33.40817532120231
H          -14.62231784199402        4.83525668638445       33.92394644897041
H          -14.19046038827805        6.54998130018559       33.95154779930833
H          -13.00780194221063        5.34529434656459       33.41374886719111
N          -15.84094173344629        6.08678154949100       31.72397068733406
H          -16.55623558009769        6.29109983534953       32.40173218779003
C          -14.54397170742979        5.74990931960480       32.00973433397946
C          -15.98068717735411        6.10068008376947       30.38160009640770
H          -16.90444226167632        6.31624611935086       29.88122530142158
N          -14.85025269598995        5.80341860172785       29.79547925561821
C          -13.94344620816897        5.57307862974687       30.79464272924939
H          -12.93002127513289        5.28927702014483       30.58220219622508
C          -14.75230387952822        8.17385519351787       24.37185652095783
H          -14.40098039523138        8.89559730303359       23.63460483430751
H          -14.95104346213157        8.70080731816613       25.29922648715472
H          -15.67851144391990        7.73245929598636       24.01167985891752
C          -13.68308190929156        7.10960335178112       24.57678334835715
H          -12.83805230392328        7.53162958870583       25.11872778931561
H          -13.35141695227266        6.73668554990623       23.60646308224831
S          -14.31889693050101        5.64087561828203       25.47998997934660
C          -12.96270740339921        4.47777210042634       25.13344924784842
H          -12.04212597470852        4.77001968131087       25.63004077747541
H          -12.81684054694884        4.42806690438274       24.05900286180572
H          -13.27402040519957        3.50532622009517       25.50824342283196
87
 energy: -124.685796165036 gnorm: 0.045923107549 xtb: 6.7.1 (edcfbbe)
Fe         -14.58325578896594        5.79952067583588       27.75628265255682
N          -16.13315123808995        4.47934244544890       27.51436857247751
N          -15.88067959190765        7.26331211858443       27.46917574493531
N          -13.06178700498591        7.15027490465833       28.00221780371015
N          -13.32061627114667        4.34909447037543       28.05146548608275
C          -16.07045127753108        3.14134636484807       27.72629094497695
C          -17.36293885783383        2.52112448676209       27.44455253934683
C          -18.18364625420729        3.51700620360175       27.04207107932502
C          -17.39346521083402        4.74167089731443       27.09224373571368
C          -17.16645520826211        7.17956214543536       27.01715052638023
C          -17.72727619546707        8.49162051114010       26.87403380487287
C          -16.75368961212815        9.37324663936469       27.27261123930455
C          -15.61254850855559        8.58824573236515       27.62541437748738
C          -13.20926234584777        8.48854339844882       28.11924271315129
C          -11.92371228466831        9.14656374089839       28.30973123424118
C          -10.99751338644225        8.14070629889484       28.31344625302670
C          -11.73138978644367        6.89307363997303       28.13415875637233
C          -11.96043516971196        4.43300561089396       28.14842840917846
C          -11.40119559157793        3.11032848767525       28.29407809299343
C          -12.46702995812083        2.24204995051808       28.33664576487114
C          -13.65174573695483        3.03209623797163       28.18275019356450
C          -14.92131717664316        2.47265645013645       28.10256451729550
H          -14.99548276312865        1.41335472054043       28.31116945130579
C          -17.86911341300152        6.00677857970458       26.79225618327214
H          -18.86744108683212        6.10875383024873       26.39026223795650
C          -14.40970605293036        9.15734436706231       27.99301242891205
H          -14.41843513413752       10.22702089561842       28.14027913966211
C          -11.20644112634624        5.60372794923906       28.12962611914963
H          -10.12869485684937        5.48602286452419       28.14850841205218
C          -17.55718770156456        1.05407222971894       27.59520375941916
H          -17.32682858134461        0.78924900675255       28.62883477650724
H          -16.84691005171275        0.54986301985268       26.93775459014994
H          -18.56237604515928        0.67243618013013       27.36204023338415
C          -19.62037682524604        3.54973221879702       26.65276009188170
H          -19.69342502922251        3.99666572352313       25.66046122241944
H          -20.14978836892916        4.18908130141720       27.36234180342241
H          -20.13676596516504        2.57908246534960       26.62635406621342
C          -12.29937479343464        0.77269612618699       28.53605952763428
H          -11.57969898102041        0.43490263955283       27.78850223259321
H          -13.17985138224888        0.10567873777095       28.47079424538572
H          -11.85481585253769        0.63564721178446       29.52551999901017
C          -10.01174608159158        2.67078437718018       28.43909332330133
H           -9.47094223712186        2.95006634775613       29.34130836000774
C           -9.44534221936154        1.79768089891699       27.61522650584510
H           -9.89627980760343        1.53625184998142       26.67071847109943
H           -8.51405500462923        1.29827290280460       27.86734342932962
C           -9.52301252517217        8.13553208345656       28.51650363327632
H           -9.06639673278640        7.68554230423167       27.63321776604304
H           -9.30627973696709        7.51264326777706       29.38462599938937
H           -9.04682298309097        9.11113724726395       28.68442406692571
C          -11.79193506442508       10.58274038600105       28.37653750032204
H          -12.71422773775663       11.10457548510129       28.61531698493728
C          -10.70555834654055       11.30558434891410       28.11526521814567
H           -9.76610850113958       10.84613478935698       27.86534672670706
H          -10.71507297444242       12.38364694063174       28.12307359630054
C          -17.00119396557422       10.84044581865790       27.25657714992795
H          -17.28581857617509       11.11224400095388       26.23564222949565
H          -16.20479661419779       11.53900871598275       27.57036287843149
H          -17.86975352039401       11.00926554437728       27.90330552596780
C          -19.05942082158060        9.00335890008113       26.45010528696806
H          -18.87118675082063        9.74662422727123       25.66806537935041
H          -19.49553827323266        9.53135085222864       27.30445527703394
H          -19.81462069409761        8.29896535518301       26.06919761834817
C          -14.06014215774276        5.61294503841458       33.40203359832185
H          -14.61866770989543        4.83623988106095       33.92432586662903
H          -14.18816994617336        6.54764091732624       33.94720533581324
H          -13.00857014785670        5.34728689698855       33.40695343980569
N          -15.84704733906539        6.08492547152620       31.72605226971094
H          -16.56204091709048        6.28864079598446       32.40456760449374
C          -14.54884139623653        5.74741891979734       32.00453889694560
C          -15.98420671223561        6.10561441181594       30.37978237447679
H          -16.90439991330157        6.32416705016565       29.87881022540384
N          -14.85878482099761        5.80995173533504       29.79016931597709
C          -13.95241426995717        5.57872785262189       30.78549745563072
H          -12.93959981786540        5.30053653631102       30.57498441493346
C          -14.74688058786883        8.17094819748397       24.37081662343862
H          -14.40139284871140        8.89718691413996       23.63713631890797
H          -14.95285908251592        8.69117261056927       25.29964160803881
H          -15.67010265172657        7.72416129217706       24.01160923118805
C          -13.67582969000899        7.11217099943361       24.57109511305550
H          -12.83345371209724        7.51900334494285       25.12709483279987
H          -13.34034485029412        6.73433585912936       23.60610312764273
S          -14.33308132590851        5.63591132012241       25.46255210019659
C          -12.96249333460702        4.48014156889584       25.11803477952115
H          -12.05272217167420        4.78814796695632       25.62286994983332
H          -12.81558046548825        4.42648513306286       24.04520359633453
H          -13.27798849484256        3.51488116270993       25.50154403155152
87
 energy: -124.697301730169 gnorm: 0.037976327947 xtb: 6.7.1 (edcfbbe)
Fe         -14.57984760350503        5.80754633738550       27.75876353732055
N          -16.12334549648759        4.48810023984487       27.52645422782676
N          -15.88682927393244        7.27835851890623       27.48038315325823
N          -13.07741257556172        7.14440335820800       28.00608969069688
N          -13.32202260434746        4.34580759193952       28.05195551722406
C          -16.06147260321091        3.15221067816630       27.73544418592344
C          -17.34951270906248        2.52904527718591       27.45599992587016
C          -18.17208876022529        3.52872382040569       27.04784842918322
C          -17.38111364832101        4.75080275733735       27.10404704357384
C          -17.17115119352183        7.19033769279092       27.02682263679402
C          -17.73429561895258        8.50266064271292       26.87819400979113
C          -16.76907833420385        9.38612642416000       27.28098087895820
C          -15.62210537103920        8.60371338295375       27.63675637081839
C          -13.21492298649549        8.48412775976349       28.12168159788042
C          -11.92030923700200        9.13003290445337       28.30442187172772
C          -10.99992680476316        8.11364039305063       28.30585867056003
C          -11.74897995016975        6.88085955210083       28.13510887372412
C          -11.96302198365565        4.42813465967041       28.14799581739395
C          -11.40008112484590        3.10947196021199       28.28577373903328
C          -12.45688608902811        2.23672967256164       28.33450199764555
C          -13.64572920500208        3.02743914849823       28.18232837372264
C          -14.91571259268915        2.47540961136901       28.09875762793825
H          -14.99031484885675        1.41256408048290       28.27960073357155
C          -17.86429944887416        6.01118357597811       26.80772603050027
H          -18.86842476646921        6.10415261806062       26.42015862956480
C          -14.40977459422654        9.16319034408669       27.99476250663992
H          -14.40808761135772       10.23587728013363       28.11723362618545
C          -11.21779960466614        5.59953839559650       28.13856585640412
H          -10.14167869464941        5.48689723017655       28.18195069980301
C          -17.54902282425019        1.06305419707213       27.60151593908798
H          -17.33206310321867        0.75786675523777       28.62935619784261