78
 energy: -115.745093730446 gnorm: 0.388178239226 xtb: 6.7.1 (edcfbbe)
Fe           6.29400000000000       38.88400000000000       21.82000000000000
N            7.10500000000000       37.77400000000000       20.32900000000000
N            6.95500000000000       37.51700000000000       23.20300000000000
N            5.35200000000000       39.90400000000000       23.31000000000000
N            5.49000000000000       40.13700000000000       20.40600000000000
C            7.14500000000000       38.08800000000000       19.00400000000000
C            7.89700000000000       37.14400000000000       18.30700000000000
C            8.34100000000000       36.22500000000000       19.22300000000000
C            7.86700000000000       36.56600000000000       20.49400000000000
C            7.64700000000000       36.37299999999999       22.96100000000000
C            7.98100000000000       35.73500000000000       24.18800000000000
C            7.49300000000000       36.52500000000000       25.16800000000000
C            6.82900000000000       37.61400000000000       24.55300000000000
C            5.42200000000000       39.70900000000000       24.65600000000000
C            4.69800000000000       40.68900000000000       25.36000000000000
C            4.18500000000000       41.50900000000000       24.40600000000000
C            4.57900000000000       41.02499999999999       23.14000000000000
C            4.70300000000000       41.21399999999999       20.64500000000000
C            4.42800000000000       41.89200000000000       19.44500000000000
C            5.07900000000000       41.22000000000000       18.45200000000000
C            5.73000000000000       40.13800000000000       19.07900000000000
C            6.51000000000000       39.19199999999999       18.44400000000000
H            6.64500000000000       39.32700000000000       17.37100000000000
C            8.04500000000000       35.92700000000000       21.71200000000000
H            8.55600000000000       34.96500000000000       21.68300000000000
C            6.11400000000000       38.62600000000000       25.19700000000000
H            6.09400000000000       38.55900000000000       26.28400000000000
C            4.25800000000000       41.56099999999999       21.90800000000000
H            3.54500000000000       42.38300000000000       21.93500000000000
C            8.14000000000000       37.11500000000000       16.81600000000000
H            8.58800000000000       38.13000000000000       16.75700000000000
H            7.06900000000000       37.17700000000000       16.52700000000000
H            8.68300000000000       36.44000000000000       16.12000000000000
C            9.18000000000000       34.97899999999999       18.85700000000000
H            8.47900000000000       34.23100000000000       19.28600000000000
H            9.97700000000000       35.19400000000000       19.60100000000000
H            9.62800000000000       34.56300000000000       17.93000000000000
C            5.10700000000000       41.49300000000000       16.94900000000000
H            3.99800000000000       41.55500000000000       16.94200000000000
H            5.45000000000000       41.07600000000000       15.97800000000000
H            5.52400000000000       42.51299999999999       17.09200000000000
C            3.54000000000000       43.13900000000000       19.41700000000000
H            3.80000000000000       44.13200000000000       19.76300000000000
C            2.65400000000000       43.28900000000000       18.15800000000000
H            2.27100000000000       42.40000000000000       17.63600000000000
H            2.39700000000000       44.28599999999999       17.77199999999999
C            3.35500000000000       42.74600000000000       24.54100000000000
H            2.53500000000000       42.41100000000000       23.87100000000000
H            4.02400000000000       43.43100000000000       23.97700000000000
H            2.91400000000000       43.27700000000000       25.41100000000000
C            4.53000000000000       40.68299999999999       26.85700000000000
H            5.25200000000000       40.01100000000000       27.29100000000000
C            3.39700000000000       41.43600000000000       27.51599999999999
H            2.74200000000000       42.09099999999999       26.92200000000000
H            3.21500000000000       41.33799999999999       28.59600000000000
C            7.62400000000000       36.33900000000000       26.63900000000000
H            7.17300000000000       35.32700000000000       26.55500000000000
H            7.33200000000000       36.78300000000000       27.61400000000000
H            8.73000000000000       36.24699999999999       26.58000000000000
C            8.71700000000000       34.40800000000000       24.31300000000000
H            7.90400000000000       33.98800000000000       24.94300000000000
H            9.49000000000000       34.85499999999999       24.97400000000000
H            9.16300000000000       33.59000000000000       23.70700000000000
O            4.44700000000000       37.74100000000000       21.71099999999999
H            3.93000000000000       38.00299999999999       22.47300000000000
H            4.20900000000000       37.14900000000000       21.09200000000000
C           10.80000000000000       41.72500000000000       23.64800000000000
H           10.69700000000000       42.82999999999999       23.69300000000000
H           11.77000000000000       41.47300000000000       23.16900000000000
H           10.76900000000000       41.31800000000000       24.68100000000000
N            9.49500000000000       41.51500000000000       21.52200000000000
H           10.07500000000000       42.15299999999999       21.01500000000000
C            9.66800000000000       41.14700000000000       22.83900000000000
C            8.41800000000000       40.86200000000000       21.06400000000000
H            8.03300000000000       40.97300000000000       20.05099999999999
N            7.91500000000000       40.09000000000000       22.00200000000000
C            8.69800000000000       40.27900000000000       23.12500000000000
H            8.47300000000000       39.75500000000000       24.04600000000000
78
 energy: -115.899932871404 gnorm: 0.211869350639 xtb: 6.7.1 (edcfbbe)
Fe           6.29117608785923       38.88482177588379       21.81823471004943
N            7.11682470956868       37.77167699448543       20.33963366616449
N            6.94971380904531       37.53575548655484       23.18289285814298
N            5.35992268919982       39.90566640449200       23.31182747584909
N            5.49889689601793       40.13637290259087       20.42416993280786
C            7.14837756077258       38.08624218884501       19.01403796580592
C            7.90877575737496       37.12311053200096       18.29848152000202
C            8.34378923868941       36.21094185747677       19.19910522615852
C            7.85811054372386       36.58147360571783       20.48422269915186
C            7.64040466210556       36.39091269745437       22.93841219982503
C            7.97303361215369       35.74382697310625       24.16335637876050
C            7.48398793529740       36.54294010735502       25.15680251220567
C            6.82155444512499       37.63356680394743       24.53335138841155
C            5.43140862824324       39.69819685856855       24.65800905814037
C            4.68654623714034       40.68917171539304       25.38612332368677
C            4.17631727906441       41.51199920528529       24.42439788125696
C            4.58349279308074       41.02071456523783       23.14462187808126
C            4.70126196239126       41.21175263175771       20.65641845535578
C            4.40459082174123       41.89996138392279       19.43472784828466
C            5.07733250081212       41.20576883908505       18.45165161245397
C            5.73927214091299       40.12565007922267       19.09164092683292
C            6.51722619243371       39.18528716035830       18.44367446076446
H            6.64369870987652       39.32372629063335       17.37372352634819
C            8.04132638372299       35.93400093263026       21.69564350310305
H            8.55698040402453       34.97549339939906       21.67866832856461
C            6.11793602812061       38.62596311016302       25.20174700567095
H            6.09924357230359       38.55058421539750       26.28344164475090
C            4.25144169995976       41.56909508776695       21.91471959225935
H            3.54705444036702       42.39234854384542       21.93447830032389
C            8.12099160138700       37.14984498352818       16.81329626134135
H            8.58507272118418       38.13848862626477       16.71411661352463
H            7.07491731760921       37.18770898902823       16.48553289483409
H            8.67326124061743       36.43868319574438       16.17684005563381
C            9.17596807982641       34.97263228871856       18.90328944921897
H            8.50284168362271       34.19994426501547       19.29188649808680
H            9.99752264669456       35.15357681470650       19.60507615900546
H            9.59349356603702       34.61628832594917       17.94423211443189
C            5.07894038785383       41.52932896845669       16.96888587826496
H            3.99001172892703       41.58566868061975       16.88980740936958
H            5.46198877197379       41.05268795889219       16.04712447075766
H            5.50829846483722       42.53595775485816       17.04908533911266
C            3.54783391461859       43.13400393056841       19.30600363111285
H            3.79865871946445       44.09658944609330       19.76791247742543
C            2.68712443230223       43.28182581810019       18.19291710651627
H            2.28896077357362       42.41820461666536       17.65831217397138
H            2.39347615759600       44.26245314147212       17.81069087209780
C            3.35054393391323       42.75186683945190       24.50679217296844
H            2.51386544522778       42.44943587726057       23.86546332554330
H            3.99777585604314       43.45919006607355       23.97310919085183
H            2.94469349154339       43.24339563199523       25.40194952115576
C            4.48316366547543       40.70682926492103       26.84938387076952
H            5.21043964612034       40.04254858133249       27.31374842617842
C            3.44638403750100       41.40169853225958       27.49107045737514
H            2.77304456237769       42.05463606553233       26.93257364031148
H            3.24458628101082       41.32889154610565       28.56391733898679
C            7.64415249713867       36.29608718859001       26.62574123657396
H            7.19180449103935       35.29629099455731       26.60945500700767
H            7.32237360418297       36.80329737078139       27.55206970203927
H            8.74006834895824       36.22015316524177       26.62882504843540
C            8.70483875919041       34.42713570980075       24.35877165945046
H            7.92951460762179       33.94730592151418       24.97061501973804
H            9.50900467801047       34.81222991642006       24.99921594299426
H            9.13065062878813       33.65446908330665       23.69004055195063
O            4.45607877275089       37.75310346700885       21.72273455817554
H            3.91780074565065       37.99614704750323       22.47310691643636
H            4.19198307908055       37.12859139142201       21.07791445652671
C           10.79878135681595       41.72591969833556       23.64709815616067
H           10.70163644571554       42.81925219090801       23.69487083470238
H           11.76114848051230       41.47706937777294       23.17877018713027
H           10.77101907510843       41.32283926378189       24.66636865879100
N            9.49774382009642       41.51784362706272       21.52509181616177
H           10.07754393279633       42.15747873853846       21.01345311900057
C            9.67818797249054       41.15443932408859       22.83938496608962
C            8.41803847580420       40.85651406659756       21.06587353515253
H            8.03564551727212       40.96682723503262       20.06190471384112
N            7.91229240347504       40.08661880090457       22.00101604793986
C            8.69176510954366       40.27347367900471       23.12098831579364
H            8.47037032949074       39.75551018363494       24.03745632184892
78
 energy: -115.978349893069 gnorm: 0.122321485501 xtb: 6.7.1 (edcfbbe)
Fe           6.29043281703528       38.88507497114099       21.81883859642059
N            7.13012205231526       37.76858038054193       20.34663066636904
N            6.94816634366984       37.55401762920623       23.16602088694516
N            5.36679030914483       39.91151091902599       23.31239124462430
N            5.50844403720685       40.13983968251782       20.44048697336238
C            7.15212132395351       38.08787071162107       19.02302494933286
C            7.91810363044053       37.10604262645661       18.28773365454716
C            8.34660018118447       36.19554316829670       19.17774459260788
C            7.84741607270822       36.60257142668363       20.47627246869350
C            7.63689184905850       36.40656703288728       22.92049344269348
C            7.96709788862568       35.74898511376713       24.14620403821593
C            7.47736046592748       36.55458642708928       25.14999437512765
C            6.81774893518409       37.65015780225564       24.51755653460798
C            5.43728868397170       39.69181270073977       24.65624920296092
C            4.67355155972536       40.69143900081752       25.39994767575988
C            4.16560047199384       41.51575084568429       24.43504459827647
C            4.59009275036602       41.01773153495898       23.14561656921516
C            4.70009294759620       41.20984078633339       20.66701979392882
C            4.37883714850817       41.89967994715560       19.42764682039510
C            5.06903789432218       41.19268047086293       18.45242496824969
C            5.74730636363031       40.11714095639652       19.10339903041269
C            6.52504557855869       39.17987861487821       18.44277826720069
H            6.64122001988315       39.31968920079927       17.37642144092293
C            8.03941422418400       35.94161236283708       21.67852563725484
H            8.55836772744783       34.98845008145724       21.67128688224509
C            6.12089014836233       38.62917115648008       25.20979959120377
H            6.10388437094658       38.54455989787608       26.28654037804121
C            4.24602116840874       41.57981400196288       21.92078596107489
H            3.55012596162756       42.40448407189864       21.93506245092653
C            8.10000947231902       37.18674429576320       16.81074466585316
H            8.58037016175081       38.15117344454529       16.66675892022960
H            7.07826960295005       37.20308882737338       16.43819285755530
H            8.66522043580821       36.43281915276599       16.24397474627301
C            9.16920417060227       34.96678816799938       18.95217827611072
H            8.52948439298103       34.16179869583848       19.30431349470494
H           10.01895666705620       35.10907794654221       19.61402671857088
H            9.55203419579176       34.68030177588125       17.95721125873150
C            5.04922430854084       41.56561123552724       16.99408654735348
H            3.97978599831852       41.62011597701843       16.83149629500446
H            5.48048401625262       41.01795319157983       16.13385529027891
H            5.49051373525127       42.56125245940612       17.00648530050821
C            3.55757019028533       43.12576642147285       19.20810260876326
H            3.81246671560140       44.04826913148464       19.77401715372129
C            2.72963346574279       43.26941062498942       18.22476725878591
H            2.31613350000211       42.43211845322188       17.66813514211617
H            2.37886544732520       44.23783549791026       17.86179650683904
C            3.34592002841022       42.75730566855601       24.47194200785548
H            2.48875380584760       42.49319309354576       23.85701294591763
H            3.96963233106009       43.49065766321606       23.96481832859515
H            2.97985100667276       43.20195932710187       25.40119670576530
C            4.44873834235346       40.72150608081143       26.84066804663330
H            5.17108333010724       40.06681053310087       27.34233950816065
C            3.49222692242138       41.36777470956910       27.46208404788018
H            2.79581700476321       42.01995837910110       26.93962194207707
H            3.28211753040197       41.31956779153003       28.53156693121397
C            7.66472545253109       36.25137360416411       26.60611774855079
H            7.21362277423787       35.26300073242766       26.66298754159727
H            7.30552914585178       36.83434478628387       27.47275016918085
H            8.75046149639905       36.18883901491155       26.67558384124635
C            8.68982692530113       34.45109469543338       24.40442968505632
H            7.95520202817155       33.91005015551619       25.00114588179088
H            9.52507896158887       34.77216310681319       25.02644311632864
H            9.08975281789445       33.73457888841956       23.66093562244974
O            4.46770945503330       37.75880032737967       21.72642092883654
H            3.89763153676138       37.97803899967926       22.46340252950971
H            4.17305242653526       37.12071151267646       21.08122444051108
C           10.79635299495846       41.72577930436537       23.64624470737377
H           10.70575576807357       42.81186906643783       23.69696681854799
H           11.75541957173163       41.48014318038707       23.18698491074804
H           10.77113463909221       41.32480058044491       24.65575067079154
N            9.49865436351688       41.51927239833375       21.52822434561251
H           10.07782051805286       42.16038203648070       21.01243416593922
C            9.68419232533779       41.15971507904975       22.83904149217949
C            8.41876093176845       40.85078612823418       21.06649497156190
H            8.03826475101628       40.95989959819168       20.06980379473671
N            7.91323506971102       40.08237061486377       22.00039410069401
C            8.68694371042798       40.26938013913595       23.11499932250849
H            8.47043263140257       39.75666398188913       24.02988399713297
78
 energy: -116.016176615427 gnorm: 0.059443834803 xtb: 6.7.1 (edcfbbe)
Fe           6.29015015094345       38.88611934850820       21.82032756041021
N            7.13990131682989       37.77596641105582       20.34897729866100
N            6.95149775595658       37.56800411419338       23.15731630504688
N            5.37421266650013       39.91761024827465       23.30908750719215
N            5.51784030225269       40.14061441188863       20.44920193608325
C            7.15722245383382       38.09340098686798       19.02715237290811
C            7.91863949400334       37.10456032314769       18.28169521204333
C            8.34342676158687       36.18862320188596       19.17326034165299
C            7.84071461908924       36.61702237583206       20.47273629578035
C            7.63733167359847       36.41814290661706       22.91106291230950
C            7.96229369049678       35.75477229255155       24.14082454282622
C            7.47512233790137       36.55567266527039       25.14485384442554
C            6.82074555536648       37.65957025965720       24.50979393936406
C            5.44110011252735       39.69122941169556       24.64942330706753
C            4.66773956091001       40.69123835861458       25.38856242034396
C            4.15708835202472       41.51880698916438       24.42738774592558
C            4.59546528662945       41.01800066714929       23.14161324835172
C            4.70322210935992       41.20377938674956       20.67499228700820
C            4.38116838128444       41.88481844741762       19.43118956490365
C            5.05907345984048       41.18269576546085       18.45482220701171
C            5.75167744783905       40.11259803863780       19.10955123222503
C            6.53082279605259       39.17854839756961       18.44393357806149
H            6.63752168675563       39.31421744669523       17.37796095269577
C            8.03833942721417       35.95120227140445       21.66828471855969
H            8.56175966817593       35.00387444327342       21.66099468840527
C            6.12544501993648       38.63342705796273       25.21185046192121
H            6.10854817467336       38.53929733509506       26.28734801757293
C            4.24655933293971       41.58696425955332       21.92321794656376
H            3.55853442979659       42.41854097453707       21.93517379262714
C            8.08586222497351       37.21248848402322       16.80810116446443
H            8.57480570199938       38.16669722569858       16.61083773786794
H            7.08205204229288       37.22334868592093       16.38166069759831
H            8.66323678081676       36.41937562539049       16.31068602342872
C            9.16353201550621       34.96066067071204       18.99051573374905
H            8.56100988868484       34.11492581410812       19.32355717305632
H           10.04207159093166       35.05720320039040       19.62947847234729
H            9.51064038080499       34.74482913487451       17.96462317045093
C            5.03126380537866       41.58711051305139       17.01271248746535
H            3.97124708100299       41.65949421654064       16.76248574071796
H            5.50991317240542       40.97188210248557       16.22155194674971
H            5.46869229538561       42.58814170157878       16.96122455544825
C            3.61961768034888       43.11910740531626       19.19291433165418
H            3.87193244823695       44.01398382327385       19.78358305339761
C            2.68584255576804       43.26692340398768       18.23219489492509
H            2.32613879260521       42.43420677769242       17.64251322207850
H            2.32440838550734       44.23436366291217       17.90289794744467
C            3.34103008221561       42.76268455165989       24.44636329949361
H            2.45613520678938       42.54739346077633       23.84600014277395
H            3.93625691081830       43.52920518895760       23.95090962569389
H            3.01551968591882       43.16160196126771       25.40996018055700
C            4.45160234800375       40.70783062902690       26.82140303236825
H            5.15514846652893       40.07006803708759       27.36166795424275
C            3.49586269820178       41.36536962767207       27.46353349507786
H            2.78862070013688       41.99720954649382       26.94684429733088
H            3.31806278155964       41.31400122063847       28.52912204956813
C            7.67538516624655       36.22283535407899       26.58880704413116
H            7.23995467791914       35.22752048832084       26.72105298228042
H            7.28116218567096       36.87336431642115       27.39284503831463
H            8.75880864944226       36.15076440842972       26.72702959815019
C            8.67734920638194       34.47166846098881       24.43281663488957
H            7.98550087450093       33.87194333859953       25.03569749728276
H            9.53923354184115       34.72904190681307       25.05769305918431
H            9.04761872572153       33.81749782642308       23.61825164142764
O            4.46721971658280       37.75197471114829       21.72716910062688
H            3.87260845211473       37.95700881386207       22.45188231358264
H            4.15347464471920       37.11379672649922       21.08528215140695
C           10.79414788381085       41.72586067621469       23.64596027152099
H           10.70911547637875       42.81036307896938       23.70086971544850
H           11.75476433224673       41.48195517816001       23.19369210091011
H           10.76900023312266       41.32324194000766       24.65188609485611
N            9.49856451727823       41.51996593601471       21.52890164290224
H           10.07594904903268       42.16313970454343       21.01195775217799
C            9.68470903849707       41.16111145167865       22.83792511146667
C            8.42201934809518       40.84520121300869       21.06570608703372
H            8.04146270311175       40.95095159133709       20.07153378875804
N            7.91654661242093       40.07724855372846       21.99928203653836
C            8.68667031853314       40.26667102758400       23.11063513151130
H            8.47106489918934       39.75544782889981       24.02518453770005
78
 energy: -116.030495148463 gnorm: 0.056566751142 xtb: 6.7.1 (edcfbbe)
Fe           6.28991419504722       38.88963700109224       21.82242354165981
N            7.14389401941864       37.79100920604122       20.35063573187809
N            6.96003027868098       37.57972473312077       23.15767994412249
N            5.38171583025938       39.92527835216513       23.30195713884773
N            5.52396531567722       40.14681903090102       20.45025611472444
C            7.16044743039055       38.10454505800917       19.02989596369866
C            7.91584816717119       37.11028608205741       18.27881860045213
C            8.33684193045995       36.18836414207826       19.17630373283830
C            7.83460776748458       36.63425966963712       20.47412585669182
C            7.64346598015220       36.42741720110666       22.90982401555932
C            7.96144283355915       35.75864648169345       24.14412626249784
C            7.47541075123625       36.55349428579989       25.14700085306610
C            6.82656549511628       37.66767704174723       24.51079951808220
C            5.44289875760540       39.69569355862780       24.63971822068872
C            4.65853166408213       40.69336444895905       25.37037573425681
C            4.14657052817623       41.52519068594975       24.41039652585360
C            4.60112092345065       41.02195880584080       23.13272282659637
C            4.70532057322992       41.20538968149392       20.67758837699228
C            4.36879478661467       41.87336670952842       19.43217246606051
C            5.04405879518610       41.18290859402224       18.45281720523790
C            5.74969361473961       40.11560583284192       19.10831230506334
C            6.53221349123939       39.18336206712837       18.44295338885395
H            6.63046863430574       39.30975164018369       17.37627014450155
C            8.04067273517123       35.96392981263249       21.66462461301689
H            8.56776270330458       35.02170743782966       21.64891092910797
C            6.12972392909899       38.64147141219080       25.21236457841516
H            6.11108197638693       38.54161836342350       26.28705517389345
C            4.24969924323971       41.59811083772656       21.92104006033883
H            3.57022327086404       42.43659948466991       21.93386618247386
C            8.07866397658023       37.22541516420092       16.80694785516180
H            8.57471110904198       38.16908401729770       16.56366873494076
H            7.09253086579812       37.23250683915491       16.33321916924602
H            8.66205014958777       36.40803486130144       16.36908964017635
C            9.15494250121555       34.95933036901518       19.01475140795521
H            8.58523398748333       34.08303524183735       19.33490868662066
H           10.05267939976859       35.02159127497639       19.63516493316252
H            9.47361787987915       34.79465374233813       17.97889320262474
C            5.02443281186872       41.59546661264741       17.02169544608203
H            3.98033167233703       41.67157140247271       16.69831154942348
H            5.53758400208283       40.93387028735190       16.30215958380078
H            5.45816260160660       42.59631786131090       16.92593481822033
C            3.61252843028735       43.09086998842924       19.20181736027638
H            3.88869963974902       43.96202873013385       19.78169195547902
C            2.76459439144889       43.25524546314603       18.20740655781914
H            2.33445694647610       42.43604499114497       17.65987988369265
H            2.29132083951170       44.22887511071853       17.99682759236972
C            3.33493516837234       42.77106215701009       24.43057401858324
H            2.42231399634240       42.60152125853995       23.84937293887166
H            3.90345088746210       43.56585485963330       23.94270594984961
H            3.05150945064586       43.12557992022057       25.42330287500786
C            4.45805693605360       40.69739406583895       26.80087188160927
H            5.14275434630317       40.07360664735052       27.36984596825140
C            3.49411186702198       41.35470760652677       27.46144822598779
H            2.77351637477799       41.97091229451465       26.95412069048168
H            3.37183252795276       41.30185520171811       28.53027278877946
C            7.67849323573813       36.20666818186942       26.57935363066406
H            7.25207620198935       35.21347554289970       26.76972144927525
H            7.25717815750985       36.90312404051490       27.31951029602410
H            8.75629605645471       36.12966705907471       26.77172456662096
C            8.66986080409388       34.48676458586780       24.44434469945961
H            8.01053604519383       33.84616506401044       25.04490912544274
H            9.54943091709866       34.69792647592327       25.06523290976685
H            9.00853652534014       33.89327820338899       23.58084389715964
O            4.46184065483061       37.73458979601558       21.73065124731442
H            3.83625909861842       37.92920517672967       22.43480557245240
H            4.12654816955717       37.10570960291294       21.08818037262151
C           10.79220226929979       41.72568462215051       23.64685095778027