78
 energy: -116.057596241578 gnorm: 0.000059577638 xtb: 6.7.1 (edcfbbe)
Fe           7.64658524541348        5.34063182403578       14.74584922379108
N            7.58295785971312        5.38416344724310       16.73741816145978
N            6.53924089864201        6.99683511821734       14.65814667044565
N            7.65832517740501        5.23559445324947       12.73783687933958
N            8.73077336454898        3.64722101031749       14.82525555868495
C            8.18394918522464        4.52233962064639       17.59821727763190
C            7.90600627875558        4.89063006410773       18.97005386178023
C            7.12149768272026        5.99907442813873       18.91555470458468
C            6.93523146578671        6.29479783776688       17.51097721441030
C            6.03640815818028        7.69693842492001       15.70939746998048
C            5.31205025096434        8.85748618681712       15.25591910461076
C            5.39865918756581        8.85434357916668       13.88938704070865
C            6.16248230221592        7.67040247077211       13.54134447968181
C            7.14551755360913        6.15815252193638       11.87766319302928
C            7.37122638716677        5.76317519783853       10.51356604712309
C            8.01031260111200        4.55217175919873       10.55981759633589
C            8.20850011092864        4.26039893661512       11.96507609215124
C            9.21111119628136        2.93232195951461       13.77066364811264
C           10.03062266508176        1.83375924608147       14.22962749943129
C           10.03714426388944        1.90403094298748       15.58844334969063
C            9.22201033448362        3.04417465397186       15.94100644064461
C            8.96408801079121        3.43906580549074       17.23996829341041
H            9.40303024538789        2.85516351106114       18.03433831442635
C            6.21012657310602        7.37245720568442       17.04416588140568
H            5.75327623508051        8.01880299714811       17.77820519919417
C            6.46391073021510        7.30507956336803       12.24467004936972
H            6.12806598995978        7.95300438707324       11.44961793326787
C            8.95805473906747        3.19750290402068       12.43756781733991
H            9.41158604486887        2.54830563896159       11.70525845966011
C            6.53446757177356        6.79805698605316       20.02837910255452
H            6.88786408407298        7.82906585666917       19.99127672469404
H            6.80813459831672        6.37755340619561       20.99292178007585
H            5.44689557190302        6.81115511573357       19.95608723743876
C            8.41123695231983        4.14773032254859       20.15916752763756
H            9.50143918453361        4.12986516484022       20.16594250437475
H            8.05668348864541        3.11692218164548       20.14559796141720
H            8.07075733748726        4.61420677080034       21.08033858205046
C            4.56925187731268        9.80204268804019       16.13532941440243
H            5.24113863591957       10.54530605146273       16.56859471610433
H            4.08648400047581        9.26710373823343       16.95163549571577
H            3.80592964145049       10.32336051021385       15.56137747712383
C            4.83445538094241        9.78277946532909       12.93533544046058
H            4.52427224476439        9.35229799972577       11.99031237223904
C            4.68057597146389       11.08914766000791       13.12707093104146
H            5.01218014334192       11.57999717450989       14.02541915687697
H            4.23723121589145       11.72051027607296       12.37492357324074
C            6.91952284251077        6.52547982566695        9.31643346075484
H            7.29628519709148        7.54797955859927        9.34839715353612
H            5.83038436098839        6.56909320839607        9.27715410131358
H            7.27285192471109        6.05131796547508        8.40413776257470
C            8.40041989879786        3.73229703421654        9.43179182844655
H            8.74737642212228        4.27879508466428        8.56123792878040
C            8.32538067133014        2.40742434171506        9.37075207127123
H            7.93718942393409        1.81725380019577       10.18361474058534
H            8.62877661374311        1.86578390765744        8.49022786871103
C           10.70152208281135        0.85362308941282       13.32955099637749
H           11.38706099056540        1.36220744672751       12.65132737958556
H            9.96656976285988        0.31987575659320       12.72631593997092
H           11.26639069210776        0.12402262698943       13.90453640710856
C           10.71920938554098        1.02111260333522       16.57635293585874
H           11.28157385405460        0.23863932539071       16.07278145460393
H            9.99089683334063        0.54927263413105       17.23655998897505
H           11.40912624228490        1.59799168885703       17.19251601484884
O            5.79947886033478        3.97978467837436       14.66636714060408
H            5.69400996389061        3.90051861104900       13.71190530124261
H            6.19379881573037        3.15734341117809       14.97647127585196
C           12.71330337018076        7.41619010238680       13.70860183861490
H           13.45574328536031        7.37931762990060       14.50575163957622
H           12.77561821208666        8.39331843937486       13.22976214378277
H           12.95249656668411        6.65312480060583       12.97463987080917
N           10.77882586311570        7.98787169364811       15.19285930183332
H           11.20569651305911        8.80000467194736       15.60740079785297
C           11.34983688380521        7.17840221985341       14.24609372967948
C            9.54683086348922        7.49932377492502       15.46090660794584
H            8.86837549508799        7.93281853396454       16.16673502650686
N            9.30378761330297        6.43032614841586       14.74188503920180
C           10.41587075648066        6.21822944180122       13.98143158409733
H           10.47004109982384        5.39512888011675       13.29977720995862
