78
 energy: -115.882633805042 gnorm: 0.347686820819 xtb: 6.7.1 (edcfbbe)
Fe          35.16200000000000        4.20600000000000       10.15300000000000
N           37.02600000000000        3.97700000000000        9.65600000000000
N           34.81000000000000        5.55800000000000        8.72500000000000
N           33.26300000000000        4.48100000000000       10.81300000000000
N           35.53900000000000        2.93400000000000       11.68500000000000
C           37.97800000000000        3.13200000000000       10.16300000000000
C           39.23500000000000        3.16800000000000        9.33700000000000
C           38.97000000000000        4.03500000000000        8.31000000000000
C           37.60300000000000        4.54100000000000        8.53100000000000
C           35.75500000000000        5.91900000000000        7.73800000000000
C           35.22200000000000        6.86900000000000        6.71000000000000
C           33.96200000000000        7.03700000000000        7.11100000000000
C           33.72400000000000        6.27100000000000        8.36100000000000
C           32.39600000000000        5.44300000000000       10.32200000000000
C           31.24100000000000        5.62200000000000       11.22200000000000
C           31.39800000000000        4.74800000000000       12.31300000000000
C           32.66600000000000        4.01800000000000       12.01600000000000
C           34.67700000000000        2.72800000000000       12.79200000000000
C           35.29399999999999        1.81000000000000       13.73800000000000
C           36.51600000000000        1.58600000000000       13.28000000000000
C           36.66400000000000        2.25200000000000       12.04700000000000
C           37.86400000000000        2.30600000000000       11.28500000000000
H           38.71200000000000        1.69000000000000       11.58200000000000
C           37.08600000000000        5.41700000000000        7.69900000000000
H           37.73499999999999        5.79300000000000        6.90800000000000
C           32.57600000000000        6.17900000000000        9.02300000000000
H           31.70300000000000        6.67200000000000        8.59500000000000
C           33.37400000000000        3.22900000000000       12.96400000000000
H           32.86600000000000        2.99400000000000       13.89900000000000
C           39.94200000000000        4.40800000000000        7.16100000000000
H           40.89999999999999        3.86100000000000        7.29400000000000
H           40.14500000000000        5.50000000000000        7.18100000000000
H           39.49600000000000        4.12200000000000        6.18400000000000
C           40.52499999999999        2.23700000000000        9.66800000000000
H           40.23300000000000        1.16600000000000        9.61700000000000
H           40.89700000000000        2.46100000000000       10.69100000000000
H           41.32600000000000        2.42700000000000        8.92300000000000
C           35.77500000000000        7.48300000000000        5.39300000000000
H           36.80300000000000        7.10400000000000        5.21000000000000
H           35.80899999999999        8.59000000000000        5.48000000000000
H           35.12600000000000        7.18900000000000        4.54100000000000
C           33.02400000000000        7.90900000000000        6.44000000000000
H           32.07200000000000        7.44500000000000        6.15600000000000
C           33.11500000000000        9.31500000000000        6.06600000000000
H           34.02099999999999        9.89600000000000        6.29500000000000
H           32.27900000000000        9.81100000000000        5.55100000000000
C           30.11600000000000        6.62000000000000       10.81500000000000
H           29.67000000000000        6.30200000000000        9.84900000000000
H           30.54300000000000        7.63900000000000       10.69700000000000
H           29.32300000000000        6.62900000000000       11.59300000000000
C           30.63000000000000        4.50800000000000       13.56000000000000
H           30.89800000000000        3.68900000000000       14.24300000000000
C           29.51600000000000        5.35600000000000       13.88800000000000
H           28.84000000000000        5.09500000000000       14.71600000000000
H           29.32700000000000        6.27600000000000       13.31500000000000
C           34.55300000000000        1.27300000000000       14.97700000000000
H           33.56100000000000        0.87500000000000       14.67300000000000
H           34.40200000000000        2.09500000000000       15.70900000000000
H           35.14300000000000        0.45400000000000       15.44100000000000
C           37.60600000000000        0.97000000000000       14.07100000000000
H           37.69800000000000       -0.10400000000000       13.80200000000000
H           37.37599999999999        1.05200000000000       15.15500000000000
H           38.56699999999999        1.48100000000000       13.84700000000000
O           35.74499999999999        5.82600000000000       11.41100000000000
H           34.93299999999999        6.25000000000000       11.68900000000000
H           36.56900000000000        6.06900000000000       11.63900000000000
C           32.24500000000000       -0.02400000000000        7.47600000000000
H           32.42400000000000       -0.96000000000000        8.04600000000000
H           32.28200000000000       -0.25200000000000        6.38900000000000
H           31.24500000000000        0.37700000000000        7.74600000000000
N           34.72300000000000        0.70200000000000        7.57600000000000
H           35.07099999999999       -0.05100000000000        7.01800000000000
C           33.30100000000000        0.97900000000000        7.81900000000000
C           35.46500000000000        1.62800000000000        8.22800000000000
H           36.55100000000000        1.66300000000000        8.28200000000000
N           34.58000000000000        2.45200000000000        8.76600000000000
C           33.22100000000000        2.12800000000000        8.58600000000000
H           32.40300000000000        2.70500000000000        8.99200000000000
78
 energy: -115.986396531173 gnorm: 0.154905467605 xtb: 6.7.1 (edcfbbe)
Fe          35.15998165797654        4.19255342363591       10.14471696131377
N           37.04912920671387        3.95781344013344        9.63906080426038
N           34.84742380894137        5.56829911890896        8.68323344485114
N           33.25189864249783        4.50857396719674       10.82748587323003
N           35.52664247268932        2.94270935519834       11.70752572086467
C           37.99474527790910        3.11885932215899       10.15818446767111
C           39.23989932739270        3.14587322373530        9.34795128065692
C           38.99392836360951        4.01763704671926        8.32747173674748
C           37.63079907701688        4.52603649193854        8.53304029965019
C           35.77419526445986        5.92123467424879        7.71815629019932
C           35.22162205758954        6.86249294046392        6.72200700235507
C           33.94372158560684        7.06886954228758        7.12596087501187
C           33.71844499607373        6.25507598723825        8.34862315804088
C           32.38072494419453        5.43793843760154       10.31505412984197
C           31.24255436157675        5.61752972071439       11.20660102257252
C           31.41044305257456        4.76008308893467       12.30259460497634
C           32.68532927163358        4.06092704159715       12.02504702818424
C           34.64952726361044        2.71272699639327       12.76946186323984
C           35.26717807221071        1.82637567716947       13.74009342781102
C           36.52141238989197        1.59629989512292       13.28895646862467
C           36.66626312453104        2.27076672661354       12.03880107099243
C           37.85120115954050        2.31341800129693       11.27808534046875
H           38.69460060237121        1.70087618617028       11.58122426770396
C           37.08349446475881        5.43029791562738        7.68113266980555
H           37.72529622628659        5.80018887278227        6.89411005357473
C           32.55641503312511        6.15962324692441        9.05468077819178
H           31.69660010962947        6.67184845864344        8.63340490550618
C           33.36830695174181        3.23436959523179       12.93461349384267
H           32.87071866924293        2.99868464543058       13.87321397618501
C           39.92749398964845        4.40126659809944        7.18192895595582
H           40.88082416078158        3.87010325616020        7.29425341296978
H           40.13696047399137        5.48049953193777        7.18295831152438
H           39.49890329647229        4.12865099658031        6.20597897600832
C           40.49019015440301        2.26057649325133        9.65877007388644
H           40.22660051323083        1.19390643548208        9.61462498584379
H           40.87873482669567        2.46691120794201       10.66624300130128
H           41.29917171856995        2.43344854969561        8.93648722290022
C           35.78218411678424        7.46158893235808        5.42622646878466
H           36.79578943833246        7.10389418907886        5.21556941124128
H           35.81031658370912        8.55907982404542        5.48632940262178
H           35.13870521178509        7.19259731287438        4.57323437688028
C           33.00132589847931        7.94593309455435        6.44393870599433
H           32.06543395726842        7.46257674576375        6.16136175512388
C           33.11736983367155        9.26464946675121        6.08046801510741
H           34.00063817748519        9.86391064025000        6.30019637180927
H           32.30247771901445        9.77712583105555        5.56835431580503
C           30.13344805458837        6.60130261721747       10.82306335200493
H           29.68224081573617        6.30313786263682        9.86628065032428
H           30.53901650677926        7.61630430433160       10.70253824510323
H           29.33645084047704        6.62855132785228       11.57225337975318
C           30.61304306955035        4.54369653086581       13.52564608344094
H           30.88138347209687        3.71875277427727       14.19857041418018
C           29.54806180660669        5.33308743809378       13.87796425486214
H           28.87976604457127        5.09300885825695       14.70514982150572
H           29.33071824825623        6.24440612889730       13.33102940516513
C           34.55870665117582        1.28234496940816       14.96546480610132
H           33.57811570326226        0.88110646402293       14.67700060227188
H           34.40409508238479        2.08271403871365       15.70092705544247
H           35.13567911542237        0.47255719176946       15.43143248921197
C           37.61336160171804        0.95823928855134       14.06880255095900
H           37.70895506300299       -0.10327233151990       13.80889495078196
H           37.38875420382117        1.04448953434647       15.13948527906297
H           38.56150969905864        1.46655229437514       13.85693761797832
O           35.72607573434208        5.82050376811931       11.40679466725697
H           34.93430649722259        6.26636577301117       11.70268812561165
H           36.59061420970931        6.08679446589278       11.65482228754109
C           32.25585798248121       -0.02143028746762        7.46965881218201
H           32.41879676374235       -0.95024754406921        8.03398294684543
H           32.27598357964632       -0.25434103290376        6.39782830999659
H           31.26782975836796        0.37353618318768        7.73776040172262
N           34.69207284067978        0.69839060081956        7.58676032556674
H           35.05104004587228       -0.05589257996926        7.02346536460899
C           33.31753661281994        0.96579322422647        7.82407398598453
C           35.42038459694123        1.64545265716029        8.22998673792678
H           36.50463261471155        1.67007027118179        8.27645630115970
N           34.58972283414585        2.49073559915342        8.79768959710869
C           33.27231872458540        2.11016745757431        8.57671211019600
H           32.44590372050357        2.68342000598806        8.97546228801014
78
 energy: -116.023088012096 gnorm: 0.053950357691 xtb: 6.7.1 (edcfbbe)
Fe          35.16163200420012        4.17608642782348       10.13397714928639
N           37.07427342603374        3.94319752952612        9.61012029624494
N           34.87019486554696        5.56970846816395        8.63915058929380
N           33.24774903522281        4.53680867958748       10.83795524315691
N           35.50645198137316        2.94214012647360       11.71900006280754
C           38.00907937815445        3.10430139037657       10.14411400069067
C           39.24234303313827        3.12802294216781        9.35340959062492
C           39.01237617920062        4.00784160846624        8.33610287157752
C           37.65545210399406        4.51522493079717        8.52196677776741
C           35.78478985980801        5.91815208660641        7.69788300274567
C           35.21644475233185        6.85632869422260        6.73700951284816
C           33.92934202682358        7.08048125147103        7.14374922073749
C           33.71601233191770        6.24013551011605        8.34171747493480
C           32.37478794913049        5.43855914944902       10.30316779072766
C           31.24200333835306        5.61540124105712       11.18461215008634
C           31.43180057081518        4.78319786804803       12.28573168808662
C           32.70655473082481        4.10703727553112       12.02473895888689
C           34.63278229488246        2.70541652658589       12.74791836657207
C           35.24697751933362        1.83705784149539       13.73306655702218
C           36.52083181972031        1.61010299070276       13.29753617542425
C           36.66187493065635        2.29290914419062       12.03429939012766
C           37.83223078026020        2.32454651603412       11.27411671669168
H           38.66969186577035        1.71385689294867       11.58808940420605
C           37.08242012476113        5.43627054264367        7.66208587204805
H           37.72120344863191        5.80425770322716        6.87693338765098
C           32.55271851994359        6.14272539248264        9.08797716684995
H           31.70272442229762        6.67906414811799        8.68196311034827
C           33.36474384394943        3.24783518933261       12.90411256677675
H           32.86700537934549        3.00113400415593       13.83700464752867
C           39.92050554549434        4.39275944408156        7.20436714816295
H           40.87263629633271        3.87328372180270        7.29806808751809
H           40.12274749212253        5.46552266062681        7.19651862368168
H           39.49016645076463        4.12977162588401        6.23500510766715
C           40.45039769678159        2.28425696826806        9.65091380632174
H           40.20692592525764        1.21901423134124        9.61083244844140
H           40.84956363882286        2.48363996073829       10.64848861737400
H           41.25991224430515        2.45457856675854        8.93961876631735
C           35.78784698451433        7.44084095676629        5.46518992109495
H           36.79145832485236        7.09050156352116        5.24164389946398
H           35.81582048585363        8.53154721767291        5.50897705398944
H           35.14738426845353        7.18512569106668        4.61335063278525
C           32.97786981705060        7.95890405862374        6.45512099749381
H           32.04984848494414        7.46288912321717        6.18173874906877
C           33.11417370067654        9.21840619523268        6.10937632290034
H           33.98637475816111        9.82567930908247        6.31414061958862
H           32.32670131640582        9.74449052153572        5.58026021598914
C           30.14560320026362        6.58086519233465       10.82630131746312
H           29.69511822169189        6.29674443695655        9.87302486235162
H           30.54473944970769        7.59145371876120       10.71085609725856
H           29.35033363574179        6.61671005711700       11.56152578956844
C           30.61211660905454        4.57760649232077       13.48581561205968
H           30.87523678967468        3.73348055725437       14.13077696622963
C           29.57931016489853        5.31913759204438       13.85987427841379
H           28.93616684992606        5.08943617738732       14.70039150282052
H           29.31921109728685        6.22365927025272       13.33658808764883
C           34.56345096516910        1.29441890102394       14.94985768636065
H           33.58879066609433        0.88774574703613       14.67797915534473
H           34.40655344110287        2.07766439551087       15.69328637397664
H           35.13893732258521        0.49374981271674       15.41328612738431
C           37.61577694850693        0.95084391210307       14.06591334398819
H           37.71478379883221       -0.10244669720193       13.80867941055065
H           37.40161981842720        1.03153044015375       15.13000735921139
H           38.55975579937806        1.45162031017209       13.86370083376439
O           35.71752421699072        5.81744135070416       11.40428430212817
H           34.95222094852132        6.29518356497199       11.72675795829893
H           36.58942979736180        6.10526809008552       11.66945721467786
C           32.26638741285879       -0.01483194355571        7.46467726225554
H           32.41617532990713       -0.94216384064839        8.02154252499767
H           32.27770813432753       -0.24888000154251        6.40189089473112
H           31.28830286727427        0.37977213894158        7.72950776093584
N           34.66577875800460        0.69677260695229        7.60578884873452
H           35.03380567823820       -0.05492067819707        7.04067630320176
C           33.33570273577040        0.95472308650390        7.83528133824636
C           35.38424815567880        1.65950149917376        8.23232753623194
H           36.46237558986930        1.68018069178890        8.26356726053906
N           34.59426026758246        2.51976416045539        8.82182333379042
C           33.31357588547370        2.09778214849419        8.57922792135893
H           32.48017349658433        2.66217292190699        8.96520397586774
78
 energy: -116.033925339277 gnorm: 0.026404062995 xtb: 6.7.1 (edcfbbe)
Fe          35.16743908286251        4.17489478519273       10.12993415303935
N           37.07671646124661        3.93267398864345        9.58098075612953
N           34.87193585371063        5.55066026733631        8.61835865165247
N           33.26534105678836        4.56103031912670       10.83671833281561
N           35.49543409028917        2.95161582630359       11.71621705216169
C           38.00205305576291        3.09491865276743       10.12743893687693
C           39.22992355361730        3.12035519718880        9.34993270951188
C           39.01579034529205        4.00340212837876        8.33447272142804
C           37.66275923901696        4.50636300367239        8.50020178978729
C           35.78507935350974        5.90418818087844        7.68262118173977
C           35.20647592127442        6.84943645485916        6.74788966738211
C           33.91785664428394        7.06161313949295        7.15708301991768
C           33.71748137177816        6.22099650028729        8.33827298102984
C           32.38387135234235        5.44370816287180       10.29250442962618
C           31.24646554921042        5.61993643877980       11.16199829341697
C           31.44881307012077        4.80335660953886       12.25811138858682
C           32.72632585609168        4.14105435690162       12.01399884022685
C           34.61965287178825        2.70149478344562       12.72837650528157
C           35.23776301816216        1.84730710396239       13.72288191874296
C           36.51626390381486        1.62680034996494       13.29874618275474
C           36.65354199048407        2.31224882172461       12.03243946223776
C           37.81481822849219        2.33545571878141       11.27034958746944
H           38.64856302488667        1.73061776313545       11.59967294290002
C           37.08546732260697        5.42977592932855        7.63878771569096
H           37.72094215964862        5.80322144487528        6.85098051974978
C           32.55843811211026        6.13859863791549        9.09627394472969
H           31.71569184525627        6.71414870104566        8.72656080519168
C           33.35689842197195        3.25434773799745       12.87973683764422
H           32.84576910967167        2.99747982436687       13.79867191467795
C           39.92411327247819        4.38855387897752        7.21743502634180
H           40.87767444959466        3.87334005981415        7.30379347583426
H           40.11383439778820        5.46174449552739        7.21588767642328
H           39.48189424368456        4.12760031741579        6.25503918134369
C           40.43038911687633        2.29354030709041        9.64856313069822
H           40.18516483153832        1.23061824576148        9.60826369195555
H           40.81878992508355        2.50604915777207       10.64527356192584
H           41.22887879676088        2.48026076321328        8.93272178935728
C           35.79757388509272        7.42566714072118        5.49735620178041
H           36.79768632038434        7.05965873169394        5.28930174614145
H           35.83546792450488        8.51265450596930        5.54812742267879
H           35.15753239210817        7.17193415647963        4.64862131854746
C           32.94567917499822        7.92557349430752        6.48322422051514
H           32.01010555333393        7.43639866312920        6.22765511488528
C           33.11503773416317        9.19302949342287        6.11979049944549
H           33.98897706986770        9.78298955341275        6.34646412435524
H           32.33999283126823        9.73068379771164        5.59013767109590
C           30.14820977298861        6.56837842877225       10.81214682206987
H           29.70551017687827        6.28860002959417        9.85598319896092
H           30.54855415224978        7.57839301598828       10.71265846073149
H           29.35422076251260        6.59135992084156       11.54626499156406
C           30.62626472607353        4.58366201826996       13.43745665978516
H           30.89329918723150        3.72034689069624       14.04591239740015
C           29.59691385546838        5.32063331610740       13.85583114410324
H           29.00310349646826        5.07424450048096       14.72498763905555
H           29.29272794476720        6.22317650931354       13.35081122873150
C           34.56240700122334        1.30841643422709       14.93915873215464
H           33.58959743051379        0.89359269986738       14.67615121288173
H           34.40605850505612        2.08795972910636       15.68575550286541
H           35.15219842534940        0.51547580267370       15.39398974371019
C           37.61160004691637        0.94679350300952       14.05590800217925
H           37.70863414013004       -0.10496731878293       13.78988715463988
H           37.41047020003283        1.01116362868158       15.12311319940728
H           38.56230519113232        1.43735000661163       13.86182371069862
O           35.72029807766537        5.83324886740350       11.41337289385450
H           34.97587025355543        6.33287290731935       11.75870756935423
H           36.59014130533603        6.12758200148327       11.68676264283147
C           32.27066207290833       -0.00523051228214        7.46277008488337
H           32.40765110560096       -0.94053706572386        8.00832212462687
H           32.28970079870361       -0.22868240414271        6.39816929455468
H           31.29686224684506        0.39771709509294        7.72045675878478
N           34.66371589540898        0.69559173523476        7.63043007536926
H           35.03203877746610       -0.05729625178079        7.06969839809957
C           33.33972337914972        0.95224286590172        7.85793358055252
C           35.37845296572411        1.67256763437558        8.23618050121876
H           36.45043582866978        1.70381995013586        8.24444204080966
N           34.59395842333318        2.53036800438332        8.83761542230264
C           33.32127740872389        2.09656629001163        8.60295651536844
H           32.48677266029864        2.65359217594468        8.97947320072535
78
 energy: -116.039801294737 gnorm: 0.019304671480 xtb: 6.7.1 (edcfbbe)
Fe          35.16524896404808        4.17983184356534       10.12941527949122
N           37.06499364930398        3.92753020661004        9.55584488426240
N           34.86948027724826        5.52516126995867        8.60647805667075
N           33.28016148936504        4.57445979238196       10.82808927811102
N           35.48434919926677        2.96539343329387       11.70778585417030
C           37.98487930488755        3.09244464515005       10.11087073325189
C           39.21026864127600        3.11586419162260        9.34379003543512
C           39.01012346080061        3.99945468089830        8.32814029658312
C           37.65945410879188        4.49788231050634        8.47747708176298
C           35.78183439427513        5.88888838725064        7.67120955862519
C           35.20178221765919        6.84281727995926        6.75497587257479
C           33.91277205097521        7.04244700492518        7.16668515579893
C           33.72316656044899        6.19992967360444        8.33116162699670
C           32.39548787801718        5.44933955406426       10.27975746946584
C           31.24845435111709        5.61652896669940       11.13662653275479
C           31.45673826281293        4.81187130033340       12.23102783985650
C           32.73816765432273        4.15723395059832       11.99822325467508
C           34.61018421180773        2.70763952608313       12.71357791521477
C           35.22848978718693        1.85578504779631       13.70880233467747
C           36.50922047517441        1.64472578114049       13.29520278493323
C           36.64317681342453        2.33216424154628       12.02775588164184
C           37.79743436046430        2.34981816152182       11.26473569150003
H           38.63032293048582        1.75279286455872       11.60815350791637
C           37.08383812057848        5.41906238648577        7.61518295203108
H           37.71586014144592        5.79866551474414        6.82527413662244
C           32.56893120816508        6.14729545783470        9.09516355463007
H           31.73721884272264        6.75557150905013        8.75438365945428
C           33.34749665314119        3.25891077876539       12.86016599107637
H           32.81905009480450        2.98830518028751       13.76291525074236
C           39.92777681528762        4.38797916021689        7.22311953865528
H           40.88300912033141        3.87654054791792        7.30815372804392
H           40.11109176635901        5.46202238049681        7.23080505345717
H           39.48491013113539        4.12962276630263        6.26064020274696
C           40.41767955131171        2.29741040038807        9.64922884320817
H           40.17781580052783        1.23384926582581        9.61254550656741
H           40.79771853991894        2.52100341115322       10.64597174191654
H           41.21070387034034        2.49372251231465        8.93145499233114
C           35.81379779261358        7.41536232696555        5.52189169336409
H           36.80973292926293        7.02375666277226        5.33804534346115
H           35.87482710667116        8.49975048405292        5.58275885759558
H           35.18096331263687        7.17324139465566        4.66605593956890
C           32.92004318071620        7.89068624119278        6.51465821258584
H           31.97125735099720        7.41457544665386        6.28811116022407
C           33.09807021761797        9.15579967708746        6.15731801137863
H           33.99898104758806        9.70835610627151        6.36378188997476
H           32.33654418661603        9.69798922260176        5.61818211628086
C           30.14604914288998        6.55465473572464       10.78921930733227
H           29.71335080354417        6.28547394770407        9.82554227386026
H           30.53789356318968        7.57065860787065       10.71208267467849
H           29.35088647342337        6.55158801176473       11.52290631132364
C           30.64152002266033        4.58676439707398       13.40119982786277
H           30.90879725911689        3.70852548387625       13.97908137908802
C           29.62136096761353        5.31825194969816       13.85234438347586
H           29.06741748637566        5.03922019513188       14.73577330591186
H           29.29747136585814        6.23329595353130       13.38577496471163
C           34.55877184862370        1.32170223350222       14.92864801286857
H           33.58615284876320        0.90069029328883       14.67494906814181
H           34.40456764868141        2.10370022071923       15.67343436755531
H           35.16157013327123        0.53598001154630       15.37902389654118
C           37.60302870412692        0.94483546624741       14.03859861111985
H           37.68919972851258       -0.10470709533749       13.75270653608622
H           37.41221805718871        0.98791091584173       15.11023190112787
H           38.56132488611823        1.42575341913730       13.85046726914262
O           35.73236746651179        5.86255557191724       11.41973249087323
H           35.01190374827422        6.37664279586530       11.79870113413772
H           36.59737242816627        6.15624475854031       11.70830121397759
C           32.27291887240779        0.00824266886700        7.46549934949329