72
 energy: -105.886742348926 gnorm: 0.273513059552 xtb: 6.7.1 (edcfbbe)
Fe           0.64100000000000       22.17000000000000      -18.55600000000000
N           -1.13500000000000       21.53300000000000      -19.30300000000000
N           -0.28500000000000       22.86300000000000      -16.88100000000000
N            2.40500000000000       22.95500000000000      -17.90100000000000
N            1.52900000000000       21.61400000000000      -20.31600000000000
C           -1.34500000000000       20.84500000000000      -20.47700000000000
C           -2.73400000000000       20.48900000000000      -20.56200000000000
C           -3.31700000000000       20.95000000000000      -19.46200000000000
C           -2.34000000000000       21.62300000000000      -18.64600000000000
C           -1.63200000000000       22.76100000000000      -16.60200000000000
C           -1.86100000000000       23.32200000000000      -15.29700000000000
C           -0.68700000000000       23.72900000000000      -14.79900000000000
C            0.33600000000000       23.40800000000000      -15.78900000000000
C            2.63300000000000       23.38000000000000      -16.60900000000000
C            4.07300000000000       23.57700000000000      -16.45400000000000
C            4.67000000000000       23.29700000000000      -17.62800000000000
C            3.63200000000000       22.88000000000000      -18.53700000000000
C            2.86100000000000       21.86100000000000      -20.62500000000000
C            3.13200000000000       21.34900000000000      -21.94700000000000
C            1.83300000000000       20.71600000000000      -22.44300000000000
C            0.89400000000000       20.94600000000000      -21.37300000000000
C           -0.40400000000000       20.55100000000000      -21.43000000000000
H           -0.71900000000000       19.96100000000000      -22.29100000000000
C           -2.58900000000000       22.22600000000000      -17.43400000000000
H           -3.62700000000000       22.28500000000000      -17.10700000000000
C            1.69100000000000       23.63100000000000      -15.64400000000000
H            2.03700000000000       24.03600000000000      -14.69300000000000
C            3.79400000000000       22.49800000000000      -19.84500000000000
H            4.75500000000000       22.72200000000000      -20.30900000000000
C           -4.79500000000000       20.82600000000000      -19.11900000000000
H           -5.24700000000000       20.00500000000000      -19.71600000000000
H           -5.31700000000000       21.77600000000000      -19.36000000000000
H           -4.91100000000000       20.59200000000000      -18.03900000000000
C           -3.40300000000000       19.69800000000000      -21.72600000000000
H           -3.36200000000000       18.61000000000000      -21.50700000000000
H           -2.85900000000000       19.89500000000000      -22.67500000000000
H           -4.46600000000000       20.00500000000000      -21.82600000000000
C           -3.25300000000000       23.42200000000000      -14.63600000000000
H           -3.37800000000000       22.59300000000000      -13.90700000000000
H           -4.04400000000000       23.34200000000000      -15.41200000000000
H           -3.34500000000000       24.39000000000000      -14.09900000000000
C           -0.38300000000000       24.40600000000000      -13.43800000000000
H            0.53600000000000       25.00100000000000      -13.33500000000000
C           -1.17500000000000       24.31800000000000      -12.35400000000000
H           -2.10900000000000       23.73800000000000      -12.39100000000000
H           -0.89800000000000       24.82500000000000      -11.41800000000000
C            4.68300000000000       24.04300000000000      -15.11700000000000
H            4.76600000000000       23.17700000000000      -14.42600000000000
H            4.02900000000000       24.81200000000000      -14.65400000000000
H            5.69700000000000       24.46200000000000      -15.29300000000000
C            6.17500000000000       23.36300000000000      -18.03600000000000
H            6.44000000000000       23.34900000000000      -19.10300000000000
C            7.17200000000000       23.43600000000000      -17.17000000000000
H            6.97200000000000       23.45400000000000      -16.08800000000000
H            8.21400000000000       23.48000000000000      -17.52000000000000
C            4.49700000000000       21.39500000000000      -22.66600000000000
H            5.25000000000000       20.84000000000000      -22.06700000000000
H            4.82900000000000       22.45000000000000      -22.77400000000000
H            4.41000000000000       20.92000000000000      -23.66600000000000
C            1.51300000000000       20.02500000000000      -23.79500000000000
H            2.41800000000000       20.03500000000000      -24.44000000000000
H            0.69600000000000       20.57200000000000      -24.31200000000000
H            1.21000000000000       18.97100000000000      -23.61600000000000
O            0.17200000000000       24.14700000000000      -19.51800000000000
H           -0.16100000000000       24.70900000000000      -18.81800000000000
H            0.27100000000000       24.37400000000000      -20.37200000000000
C           -0.05600000000000       18.91600000000000      -17.73600000000000
H           -0.12700000000000       18.21000000000000      -16.88100000000000
H            0.24500000000000       18.33700000000000      -18.63500000000000
H           -1.06400000000000       19.35200000000000      -17.90600000000000
S            1.15900000000000       20.24400000000000      -17.40300000000000
H            0.42400000000000       20.84300000000000      -16.47700000000000
72
 energy: -105.946462668503 gnorm: 0.113469905587 xtb: 6.7.1 (edcfbbe)
Fe           0.64120126815098       22.19643268216053      -18.57957719298865
N           -1.12769032216338       21.52019006554401      -19.29656731711679
N           -0.27976898836403       22.85763438266367      -16.87632686940061
N            2.41300645197155       22.92519035625561      -17.89283512678064
N            1.52901592992681       21.61044279041760      -20.31244939535728
C           -1.34304634677000       20.84199035045959      -20.46827846094583
C           -2.73866859031497       20.47950927852900      -20.57417359838112
C           -3.33938897261756       20.95307962152824      -19.46168392117880
C           -2.33556416789771       21.61746638280585      -18.65850787955668
C           -1.62223658727543       22.77592618177838      -16.59760493226764
C           -1.87285082129137       23.33175147356516      -15.28649418984022
C           -0.67717182786543       23.73847182664139      -14.77536363550903
C            0.32782180153966       23.42045111084099      -15.78830197868898
C            2.65031102846608       23.37335486604675      -16.62099343725646
C            4.08303706539886       23.58733587501577      -16.44765950044320
C            4.68658478634014       23.30455898755261      -17.63796300910094
C            3.62390731461847       22.88554708348982      -18.53964391735361
C            2.83496872676299       21.85064564208094      -20.65495868021794
C            3.10288181790902       21.32618599452640      -21.97417243167101
C            1.88385249689581       20.73527822764708      -22.43257841130218
C            0.93712655337586       20.94909612929944      -21.36750450016001
C           -0.38665352978444       20.55346108450964      -21.42159758594307
H           -0.70681843878525       19.97657296916838      -22.28343146497394
C           -2.57799105326393       22.22896439841706      -17.43938502257636
H           -3.61111894642286       22.27449113864126      -17.11109329184613
C            1.69202404456227       23.63112750269720      -15.65407225076472
H            2.03353848167619       24.03081430434985      -14.70624583104300
C            3.78019851985734       22.49056033246615      -19.85697764039269
H            4.74813077582758       22.68937617680720      -20.30713248071019
C           -4.79540605973437       20.82739877144012      -19.11524792362504
H           -5.24583592340967       20.01988520240782      -19.70094512820221
H           -5.31623948908816       21.76304231929862      -19.34912287896907
H           -4.91867927751643       20.59949005635306      -18.05193145778311
C           -3.38935883560234       19.70696801872705      -21.71181352444318
H           -3.35804784597915       18.62970243794238      -21.50682994185316
H           -2.86876902050627       19.89424887436577      -22.65577204009383
H           -4.43777976076647       20.00351038859085      -21.82398468024419
C           -3.24149647245110       23.42401271469138      -14.64542353902710
H           -3.37773156937186       22.60753168280324      -13.92480089249956
H           -4.03131745236683       23.35025865340450      -15.39893217303590
H           -3.34388798275193       24.37662299597758      -14.11488913033711
C           -0.39409623820245       24.39187274576957      -13.45645134275576
H            0.52053443311848       24.97897768914650      -13.37009652308938
C           -1.17237796768635       24.31660096989611      -12.37648597549244
H           -2.09088897086605       23.74475024703064      -12.38069246801602
H           -0.90256366714152       24.81660108069052      -11.44936091441131
C            4.67474955940341       24.04144250715644      -15.13062553430296
H            4.76263937706993       23.19200597916240      -14.44066614677470
H            4.03837945008570       24.79974901683858      -14.66391046995050
H            5.66678581859808       24.47218750623538      -15.28289586618622
C            6.14307178325529       23.36290455405997      -18.02092995840430
H            6.39045601131143       23.34511581874401      -19.08285726082170
C            7.15922009317893       23.43135772100415      -17.16891025723792
H            6.99871040687565       23.43359663370419      -16.10024084253099
H            8.18852947952954       23.47870258131559      -17.51503526613940
C            4.45882080104989       21.38414497600623      -22.65744023846001
H            5.22013133782869       20.84672204259752      -22.07401368833333
H            4.80685752125982       22.42091421225003      -22.77076595454255
H            4.40746428006262       20.92586419973512      -23.64948781878546
C            1.54254597860774       20.04831860857147      -23.75434733168274
H            2.41053512871374       20.03660137357718      -24.42192901985238
H            0.72539494139488       20.56467140056075      -24.28017243156943
H            1.22580798210471       19.00552624182832      -23.60190505303943
O            0.17276403147749       24.13802715197180      -19.49627584141684
H           -0.16425986344351       24.72695596460887      -18.82454703161229
H            0.27183618281499       24.39212114598753      -20.39524735156796
C           -0.07053420849380       18.90673246551623      -17.73365260645009
H           -0.12035428276137       18.22338160447828      -16.87937204327120
H            0.24630707724849       18.35014345308547      -18.62008082689943
H           -1.05399138663237       19.35001121047186      -17.91057738129536
S            1.14900260537673       20.22883782046899      -17.41233997333684
H            0.43043352394276       20.82258174562235      -16.46241931789001
72
 energy: -105.964144135435 gnorm: 0.042127593983 xtb: 6.7.1 (edcfbbe)
Fe           0.64666589381601       22.19863445369955      -18.59237003748542
N           -1.11942474805265       21.51808810374622      -19.29324427132643
N           -0.27721314822866       22.86906383163581      -16.88200621788156
N            2.41491937960855       22.91215930596780      -17.89422189190558
N            1.52743697520096       21.61854534699875      -20.31181708752774
C           -1.33584022557243       20.84179097129368      -20.45736857970157
C           -2.73438451803896       20.47602419901649      -20.57768760698520
C           -3.34821362948667       20.95797706909512      -19.46035763357698
C           -2.32651745159016       21.61567037028281      -18.66808298037651
C           -1.61191544971320       22.79153964550473      -16.60119006157377
C           -1.87982015576768       23.33853578207490      -15.28889468808556
C           -0.67018435552340       23.74422682154444      -14.76937809777299
C            0.32207740342434       23.43188904234099      -15.79430371567781
C            2.65853236533723       23.36565491415928      -16.63480129289128
C            4.08072152954230       23.59306449556884      -16.44660089619555
C            4.69051099704740       23.30660143907152      -17.64621610809641
C            3.61178928869835       22.88306489380922      -18.54224113725701
C            2.81716436287651       21.84494097193693      -20.66784556417988
C            3.07656318188748       21.30843588861410      -21.99168506018162
C            1.92516809610136       20.75300114068182      -22.41784069565280
C            0.96279184438790       20.95756883201333      -21.35681972175772
C           -0.37019446176187       20.55882356172300      -21.40911088811158
H           -0.69100614101389       19.99582516751737      -22.27472253599514
C           -2.56396256219894       22.22945097341004      -17.44528883296090
H           -3.59280928253774       22.25893567873979      -17.11409857352344
C            1.69131929432921       23.62662250809358      -15.66741042233770
H            2.03168412435422       24.02542942084179      -14.72334056303587
C            3.77039112336187       22.47320192171026      -19.86023060386133
H            4.74552622018013       22.64016805746139      -20.29966125961586
C           -4.79125174555204       20.83272705821748      -19.11108785576106
H           -5.24570701722768       20.03275551908664      -19.68838259813364
H           -5.31848218506449       21.75930414821298      -19.33604919990540
H           -4.92159799934552       20.60904180832514      -18.05620750893725
C           -3.37057475046719       19.71799593908052      -21.69581087531300
H           -3.34537868637649       18.64496683699063      -21.50027124689371
H           -2.86360765259247       19.89894075999141      -22.63889924579912
H           -4.41227785913563       20.00879458084068      -21.81426797457432
C           -3.22843685457775       23.42852733913898      -14.65934000701841
H           -3.37372256073912       22.61858479658658      -13.94294083023063
H           -4.01795650633726       23.35975139880074      -15.40155787022615
H           -3.33699949350852       24.37225216744917      -14.12883681668390
C           -0.40117499318935       24.37375693609989      -13.49076563509179
H            0.51406823276403       24.95195619107622      -13.42133879679955
C           -1.16777701367319       24.31096523564637      -12.40444356525455
H           -2.07831761127948       23.74359082400444      -12.37242360822706
H           -0.90112641970604       24.81627896889854      -11.48908539146894
C            4.66386060844928       24.04482227976834      -15.14944912540633
H            4.75800073725974       23.20294054891967      -14.46147902768244
H            4.03039981767812       24.79142878535156      -14.67665819914078
H            5.64423759857652       24.48587993794235      -15.28752181997178
C            6.09678377302605       23.36291569382950      -18.00534401771986
H            6.32454127670268       23.34470257324396      -19.06571918688289
C            7.13497348644224       23.42177036444857      -17.17064801721314
H            7.01801056926436       23.40782469557472      -16.10463432010319
H            8.15247310095179       23.47314933861820      -17.52486367143764
C            4.41948140205397       21.37211380253475      -22.65410962368669
H            5.17433089636493       20.84312735462690      -22.06763867684762
H            4.76679602837359       22.40194348023177      -22.76248153367835
H            4.38984931912923       20.92186007582999      -23.64247210328877
C            1.57931426494811       20.06994023681503      -23.71334100428959
H            2.42792945001003       20.04657621029509      -24.39249024157549
H            0.75983388890723       20.57950954726617      -24.22860887410182
H            1.25323311829853       19.03794760064291      -23.55638050541815
O            0.18287600565848       24.12595252830577      -19.47815601483167
H           -0.16792399072559       24.75645595068554      -18.84756941482249
H            0.27066723667380       24.40317008093408      -20.39042094150625
C           -0.08358594918719       18.89682181786941      -17.73236255162102
H           -0.12026031070107       18.23300592841917      -16.87503288110413
H            0.24585167507192       18.35314993007491      -18.60949511697083
H           -1.05023235971481       19.34778157822360      -17.91618739869229
S            1.15134364829762       20.20450810637561      -17.41415750543993
H            0.45175987353169       20.79157623617254      -16.43923217471771
72
 energy: -105.968920243976 gnorm: 0.020240574247 xtb: 6.7.1 (edcfbbe)
Fe           0.64510292135458       22.20813189749828      -18.60177692102743
N           -1.11534501847905       21.51662238428670      -19.28831353431570
N           -0.27855468185984       22.87296473453517      -16.89423441867282
N            2.40913073535231       22.90258629595596      -17.89603338571471
N            1.52994541126990       21.62212105970459      -20.30433885124834
C           -1.33147614712254       20.84063565874787      -20.44858517542869
C           -2.72845276169943       20.47829431111398      -20.57111458290967
C           -3.34628229128283       20.96166121897189      -19.45697171768510
C           -2.32302323855631       21.61633457398847      -18.66863250852999
C           -1.61073387778842       22.79745818624973      -16.61363442257519
C           -1.88246289789056       23.34050587500682      -15.30575997300129
C           -0.67200282402144       23.74176271577777      -14.78657902758878
C            0.31818268525264       23.43488457596987      -15.80795542224968
C            2.64975853814300       23.36150982417849      -16.63948218931864
C            4.06403223107093       23.59490484508149      -16.44532033522538
C            4.67633662963698       23.30310222548626      -17.64106556734517
C            3.60374679959205       22.87560767004249      -18.53812929009240
C            2.82108165019835       21.84533080024696      -20.65413407884433
C            3.08582163084710       21.31012810371498      -21.97797705425991
C            1.92292488997264       20.74948196935125      -22.40399851391924
C            0.96049491194016       20.95912850040239      -21.34285221059422
C           -0.36655200023496       20.56047370611840      -21.39912761092343
H           -0.68345957179610       20.00730087103710      -22.27096878718493
C           -2.56140452402958       22.22996654089025      -17.45069241092467
H           -3.58732490537177       22.24445296460481      -17.11300609881345
C            1.68399486410618       23.62640616898559      -15.67688202329349
H            2.02561194002633       24.02378049299691      -14.73346142805276
C            3.77472899524335       22.45788196517840      -19.84919303315562
H            4.76155704678820       22.58382665011957      -20.27881102055926
C           -4.78929610899940       20.84205797981057      -19.10362909887643
H           -5.25025195173133       20.04303637824770      -19.67833966315752
H           -5.31889347793948       21.76957830277686      -19.32341243057748
H           -4.91964516204646       20.61965755538194      -18.04742698552324
C           -3.35564690089744       19.72164146390076      -21.69082350059881
H           -3.32761127870565       18.64848512183787      -21.49438942558699
H           -2.84505407730493       19.90580479266350      -22.63186757531671
H           -4.39690197751455       20.01399678146367      -21.80936417007607
C           -3.22793361020923       23.43832037782075      -14.67757907778641
H           -3.37774896686280       22.62721269183136      -13.96289425594142
H           -4.01742671370407       23.37737270147072      -15.42135745613188
H           -3.32881025036095       24.38179066188951      -14.14394158612033
C           -0.39791004794307       24.36974290642592      -13.51715280019292
H            0.52211727711661       24.94096999703931      -13.46338934539268
C           -1.15865917550294       24.31618120059352      -12.42548797743368
H           -2.06315840677723       23.73765519444141      -12.37161817101828
H           -0.88447230091623       24.83202193453980      -11.52012666015671
C            4.64393887471026       24.06118163655126      -15.15559990709943
H            4.75790130499100       23.21828000478763      -14.47095798463494
H            3.99573103514790       24.79412392908563      -14.68043160661449
H            5.61386436055564       24.52629803364522      -15.29711720074647
C            6.07162050537839       23.35865863803211      -18.00317924293313
H            6.27591635834341       23.35367175163754      -19.06805607368590
C            7.12407476902093       23.40132879757015      -17.18431297453028
H            7.03901046228922       23.34513770273456      -16.11220296385473
H            8.13197143906405       23.46195501565967      -17.56028324266645
C            4.41445989463821       21.36607605360271      -22.65004112435004
H            5.15833297976352       20.83243856704851      -22.05753844363886
H            4.74955615007609       22.39763188412338      -22.75854821497683
H            4.37369879469146       20.91263273123054      -23.63627773959550
C            1.59670438693084       20.07011980784324      -23.69213535875380
H            2.45328511120199       20.05104325715066      -24.35964392019997
H            0.78132241618252       20.58963756312733      -24.19817197125013
H            1.27578885927175       19.04245321861467      -23.51660570775847
O            0.20050557839423       24.14436240462759      -19.47534173322028
H           -0.17466764798136       24.79311608107025      -18.87371604263091
H            0.26937070599581       24.42080558157356      -20.39047919974169
C           -0.09146465078655       18.88965749044916      -17.72918261665033
H           -0.12820354052252       18.23387471616049      -16.86525046470398
H            0.24024974647678       18.34215465626565      -18.60320730400608
H           -1.05536675001044       19.34572128960906      -17.91884409508241
S            1.15087834664577       20.19384921060540      -17.42058664234501
H            0.48944649916972       20.73701714881671      -16.38745645098936
72
 energy: -105.971852149102 gnorm: 0.018207431456 xtb: 6.7.1 (edcfbbe)
Fe           0.64307419513405       22.20140398993485      -18.59523204244741
N           -1.11231164951539       21.52495337200599      -19.28552954393472
N           -0.28284726024507       22.87391449676149      -16.90916634375269
N            2.39699452469086       22.89333381568392      -17.89882762456621
N            1.52685560344111       21.63307045984383      -20.28763312977187
C           -1.32788024701179       20.84698774328149      -20.44219537243136
C           -2.72182986679533       20.48360954922310      -20.56532899218781
C           -3.34367045144843       20.96662149518960      -19.45483900904525
C           -2.32153900753759       21.62011916367927      -18.66956616048308
C           -1.61256829438778       22.80199065994088      -16.62798352370243
C           -1.88701302513137       23.34160650121042      -15.32514782328614
C           -0.67622767641997       23.73819464025550      -14.80701535193032
C            0.31109444909742       23.43503539764404      -15.82415932959595
C            2.63505955971884       23.36104583238725      -16.64481776144030
C            4.04222800798882       23.59668469011608      -16.44528961417674
C            4.65713021661419       23.29480118627615      -17.63488069086376
C            3.59231712191457       22.86202438694770      -18.53121949381939
C            2.82110852417426       21.84482561195366      -20.63312756467980
C            3.08771705014880       21.31111858136005      -21.95531422703700
C            1.92137183275521       20.75225604591128      -22.38221190850640
C            0.95689314155644       20.96957252590763      -21.32473212023877
C           -0.36281273859883       20.56936974833937      -21.39102965710652
H           -0.67100825965550       20.02082523015392      -22.26768868294154
C           -2.56343823434331       22.22849694558706      -17.45510363111792
H           -3.58605882538088       22.22783799328991      -17.11014057993395
C            1.67239154294754       23.62615981251154      -15.68602146901834
H            2.01577759632740       24.02046247144088      -14.74251500135109
C            3.78141907834983       22.43070098988640      -19.83172726401097
H            4.77642624596935       22.51429858495922      -20.25160049100247
C           -4.78584474177778       20.85338408742381      -19.09429308398593
H           -5.25597328461026       20.05703323603687      -19.66718977092982
H           -5.31393449292008       21.78496394664293      -19.30651705334261
H           -4.91071032636127       20.63019823364756      -18.03598690700609
C           -3.33876197493676       19.72462636500074      -21.68875657547074
H           -3.30261844970086       18.65104638384812      -21.49337828900889
H           -2.82243723704446       19.91548620564613      -22.62622627331864
H           -4.38140380038970       20.01239697935501      -21.80971603308760
C           -3.23126812596175       23.45122766798007      -14.69901512926545
H           -3.39096771327173       22.63747586824163      -13.98857764599341
H           -4.02021985927154       23.40501030124253      -15.44611552351406
H           -3.31837775807033       24.39375376014476      -14.15943381859278
C           -0.39083245931555       24.36819318699889      -13.54316108557950
H            0.52944174993510       24.94025026431724      -13.50898206877533
C           -1.13997338436781       24.31733415389411      -12.44361140184841
H           -2.04560208342835       23.74197023213819      -12.37490908092098
H           -0.85686903680872       24.84816824261047      -11.55011242766739
C            4.62943199523288       24.08075425741156      -15.16719506523281
H            4.77114088468663       23.24233299549507      -14.48066342096921
H            3.96829512824789       24.80054610662912      -14.68618767684902
H            5.59001956968902       24.56141780248981      -15.33198244553321
C            6.04735293077251       23.35292600707082      -18.00359704529323
H            6.23358172295629       23.38579472637073      -19.07202563964656
C            7.10615115358572       23.36571609824578      -17.19432325708524
H            7.03760829102134       23.30296601089755      -16.12296943017079
H            8.10603546704625       23.44127680287177      -17.58959154390836
C            4.40738169793141       21.36163522390573      -22.63837523396420
H            5.15209896194033       20.82517871877401      -22.05154536299020
H            4.73981847696460       22.39227458456167      -22.75353098334690
H            4.35460743289888       20.90551780443921      -23.62340796714660
C            1.61246670942526       20.06943413095908      -23.66621972586628
H            2.47896603346418       20.05228874477865      -24.32082239674718
H            0.80361846559046       20.58812746847421      -24.17998580599019
H            1.29702382837434       19.04293167586336      -23.48461791183000
O            0.25155263949731       24.16876130590315      -19.46403789535510
H           -0.19426534317243       24.82461504232283      -18.90962698202144
H            0.25195411400511       24.43384176374327      -20.38983668159980
C           -0.10039516522108       18.87835671599087      -17.72689019410528
H           -0.14519442774905       18.22699578031565      -16.86044466258006
H            0.22927027471674       18.32469168748737      -18.59863480688800
H           -1.06052462855597       19.34293576274564      -17.92179670695007
S            1.15962792877455       20.16848106585452      -17.42078094751712
H            0.54607568182338       20.67236067954763      -16.33188363772778
72
 energy: -105.972956470663 gnorm: 0.028056388507 xtb: 6.7.1 (edcfbbe)
Fe           0.63970042611287       22.20838485369590      -18.59222143709982
N           -1.11190660880020       21.53329759056326      -19.28460491912448
N           -0.28573658496514       22.86198746596733      -16.91672212849800
N            2.39002057886179       22.87568204705862      -17.89410696911844
N            1.52534085616941       21.63373833652804      -20.27068124778474
C           -1.32745534358514       20.85327224634077      -20.44059488877912
C           -2.71903552741752       20.48733095175609      -20.56417010529266
C           -3.34286505893270       20.96782046933420      -19.45531784190685
C           -2.32338869875870       21.62117505680236      -18.66956647743413
C           -1.61578895982010       22.79795718315332      -16.63503906008923
C           -1.89142183327157       23.34301172420307      -15.33705303477901
C           -0.68105953069762       23.73667560429488      -14.82023994737793
C            0.30549403021645       23.42558266525834      -15.83200626536444
C            2.62539149259893       23.35486773248160      -16.64263964169166
C            4.02908767088111       23.59931596369830      -16.44351091469080
C            4.64621074599570       23.28870857825588      -17.62787249876695
C            3.58818839928468       22.84202588185938      -18.51982058599856
C            2.82274958231189       21.83571360307351      -20.61431347523057
C            3.08812376797694       21.30623762122821      -21.93615790637373