72
 energy: -105.980112163678 gnorm: 0.000110791627 xtb: 6.7.1 (edcfbbe)
Fe           0.67013861630234       22.12983376624850      -18.61970948096342
N           -1.10629897549932       21.54170020115769      -19.35273077520941
N           -0.25597168491304       22.76163980541279      -16.93699305665090
N            2.41120538344534       22.80126466822248      -17.90981129855544
N            1.55534964274962       21.56479417508424      -20.30289802901646
C           -1.32732542530931       20.91546289894784      -20.53813591342761
C           -2.73107345907870       20.61487679628044      -20.70343486168996
C           -3.35729383194804       21.08317270999194      -19.59010048994087
C           -2.32548900779681       21.65379997470408      -18.75458768341554
C           -1.59146011231504       22.71007654998891      -16.66164281564298
C           -1.86114941245865       23.21888930636542      -15.34378034761936
C           -0.64906258181691       23.57557931584616      -14.81162086504331
C            0.33619114816499       23.29639341532860      -15.83509223494667
C            2.64158665855572       23.34736762123289      -16.68395274369905
C            4.03184582096405       23.69537546432038      -16.53155840748931
C            4.64413569091172       23.34648127409154      -17.70489106280561
C            3.60546301213242       22.78932107257719      -18.54906714518834
C            2.86834770219335       21.69775740299695      -20.61408241990489
C            3.14418506882035       21.14167616300263      -21.92285071971495
C            1.96201485688714       20.66336064263895      -22.38932914682391
C            0.97968304190516       20.94146244069870      -21.36203225460686
C           -0.35793328674145       20.62073164955190      -21.47789396719055
H           -0.67524669257133       20.11703002866530      -22.37755289643495
C           -2.56289687967257       22.20807387329304      -17.51202675968496
H           -3.58347339414601       22.22184263128341      -17.16298176356139
C            1.68776459046876       23.55147482706703      -15.70284141624754
H            2.02473636005010       23.95986058153296      -14.76303282548370
C            3.83135346948948       22.27150201240829      -19.80948553524527
H            4.84016604739728       22.30616688782354      -20.19002834510831
C           -4.80287047572317       21.04465410312424      -19.23139389876070
H           -5.38393308339042       20.57616254386284      -20.02158013808134
H           -5.18741732704449       22.05291481712555      -19.07542265659697
H           -4.95558124102802       20.47873529549637      -18.31194206096465
C           -3.30756764494387       19.92913279973716      -21.89341229521562
H           -2.85272985950314       18.94761525726931      -22.02727555044660
H           -3.12495600740666       20.51179086339416      -22.79655445112406
H           -4.38091326816322       19.79717866006517      -21.78203362659945
C           -3.21549009801930       23.36982477832881      -14.74508871548451
H           -3.56013317744872       22.42738499606835      -14.31592329419920
H           -3.93817620223013       23.68079269535377      -15.49817813017913
H           -3.19181746174587       24.11766715223099      -13.95515539203127
C           -0.35400821546111       24.15194700465456      -13.51822792131205
H            0.47365912208952       24.85110985563372      -13.49398259683019
C           -1.00351316550378       23.88272392604761      -12.39080639185453
H           -1.80128666581873       23.16194886737377      -12.34627307310739
H           -0.73846684202819       24.35876692808715      -11.46159121174261
C            4.62004592671805       24.37301356726222      -15.34397785824477
H            4.82788771865956       23.65480608379888      -14.54908276492919
H            3.93678994812987       25.12388591109143      -14.94975576762453
H            5.55247957368434       24.86162113400216      -15.61836169018275
C            6.02816873107083       23.50063001493287      -18.09668338131676
H            6.19507788055960       23.71879101667181      -19.14490994423451
C            7.07406322737195       23.38957318356480      -17.28485723181559
H            6.96821748809852       23.12744222543094      -16.24655438006848
H            8.08089768366529       23.53088401743924      -17.64106191469787
C            4.48861335178711       21.13188129984703      -22.56353522057035
H            5.20189927380130       20.58526165644051      -21.94659954443938
H            4.85892884777909       22.14936443856670      -22.68919257792746
H            4.44760469114240       20.65906509483021      -23.54158178807105
C            1.65723815561878       19.98717047217912      -23.68126924534397
H            2.55610852661410       19.88270171117287      -24.28349719973811
H            0.92693176609538       20.56163451331864      -24.25152713916253
H            1.24448708922757       18.99367768843663      -23.50530897191967
O            0.21839159424802       24.16262839622917      -19.45626339282601
H            0.13862148950667       24.68589197975613      -18.65064662066095
H           -0.67235843256625       24.03275255924042      -19.80155871189345
C           -0.46837129036670       19.30706232106062      -17.09872288658548
H           -0.27333065120518       18.50238041225253      -16.39663859100265
H           -0.94144738560512       18.91723967124683      -17.99379387717664
H           -1.09483595064287       20.07365438095323      -16.65648630526649
S            1.12074687244682       20.04013818099834      -17.62517062738537
H            1.44885312136243       20.49552936864747      -16.41097570106930
