87
 energy: -124.248194745172 gnorm: 0.000036562214 xtb: 6.7.1 (edcfbbe)
Fe          11.19139621691838       23.98109270937922        2.00732945064928
N           11.57456957662471       25.95744953924476        2.13455297065833
N           12.39871870899549       23.86638825276852        0.36170820740878
N           10.68962808794695       22.04333389466058        1.76915122912411
N            9.85839289119632       24.14307327000414        3.55983336129978
C           11.01446349528097       26.84514727120367        3.02377627357391
C           11.55141699889059       28.15335337314089        2.81896767458549
C           12.46519487846362       28.04175948011440        1.78347840241596
C           12.45009176704470       26.67521547342894        1.38398423384455
C           13.19084515213833       24.87523044561558       -0.14777006878805
C           13.93698414379203       24.38048958670214       -1.28815266467621
C           13.57080083598979       23.07821562800884       -1.45859060165240
C           12.61790320002756       22.77572861511455       -0.40896171701730
C           11.15637743487012       21.18421068075795        0.80815036557697
C           10.59429708252737       19.87915614277031        0.99220528780979
C            9.78316278612539       19.96911010336144        2.13936550816569
C            9.86433662724933       21.30605314721191        2.57703102021520
C            9.15137287777241       23.11478542713568        4.12996069120908
C            8.35458937582787       23.62406684559151        5.23736054578749
C            8.61710360759430       24.97175800718092        5.31316904709653
C            9.55636368980229       25.26781686770088        4.26080005150226
C           10.07984623753667       26.52865692041795        4.00454119788408
H            9.74123455738290       27.34062120694562        4.62861215394241
C           13.22892828704614       26.15810844733183        0.32116983554425
H           13.88158368168356       26.85718313986436       -0.17816100753525
C           12.03262304375897       21.53110556665809       -0.22056964659694
H           12.30134324763350       20.75567777197537       -0.91985043542849
C            9.14601897241242       21.82124953085401        3.68990666258606
H            8.51606008326373       21.11773723672750        4.21075214686707
C           11.16764059352060       29.36231261034245        3.59169646579476
H           11.39240985393652       29.23003975826598        4.65018114837488
H           10.09894071521925       29.55278804632202        3.49633421282233
H           11.70347176555994       30.23698801718634        3.23506122473974
C           13.30700391941221       29.10266368575372        1.16923065695990
H           13.03944912760418       29.24509205198061        0.12215096645384
H           14.36219902521706       28.83387625339514        1.21405776239538
H           13.17423678245447       30.04861058215632        1.68576885048133
C            8.11474459316265       25.95309713762191        6.30763508833392
H            7.27094577463231       26.51419614852872        5.90410244147069
H            8.89321899867861       26.66433650303845        6.57593865520381
H            7.78589857517033       25.43895466046549        7.20777570584039
C            7.49703599564455       22.81083877090174        6.06523995756227
H            7.81474443081292       21.78454377041609        6.20091194254819
C            6.36912445218440       23.22099244421399        6.64111583847337
H            5.97404808074602       24.21045750903217        6.49365352299685
H            5.78336586108969       22.55858978018652        7.25452643182394
C            9.04757935640894       18.86790578719756        2.81387610575976
H            8.03006366947978       18.78235239207024        2.42841060202115
H            8.98619236197033       19.03859955061003        3.88642218274565
H            9.55726500939809       17.92199803383562        2.64497324765817
C           10.85840346343117       18.74235528384018        0.15890583490639
H           11.79278664661409       18.77031838308968       -0.38776319857294
C           10.05640680199364       17.68688181272238       -0.01184626168449
H            9.08577283945132       17.61508410231595        0.44388177006216
H           10.34367534178228       16.87274691904637       -0.65420089796634
C           14.01761379215044       22.10116888111165       -2.48503120164928
H           14.71259585396977       22.56117196975521       -3.18134342070864
H           13.16532315931606       21.72310086629250       -3.04904970691932
H           14.51360536586603       21.25261233410799       -2.01411471897854
C           14.88423242159939       25.20411836664317       -2.08253370556499
H           15.35334275361741       24.61179774648689       -2.86254888835076
H           15.66565677136304       25.61284434075718       -1.44295949512658
H           14.36232360251790       26.03837089473938       -2.55098281645793
C           14.57599234030282       21.71114122263594        6.33653562708291
H           14.87057688092565       22.36199462668303        7.15914072476492
H           15.43588896647598       21.10045639929756        6.06315725071718
H           13.77967439767704       21.05739508471093        6.67812521930123
N           14.90695898858064       23.42239716632134        4.53985092567618
H           15.86021940885040       23.63790465844546        4.78562621324211
C           14.10941563137442       22.50893856255517        5.17756462575083
C           14.18827620080677       23.96857177544761        3.53936293976668
H           14.56190006269908       24.71810749931106        2.87090027047695
N           12.98094087803439       23.46150966864153        3.49710368089554
C           12.91661942126101       22.55063660296716        4.51181585853084
H           12.02249181473309       21.98998440481073        4.69365173124743
C           10.09066477426298       24.84132321958549       -2.15218637284834
H           10.36398698756796       24.33647999141587       -3.07587869042773
H           10.99952162440922       25.14020356883910       -1.63562561714093
H            9.52305426144176       25.73523693466185       -2.39759860627254
C            9.26660818546600       23.91349162956579       -1.28242388163477
H            9.81560406747452       23.00197467089957       -1.04241091992869
H            8.32394804158623       23.65946080224123       -1.76730006898957
S            8.84381537753294       24.74289813165132        0.29911696873640
C            7.60869702096856       23.56242571614188        0.91475947426139
H            8.05502873179455       22.57740510179135        1.01285430265475
H            6.76741786082295       23.53797999975182        0.22773948273880
H            7.28273277317515       23.91950258535606        1.88589238188174
