87
 energy: -124.447242970283 gnorm: 0.323591953918 xtb: 6.7.1 (edcfbbe)
Fe          15.68200000000000       13.12000000000000        7.15100000000000
N           16.77300000000000       12.38600000000000        8.66200000000000
N           16.41200000000000       11.70500000000000        5.93300000000000
N           14.56900000000000       13.82700000000000        5.64300000000000
N           15.00300000000000       14.57500000000000        8.34400000000000
C           16.79800000000000       12.83600000000000        9.95900000000000
C           17.72200000000000       12.04900000000000       10.77000000000000
C           18.22800000000000       11.10300000000000        9.91900000000000
C           17.66800000000000       11.32900000000000        8.61100000000000
C           17.48000000000000       10.83700000000000        6.20400000000000
C           17.87100000000000       10.12900000000000        5.02800000000000
C           16.97600000000000       10.51100000000000        4.01200000000000
C           16.09900000000000       11.49200000000000        4.60400000000000
C           14.36300000000000       13.22700000000000        4.42000000000000
C           13.32000000000000       13.92400000000000        3.68300000000000
C           12.91800000000000       14.94700000000000        4.48500000000000
C           13.72700000000000       14.89300000000000        5.67700000000000
C           14.18100000000000       15.62900000000000        7.99000000000000
C           13.92600000000000       16.46900000000000        9.13700000000000
C           14.53900000000000       15.91300000000000       10.19600000000000
C           15.20900000000000       14.73100000000000        9.67900000000000
C           16.05400000000000       13.90800000000000       10.45300000000000
H           16.13200000000000       14.12600000000000       11.51800000000000
C           18.02500000000000       10.65400000000000        7.46300000000000
H           18.81100000000000        9.90500000000000        7.55600000000000
C           15.06700000000000       12.12900000000000        3.94200000000000
H           14.78200000000000       11.73800000000000        2.96500000000000
C           13.62900000000000       15.78500000000000        6.72400000000000
H           13.06500000000000       16.70000000000000        6.54100000000000
C           18.02900000000000       12.28100000000000       12.23400000000000
H           16.98000000000000       12.21700000000000       12.59400000000000
H           18.31100000000000       13.35100000000000       12.13600000000000
H           18.69300000000000       11.77900000000000       12.96900000000000
C           19.19100000000000        9.96600000000000       10.27500000000000
H           20.02100000000000       10.25100000000000        9.59300000000000
H           18.57600000000000        9.18100000000000        9.78600000000000
H           19.62100000000000        9.57600000000000       11.22200000000000
C           14.51700000000000       16.33200000000000       11.65600000000000
H           14.86400000000000       16.02100000000000       12.66400000000000
H           13.40600000000000       16.33200000000000       11.64200000000000
H           14.90000000000000       17.35300000000000       11.44200000000000
C           13.11100000000000       17.77800000000000        9.07100000000000
H           12.06100000000000       17.70799999999999        9.39200000000000
C           13.85200000000000       19.00200000000000        9.44900000000000
H           14.90500000000000       19.13000000000000        9.15600000000000
H           13.35800000000000       19.79700000000000       10.02700000000000
C           11.78700000000000       15.92000000000000        4.27600000000000
H           12.39200000000000       16.85100000000000        4.32300000000000
H           11.31300000000000       15.74800000000000        5.26600000000000
H           11.00500000000000       16.03700000000000        3.49600000000000
C           12.75900000000000       13.47500000000000        2.32700000000000
H           12.69400000000000       12.39700000000000        2.22800000000000
C           12.77800000000000       14.47400000000000        1.25400000000000
H           12.84700000000000       15.54600000000000        1.49000000000000
H           12.72300000000000       14.16300000000000        0.20000000000000
C           16.96400000000000       10.11000000000000        2.58300000000000
H           16.49700000000000       10.33800000000000        1.60100000000000
H           16.67100000000000        9.08400000000000        2.89200000000000
H           18.06800000000000       10.17500000000000        2.48100000000000
C           19.09700000000000        9.26400000000000        4.84900000000000
H           19.28900000000000        9.67200000000000        3.83400000000000
H           18.46300000000000        8.35600000000000        4.75800000000000
H           20.06800000000000        9.00300000000000        5.32200000000000
C           10.70700000000000       11.35000000000000        8.99000000000000
H           10.77200000000000       10.90800000000000       10.00700000000000
H           10.02400000000000       10.73000000000000        8.37100000000000
H           10.31100000000000       12.38500000000000        9.07100000000000
N           12.84200000000000       10.25100000000000        8.13600000000000
H           12.53100000000000        9.30800000000000        8.25100000000000
C           12.07800000000000       11.37700000000000        8.36500000000000
C           14.06600000000000       10.65600000000000        7.73500000000000
H           14.88600000000000        9.97500000000000        7.51000000000000
N           14.10300000000000       11.97500000000000        7.66300000000000
C           12.85500000000000       12.43300000000000        8.03000000000000
H           12.63300000000000       13.49300000000000        8.01700000000000
C           18.29500000000000       14.09700000000000        3.98500000000000
H           18.27500000000000       14.52100000000000        2.95800000000000
H           17.81300000000000       13.09600000000000        3.96500000000000
H           19.35400000000000       13.99600000000000        4.30600000000000
C           17.54900000000000       15.01200000000000        4.94200000000000
H           16.49600000000000       15.10700000000000        4.60200000000000
H           18.01600000000000       16.01900000000000        4.91400000000000
S           17.59200000000000       14.36000000000000        6.63600000000000
C           17.63000000000000       15.90600000000000        7.59200000000000
H           16.73200000000000       16.52800000000000        7.38900000000000
H           18.52800000000000       16.50200000000000        7.32200000000000
H           17.65500000000000       15.68400000000000        8.68000000000000
87
 energy: -124.579880738110 gnorm: 0.170765940637 xtb: 6.7.1 (edcfbbe)
Fe          15.68440835384702       13.12420796112993        7.15225054713463
N           16.77642537202771       12.38132460892738        8.67445792072001
N           16.41075550625885       11.70682257792662        5.94254315730976
N           14.56450047347291       13.82253215085076        5.63040703738498
N           14.99493435829644       14.57435834574448        8.34464746108969
C           16.79900309688483       12.83316087627365        9.96346186012800
C           17.72463802403128       12.04013060758515       10.76750316937143
C           18.23176571493578       11.10291520211883        9.93513545421077
C           17.66688231887361       11.33401781686940        8.62233218941824
C           17.46763033539490       10.85819354635963        6.21350917596530
C           17.86887766006069       10.17091557007294        5.03278068727231
C           16.97836308484776       10.54753290672567        4.03477569350908
C           16.09080678146334       11.49921553964134        4.62722731868252
C           14.35037019063973       13.21653460996183        4.41883253778678
C           13.30767443051483       13.90798306031064        3.67144222864711
C           12.91443944500027       14.93796102263706        4.46608082569267
C           13.72214722927768       14.88903157460969        5.66900059049913
C           14.18764715794357       15.62757025453943        7.98370191377173
C           13.93724546279343       16.48047648874426        9.12493322506930
C           14.55774118047955       15.89317783837620       10.19019046240230
C           15.22071093192882       14.71715861220627        9.67589878983634
C           16.05361980745907       13.90156698859545       10.44721187460434
H           16.13164073845208       14.12860866170981       11.50635167220920
C           18.02090798779412       10.65918291340923        7.46894047391128
H           18.80388393954866        9.90942967059136        7.55190444334142
C           15.06033976017568       12.12898217537764        3.94730322805453
H           14.79261057103600       11.74521317908284        2.96720184916229
C           13.63066657635700       15.78891737693707        6.72250094447199
H           13.05844774299734       16.69545223754099        6.55009664963000
C           17.99728506015764       12.30911076649428       12.22366215026197
H           16.98216300057153       12.23630053537392       12.63259818005038
H           18.30756811178729       13.36060434364642       12.17631503774614
H           18.68034541995876       11.76944677199251       12.90264184764308
C           19.18530586034166        9.96296506304477       10.23082068180451
H           20.03832435973715       10.21823402521068        9.59015444531187
H           18.60968260264945        9.14410238501454        9.78340394436947
H           19.57816565617576        9.62889043230027       11.20711621428783
C           14.49063366042439       16.38297781141895       11.62781637896135
H           14.87919391206559       15.99459739444550       12.58998781402981
H           13.39408383559315       16.32372741095768       11.68850085058429
H           14.87413550032163       17.39458737773170       11.47909218094266
C           13.16473658661690       17.78523758467158        9.15114915243863
H           12.08983877423313       17.71708696320696        9.38047184223183
C           13.83197725848148       18.96263593221449        9.44665383226084
H           14.87777648943877       19.10646683033307        9.17064830647207
H           13.34925147328478       19.78476146648616        9.97923655334887
C           11.80340843009490       15.93550007841781        4.30783193161289
H           12.36260845199484       16.87965767960923        4.33004931535752
H           11.28598568906175       15.78644044145826        5.26453266945474
H           11.05249894068135       15.99552846581670        3.50317487698079
C           12.81498061607900       13.51750719232432        2.31273723842701
H           12.69439855590724       12.43795086142871        2.20494043650561
C           12.77961135603630       14.43862926285382        1.28852652632906
H           12.85641507207042       15.50642888842939        1.49717522531785
H           12.70018840124471       14.15525285237807        0.23642511350762
C           16.99314326676972       10.07567013752600        2.60991140753802
H           16.48829968189684       10.37213535361508        1.67161351865633
H           16.69401083001434        9.04393279577177        2.84011095696324
H           18.07587813686872       10.13828276942172        2.43420108190463
C           19.05828457853657        9.25728939854834        4.81100923829375
H           19.32515196389390        9.62725481286776        3.81238263108375
H           18.49709948454213        8.31690592834964        4.72692443917558
H           20.00494643026710        9.05123542471056        5.34665445707563
C           10.71076379402681       11.34551297883379        8.98403592446467
H           10.76826910648247       10.91277146664871        9.99315138645442
H           10.02584074409375       10.73736236893793        8.37932219051426
H           10.31784373025349       12.36654120547698        9.06626388790278
N           12.83937014640452       10.25511142232194        8.14452015154777
H           12.52927691090638        9.30628487324185        8.25702683343089
C           12.07463955764287       11.37715490375976        8.36794623901612
C           14.06189607550383       10.66321589713132        7.73346065369573
H           14.87550922513207        9.98876559308403        7.51029187355429
N           14.10567015471168       11.97479392798757        7.65760292014868
C           12.86565205924319       12.43150135041256        8.03257386118267
H           12.64047191883521       13.48356118906565        8.02000068093012
C           18.29655835517919       14.09683862703361        3.98495526193005
H           18.27591518498300       14.51398655275311        2.96932238144444
H           17.82362215689745       13.10786441565965        3.96522762568636
H           19.34218885651331       13.99275499781426        4.30129404222455
C           17.54713459407802       15.01875341420214        4.93324548425002
H           16.50084984677775       15.10859184291278        4.60972565842432
H           18.01156043702865       16.01444709336397        4.92146147996681
S           17.60055960704759       14.36704152879023        6.63810470630722
C           17.62866845237554       15.91801875891159        7.59015560537254
H           16.73557314160620       16.52079512861804        7.38878642417470
H           18.52360471600725       16.49407318708705        7.32377288363049
H           17.65509954767780       15.67834746302519        8.66065798552922
87
 energy: -124.651128980453 gnorm: 0.094393227536 xtb: 6.7.1 (edcfbbe)
Fe          15.68494654760956       13.12385327455596        7.15152527738171
N           16.78044688179090       12.37612361543813        8.68503385243571
N           16.41147608851412       11.70619792604325        5.94876386936969
N           14.55646859452534       13.81897903340718        5.61965508118658
N           14.98867318642988       14.57531388312079        8.34195788404270
C           16.79927391368868       12.82864689442931        9.96697143214017
C           17.72603801078406       12.03265659081585       10.76978979310193
C           18.23714530712156       11.09858778478057        9.94918999058634
C           17.66403222195913       11.33888174427010        8.63064228656119
C           17.46108074209293       10.87849373215530        6.21922542702870
C           17.87267852100890       10.20043076079134        5.03098576537150
C           16.98456966441609       10.57402524551361        4.04706866233459
C           16.08615548108421       11.50634770785931        4.64341176029627
C           14.33686991055924       13.20964948870691        4.41888636259240
C           13.29412469501876       13.90065107247310        3.66414646946252
C           12.91044682263017       14.93850421333820        4.45332399321244
C           13.71609300926139       14.88556996632669        5.66481912476744
C           14.19544953264513       15.62587541700349        7.97726446035326
C           13.95216165552283       16.49320397818594        9.11181709496743
C           14.57231159908964       15.87464816716552       10.18078700975878
C           15.22792403375938       14.70512733244493        9.67168803498692
C           16.05201101668185       13.89387468381747       10.44132833060804
H           16.13124291918099       14.13223144968467       11.49436429383631
C           18.01865998069628       10.66612070259597        7.47406530167731
H           18.79638640035533        9.91560522422731        7.54716791516708
C           15.05435198598472       12.13042620987085        3.95063856091561
H           14.80549795320217       11.75230659642967        2.96814353496418
C           13.63148053056174       15.79098548396652        6.72055406434063
H           13.04998258912583       16.68892786223232        6.55993819220376
C           17.96500345435140       12.33800722829958       12.21483426269612
H           16.98219908382597       12.25876681734732       12.67454853383422
H           18.30203116492184       13.37356398178316       12.21886855725064
H           18.66991581953482       11.75203498369574       12.82560757370882
C           19.18040709424821        9.96110835278492       10.18670656116103
H           20.05796315515250       10.18382087036349        9.58376488746337
H           18.64628137749173        9.10545854691128        9.77808077472704
H           19.52874028078539        9.69296431370133       11.19697685424132
C           14.45862970945952       16.38950657280763       11.59300593192173
H           14.90064437150528       15.94012830302313       12.50256353360497
H           13.37974668423416       16.43130418915070       11.73778632806556
H           14.84784748023723       17.40232685005780       11.52253373602942
C           13.21292116292347       17.78387035806062        9.22158706993818
H           12.12416913041392       17.70989644772629        9.37950528633736
C           13.81752041737375       18.91955408896895        9.44721330932741
H           14.86397980860458       19.07767844775995        9.20436339282857
H           13.33344882383408       19.77835443381808        9.91334845052839
C           11.81938976259763       15.95210624414150        4.33906095851635
H           12.33189321438378       16.91196870536120        4.33815954814413
H           11.25815558762804       15.82727866044541        5.26428461398699
H           11.10610146039236       15.94376237568728        3.50309998483444
C           12.85518880780338       13.54745471004368        2.30998529672422
H           12.70731296476055       12.46977565559923        2.17870456144801
C           12.78658591692568       14.40804155219337        1.32491674562681
H           12.87787577794967       15.47557769030569        1.50173351660995
H           12.66722914932431       14.14530773973284        0.27599542399017
C           17.02438029455726       10.03964498819378        2.63925258197284
H           16.47138206249856       10.42168717943549        1.75922080449172
H           16.71848743259092        9.00428180967767        2.79026467232884
H           18.08424878976566       10.09831379432221        2.39079891411763
C           19.01857481366822        9.25167604872679        4.77255911449040
H           19.35682303109716        9.57990778536479        3.78916288371450
H           18.52775906795662        8.28108460938534        4.69773887685013
H           19.93153428325103        9.11588125128049        5.38605588940301
C           10.71473370602260       11.34140635096182        8.97834570172242
H           10.76620955914177       10.91433304348109        9.98172294564427
H           10.02861924792121       10.74121456406693        8.38327449758967
H           10.32394128173570       12.35259519301418        9.05999395983441
N           12.83780065160071       10.25840014106807        8.15439674037016
H           12.52957328976129        9.30554815945861        8.26432960743527
C           12.07325836356692       11.37783684694298        8.37175325277919
C           14.05786670351037       10.66802622001496        7.73216090882602
H           14.86673358467015        9.99993151634266        7.50910125507103
N           14.10725116770852       11.97363959025849        7.65434367370945
C           12.87611725097890       12.42970231720777        8.03483061417897
H           12.64637355861876       13.47548493058979        8.02520839254737
C           18.29744224114157       14.09820060667662        3.98355494165472
H           18.27650219785874       14.50957532183029        2.97588926679240
H           17.83077018970466       13.11785405225488        3.96685774009963
H           19.33256442303923       13.99196191064196        4.29946756370221
C           17.54576932767454       15.02597495531737        4.92469365672259
H           16.50377737221494       15.10947663304548        4.61847287024339
H           18.00857395953241       16.01229004772937        4.92904928652358
S           17.60759366859915       14.37076308797961        6.64090137818465
C           17.62750141815307       15.92955936564134        7.58741725796570
H           16.73664436401393       16.51478326464459        7.38574438383159
H           18.52053650882973       16.48951547419521        7.32370149780441
H           17.65449473265160       15.67158477882879        8.64334535020119
87
 energy: -124.683294221389 gnorm: 0.051982018101 xtb: 6.7.1 (edcfbbe)
Fe          15.68569938388614       13.12322516048611        7.15089322908283
N           16.77648870613643       12.37318326343728        8.68702568175257
N           16.41074797875443       11.70838791540744        5.95168656044596
N           14.55033472710407       13.81585950251613        5.62346822680133
N           14.99010635281673       14.57311827687593        8.34023601860111
C           16.79310170581315       12.82364067052858        9.96644432247328
C           17.71737483198086       12.03144983814819       10.77068528995839
C           18.23510375650003       11.09534793153186        9.94726328466269
C           17.65761430447395       11.34217185752247        8.63003366884461
C           17.46338891401560       10.89103012601006        6.21944237202815
C           17.87532920056762       10.20848185180490        5.02595118981560
C           16.98915501098770       10.57841073067426        4.04808703320335
C           16.08400348489976       11.51005169721885        4.64786749309412
C           14.32786450980410       13.20450729515146        4.42978755873883
C           13.29129081554160       13.90198158159337        3.67890784952222
C           12.91045466843954       14.94701590663866        4.46268786757551
C           13.71469026991546       14.88404318927995        5.67134926877372
C           14.20698277614600       15.62401242744116        7.97370507967553
C           13.96341916165289       16.48486347001503        9.10861506669381
C           14.57831597998449       15.87310636928084       10.17816520764156
C           15.23007736871708       14.70148353736853        9.67115524041906
C           16.04977074399612       13.88809946675929       10.43928032190742
H           16.13268739190120       14.13530541252448       11.48772911356124
C           18.01738819950911       10.67378422494731        7.47439460144439
H           18.79080439239785        9.92213643890336        7.54268049345615
C           15.05040545574385       12.13081856241413        3.95617974740839
H           14.82060512690706       11.76281245760710        2.96641398088438
C           13.63442233013237       15.79122398751963        6.72202793033768
H           13.03832138297067       16.68106098120655        6.57300669988559
C           17.94257117656889       12.35333531649213       12.20851129944918
H           16.98094109052485       12.28140553890595       12.71972671758727
H           18.29402275819024       13.38579362092772       12.26261585611121
H           18.66505733387027       11.72390127718871       12.75103832588924
C           19.17669136749075        9.96161585949572       10.15913632622673
H           20.07927388123503       10.14837354289906        9.57635554903743
H           18.68601919378482        9.06517085232373        9.77138358909272
H           19.48204417436544        9.75848219214825       11.19796152152156
C           14.44613834339411       16.41108238500800       11.56865672555758
H           14.92448349976808       15.88941561458606       12.41961431582159
H           13.37260575805318       16.46341491479043       11.77667415382280
H           14.82714623276010       17.43728711517770       11.55766778476035
C           13.22026496874040       17.74480046290576        9.26593429286561
H           12.13839965128664       17.67305152800815        9.40267899201748
C           13.81543918131853       18.93182527186008        9.42183581698057
H           14.88193513077170       19.05653489083019        9.25531137451004
H           13.30910176280488       19.80638010772557        9.82711290666122
C           11.83069220972300       15.96510344135236        4.35566255301620
H           12.29937484644456       16.95006159541401        4.34427673580683
H           11.22734469625403       15.87476217851408        5.26227081397909
H           11.15806982706339       15.89059148264424        3.48873741896833
C           12.89302066081070       13.54114615544621        2.32581270898468
H           12.73935949457488       12.47332392461837        2.16421747832010
C           12.77120445049744       14.41317845217425        1.32798320346197
H           12.91065868736909       15.47417171967448        1.49613203591685
H           12.61188832297185       14.13764235782489        0.29306372057915
C           17.03959862871528       10.02122784763327        2.65867844502313
H           16.44337548877546       10.47662991459091        1.84240057528162
H           16.74380043411914        8.97028539347290        2.74165851792377
H           18.08695687630103       10.05903036087233        2.34364169236528
C           18.99241266118797        9.24916398148763        4.75547641860382
H           19.39137483054348        9.52639529763576        3.77227160186145
H           18.55615167325474        8.24915160242307        4.67097525716341
H           19.86207644855140        9.18062240550585        5.44117952556279
C           10.71712094962513       11.33854904017047        8.97263808577941
H           10.76323588399939       10.91218992925545        9.97507754694976
H           10.03010220959611       10.73997227071830        8.37842458110287
H           10.32629745802324       12.34782125351806        9.05143989935116
N           12.83971865864224       10.26001451375952        8.16357396716561
H           12.53251602248357        9.30698020174219        8.27523028638296
C           12.07661197501393       11.37948604293470        8.37543491896512
C           14.05634513293961       10.66918434313549        7.73133456944916
H           14.86330508408859       10.00431164566804        7.50401285144350
N           14.10870088448455       11.97387664088750        7.65217121209964
C           12.88297020133857       12.42978621264982        8.03894061004522
H           12.65190616861216       13.47392527544612        8.03428860352055
C           18.29785885451391       14.10250809739985        3.98323833199410
H           18.27827019694391       14.50865799658709        2.97500118385109
H           17.83366141633692       13.12241173466991        3.96987177827258
H           19.33076704196355       13.99337273801684        4.30093434577638
C           17.54653602556427       15.03098064281329        4.92217276210406
H           16.50234703339061       15.11151805778142        4.62828722697288
H           18.00816905254576       16.01607221826475        4.93753862879693
S           17.61515004534755       14.37006940263241        6.64055468008764
C           17.62742091991844       15.93367276572470        7.58118496122694
H           16.73300977918807       16.51110961267922        7.37819250884339
H           18.52206334175569       16.48998280875206        7.32080722508902
H           17.65347098990275       15.66257382142178        8.63182458530911
87
 energy: -124.695312608567 gnorm: 0.054319424530 xtb: 6.7.1 (edcfbbe)
Fe          15.68525272709423       13.12289470593979        7.14941091525347
N           16.76648440953106       12.37297961554384        8.68248811993406
N           16.41456137639912       11.71355571714436        5.94683852059424
N           14.54545382113876       13.81198943922529        5.63275635014387
N           14.99357763850722       14.57416161004774        8.34093225671053
C           16.78128098521927       12.81893552327757        9.96208998868840
C           17.70259334199579       12.03112293030983       10.76755563683441
C           18.22813819186559       11.09506676084406        9.93796700731423
C           17.64847600948016       11.34728741978261        8.62404946760582
C           17.46847369415999       10.89791136546470        6.21477585005222
C           17.87531472820813       10.20429530975627        5.01931525388732
C           16.98949155353342       10.57137527848263        4.04345008615809
C           16.08414021594714       11.51299853529517        4.64332764526808
C           14.32017713299227       13.20233365194202        4.44175212972245
C           13.29270408427045       13.91082333393253        3.69151143855206
C           12.91590980686036       14.96204752142037        4.47523731720284
C           13.71476752418721       14.88297116799785        5.68138561082734
C           14.21527305021183       15.62553380308149        7.97238620950506
C           13.97243938202338       16.48663573199014        9.10367040253237
C           14.57416157784670       15.88011118765681       10.17775162609750
C           15.22911661320676       14.70469847708952        9.67349490069842
C           16.04481046109588       13.88527343294171       10.43826596222060
H           16.13381467176212       14.13694330563752       11.48388364747573
C           18.01666768433346       10.68181304096769        7.47019431762809
H           18.78886538180918        9.93117763452251        7.53833804534039
C           15.04885543191783       12.13399992363430        3.95902275847293
H           14.83438591749365       11.77839773890697        2.96197587701884
C           13.63457365796183       15.79135851274257        6.72610490970336
H           13.02422978975146       16.67288283550895        6.58740188888205
C           17.92976283490315       12.35334336901674       12.20169417675776
H           16.98761015046756       12.28668163117662       12.75385739077007